INSANE! Membrane UpperLeaflet>loPI:POPI:DPPI:PYPI:ERGO=180.0:5.0:3.0:2.0:10.0 LowerLeaflet>PSPI:POPI:POPS:YOPS:POPE:YOPE:POPC:YOPC:ERGO=6.0:14.0:21.0:9.0:9.0:21.0:12.0:48.0:60.0
49606
    1loPI    C1    1  14.223  17.360  10.709  0.0085 -0.0837  0.3594
    1loPI    C2    2  14.519  17.103  10.786  0.2222  0.0656  0.0545
    1loPI    C3    3  14.583  17.497  10.816  0.1074  0.1043 -0.1825
    1loPI   PO4    4  14.069  17.247  10.515 -0.0137 -0.0886  0.3824
    1loPI   GL1    5  13.929  17.213  10.105 -0.3164 -0.3454  0.1912
    1loPI   GL2    6  13.830  17.445   9.905  0.0455  0.2263 -0.3460
    1loPI   C1A    7  14.128  16.876   9.789  0.2440  0.1890 -0.0366
    1loPI   C2A    8  14.249  16.884   9.387  0.1059 -0.4685 -0.4641
    1loPI   C3A    9  14.220  16.969   8.950  0.0122  0.0882  0.2170
    1loPI   C4A   10  13.971  17.239   8.687  0.2424  0.1827  0.0417
    1loPI   C5A   11  14.018  17.227   8.199 -0.0558 -0.2450 -0.1718
    1loPI   C6A   12  14.204  17.395   7.834 -0.3313 -0.0988 -0.1502
    1loPI   C1B   13  14.075  17.392   9.526  0.2380  0.1609 -0.0752
    1loPI   C2B   14  14.089  17.491   9.098 -0.0839 -0.1600  0.2162
    1loPI   C3B   15  14.128  17.701   8.724 -0.3500  0.0794  0.0782
    1loPI   C4B   16  14.104  17.681   8.314 -0.0455  0.3389  0.0060
    2loPI    C1   17  17.275  17.915  10.614  0.1451  0.0705 -0.0917
    2loPI    C2   18  17.452  17.640  10.844  0.1779  0.0524 -0.1388
    2loPI    C3   19  17.576  18.020  10.855  0.0696  0.0844 -0.0030
    2loPI   PO4   20  17.238  17.869  10.276 -0.2246  0.1555  0.2089
    2loPI   GL1   21  17.317  17.532  10.023  0.1058  0.2505 -0.3806
    2loPI   GL2   22  17.156  17.231   9.941  0.2382 -0.0005 -0.2590
    2loPI   C1A   23  17.313  17.676   9.642 -0.0570 -0.1986 -0.1294
    2loPI   C2A   24  17.249  17.759   9.234 -0.1124 -0.2121 -0.0149
    2loPI   C3A   25  17.356  18.019   8.936 -0.0249 -0.2217 -0.0742
    2loPI   C4A   26  17.204  18.382   8.741  0.0773 -0.1633 -0.0806
    2loPI   C5A   27  17.017  18.657   8.482  0.2642 -0.0062  0.3845
    2loPI   C6A   28  17.084  18.833   8.080  0.2071  0.2741  0.0014
    2loPI   C1B   29  17.121  17.103   9.452 -0.1376  0.2192  0.4410
    2loPI   C2B   30  17.255  16.822   9.052  0.3002  0.3219  0.2073
    2loPI   C3B   31  17.512  16.644   8.899 -0.0563 -0.2960  0.0018
    2loPI   C4B   32  17.878  16.424   8.740 -0.0124  0.1853  0.1009
    3loPI    C1   33   5.776   9.322  10.767  0.1884 -0.4191  0.4625
    3loPI    C2   34   5.772   9.649  10.996 -0.2575 -0.0748 -0.0131
    3loPI    C3   35   5.436   9.440  10.941 -0.0999 -0.2953 -0.1546
    3loPI   PO4   36   5.934   9.357  10.525  0.0333 -0.1515 -0.1185
    3loPI   GL1   37   5.995   9.568  10.172  0.0426  0.3954 -0.1928
    3loPI   GL2   38   5.707   9.449  10.042  0.0996  0.2972 -0.0045
    3loPI   C1A   39   6.047   9.497   9.664  0.1730 -0.0251 -0.2124
    3loPI   C2A   40   6.122   9.503   9.281 -0.0333  0.0718  0.0978
    3loPI   C3A   41   5.991   9.385   8.890  0.1640 -0.0386 -0.5327
    3loPI   C4A   42   5.964   9.330   8.497 -0.0065 -0.0581  0.1685
    3loPI   C5A   43   5.862   9.246   8.081  0.0269 -0.3113 -0.3820
    3loPI   C6A   44   5.684   8.858   7.887  0.0043  0.0310  0.2095
    3loPI   C1B   45   5.562   9.503   9.649  0.0258 -0.1728  0.0101
    3loPI   C2B   46   5.610   9.493   9.257 -0.1284  0.0091  0.1462
    3loPI   C3B   47   5.456   9.379   8.782  0.0209  0.0434 -0.1617
    3loPI   C4B   48   5.444   9.154   8.439 -0.2828  0.0331 -0.0283
    4loPI    C1   49  13.498  16.883  10.382  0.3202  0.0534  0.0723
    4loPI    C2   50  13.536  17.088  10.724 -0.3168  0.0991  0.1279
    4loPI    C3   51  13.565  17.277  10.373  0.1269  0.0895  0.1538
    4loPI   PO4   52  13.687  16.733  10.367  0.0877  0.2014 -0.0277
    4loPI   GL1   53  13.774  16.574   9.962 -0.2467 -0.0057  0.1760
    4loPI   GL2   54  13.618  16.780   9.850 -0.0453 -0.2428 -0.1973
    4loPI   C1A   55  13.878  16.421   9.536  0.2261  0.0421 -0.1100
    4loPI   C2A   56  13.883  16.568   9.129 -0.2263  0.0465 -0.2206
    4loPI   C3A   57  13.909  16.586   8.712  0.0845 -0.0977 -0.2309
    4loPI   C4A   58  14.024  16.362   8.341 -0.2216  0.1658  0.0997
    4loPI   C5A   59  13.974  15.949   8.068 -0.4571 -0.0624 -0.0839
    4loPI   C6A   60  13.585  15.614   8.103  0.0545 -0.0500  0.0550
    4loPI   C1B   61  13.737  17.014   9.492  0.2606  0.2655 -0.0479
    4loPI   C2B   62  13.726  17.068   9.100  0.1392  0.0537  0.1286
    4loPI   C3B   63  13.497  16.953   8.660 -0.2590  0.1651  0.0011
    4loPI   C4B   64  13.344  16.544   8.432  0.0052  0.1491  0.2456
    5loPI    C1   65   7.949   4.276  10.894 -0.1769  0.0020  0.1243
    5loPI    C2   66   7.982   4.652  11.027 -0.3376  0.1033 -0.1150
    5loPI    C3   67   7.726   4.399  11.202 -0.0071  0.0082  0.2463
    5loPI   PO4   68   7.916   4.321  10.551  0.1825  0.0148  0.1607
    5loPI   GL1   69   7.658   4.224  10.294 -0.3614  0.2312 -0.0681
    5loPI   GL2   70   7.726   4.521  10.072  0.1080  0.0954 -0.0694
    5loPI   C1A   71   7.783   4.014   9.892 -0.2451  0.1385 -0.0866
    5loPI   C2A   72   7.909   4.029   9.473 -0.1089 -0.2363 -0.0169
    5loPI   C3A   73   7.901   3.937   9.047  0.1529  0.1484 -0.1640
    5loPI   C4A   74   7.834   3.852   8.665  0.1144 -0.2561 -0.1935
    5loPI   C5A   75   7.758   4.108   8.403 -0.0446  0.1271 -0.0107
    5loPI   C6A   76   7.726   4.037   7.975 -0.1781 -0.2227  0.3283
    5loPI   C1B   77   7.709   4.430   9.680 -0.1594  0.1547  0.1293
    5loPI   C2B   78   7.630   4.366   9.302  0.2206  0.2516 -0.0342
    5loPI   C3B   79   7.611   4.374   8.819 -0.2253  0.1390 -0.0954
    5loPI   C4B   80   7.491   4.500   8.486 -0.0819 -0.1929  0.0429
    6loPI    C1   81  12.152  17.497  10.846 -0.0248  0.1776  0.0050
    6loPI    C2   82  11.771  17.375  10.834 -0.1229  0.4466  0.2623
    6loPI    C3   83  11.972  17.370  11.180  0.1283  0.2517  0.1169
    6loPI   PO4   84  12.230  17.311  10.555 -0.2703  0.1584 -0.0988
    6loPI   GL1   85  12.539  17.330  10.204 -0.2231  0.1431 -0.0183
    6loPI   GL2   86  12.392  17.660  10.245  0.1847  0.2025 -0.2244
    6loPI   C1A   87  12.368  17.349   9.719 -0.0925  0.1428  0.0159
    6loPI   C2A   88  12.254  17.308   9.236  0.2205 -0.0846  0.0091
    6loPI   C3A   89  12.077  17.503   8.862 -0.0929  0.0203 -0.0538
    6loPI   C4A   90  12.030  17.598   8.389 -0.0653 -0.1065  0.1751
    6loPI   C5A   91  11.900  18.009   8.188  0.0879  0.1090 -0.0113
    6loPI   C6A   92  11.573  18.280   7.908  0.2888  0.0059  0.1336
    6loPI   C1B   93  12.425  17.967   9.879 -0.2516 -0.2581 -0.0514
    6loPI   C2B   94  12.113  18.097   9.574  0.1871  0.0953  0.2518
    6loPI   C3B   95  11.849  18.376   9.242  0.1592 -0.0718  0.0549
    6loPI   C4B   96  11.886  18.416   8.778  0.0032 -0.1404 -0.0979
    7loPI    C1   97   8.723   3.549  10.749  0.0564 -0.0978  0.0756
    7loPI    C2   98   8.334   3.527  10.657  0.0438  0.0119  0.1006
    7loPI    C3   99   8.447   3.644  11.022  0.1034  0.2111  0.0197
    7loPI   PO4  100   8.830   3.591  10.517  0.2155 -0.1257 -0.0706
    7loPI   GL1  101   8.658   3.914  10.178 -0.1837  0.2072 -0.3672
    7loPI   GL2  102   8.972   3.846  10.142  0.4151  0.0168  0.3279
    7loPI   C1A  103   8.651   3.597   9.799 -0.0203 -0.1299  0.2512
    7loPI   C2A  104   8.654   3.468   9.405  0.4230  0.1548  0.0424
    7loPI   C3A  105   8.990   3.326   8.969 -0.1149  0.0487 -0.0783
    7loPI   C4A  106   9.052   3.391   8.526 -0.3456  0.0367  0.4771
    7loPI   C5A  107   8.712   3.582   8.207 -0.3880  0.1589  0.2116
    7loPI   C6A  108   8.579   3.419   7.834 -0.0918 -0.2228  0.0925
    7loPI   C1B  109   8.916   4.012   9.675  0.0957 -0.0838 -0.1373
    7loPI   C2B  110   8.895   4.328   9.340 -0.1295  0.3407  0.0061
    7loPI   C3B  111   8.631   4.377   9.005 -0.4055  0.5338 -0.2688
    7loPI   C4B  112   8.690   4.295   8.575 -0.0212  0.1776  0.1434
    8loPI    C1  113   6.636   8.361  10.734  0.0589  0.2030 -0.0008
    8loPI    C2  114   6.518   8.686  10.533 -0.1680  0.0369 -0.1406
    8loPI    C3  115   6.473   8.669  10.930 -0.2667  0.1279 -0.1477
    8loPI   PO4  116   6.475   8.142  10.572  0.1175 -0.3251  0.2158
    8loPI   GL1  117   6.240   8.045  10.169  0.2205 -0.2459 -0.0194
    8loPI   GL2  118   6.172   8.433  10.159  0.0132 -0.1356  0.4033
    8loPI   C1A  119   6.217   7.985   9.771 -0.4096 -0.0794 -0.0308
    8loPI   C2A  120   6.184   8.087   9.340 -0.3965 -0.0093 -0.1695
    8loPI   C3A  121   6.159   8.077   8.934 -0.2131 -0.1750  0.0997
    8loPI   C4A  122   6.237   8.121   8.512 -0.1088 -0.3337  0.0480
    8loPI   C5A  123   6.386   8.148   8.122  0.1587 -0.0075 -0.0445
    8loPI   C6A  124   6.770   8.173   7.984  0.1537  0.1528 -0.1206
    8loPI   C1B  125   5.944   8.622   9.867 -0.3025  0.1097 -0.1828
    8loPI   C2B  126   6.050   8.573   9.426  0.0660  0.2549 -0.0351
    8loPI   C3B  127   5.918   8.546   9.055  0.1403 -0.0475 -0.2323
    8loPI   C4B  128   5.967   8.526   8.710 -0.1737 -0.2722 -0.1173
    9loPI    C1  129   0.321   8.682  10.872 -0.0153  0.3782  0.0702
    9loPI    C2  130   0.423   8.412  11.150 -0.1292  0.0772 -0.1741
    9loPI    C3  131   0.530   8.795  11.194  0.0818 -0.0153  0.1513
    9loPI   PO4  132   0.053   8.593  10.816 -0.3727  0.0741 -0.0242
    9loPI   GL1  133  -0.021   8.530  10.424  0.1267  0.2656 -0.1131
    9loPI   GL2  134   0.081   8.660  10.120 -0.3602  0.2367 -0.3139
    9loPI   C1A  135  -0.048   8.176  10.082 -0.1786 -0.0384  0.1241
    9loPI   C2A  136  -0.145   8.128   9.606  0.1247 -0.0175  0.0099
    9loPI   C3A  137  -0.253   8.495   9.303  0.1325 -0.0660 -0.0487
    9loPI   C4A  138  -0.231   8.493   8.843 -0.1328 -0.0288 -0.3083
    9loPI   C5A  139  -0.169   8.447   8.375 -0.1843 -0.1212 -0.2304
    9loPI   C6A  140  -0.190   8.252   7.969 -0.1691 -0.2396 -0.0816
    9loPI   C1B  141   0.100   8.839   9.661  0.1137 -0.1985 -0.2002
    9loPI   C2B  142   0.013   8.950   9.265 -0.2368  0.0305  0.1077
    9loPI   C3B  143   0.140   8.883   8.788  0.2144  0.0685 -0.0742
    9loPI   C4B  144   0.260   8.750   8.402  0.0842  0.0307 -0.3278
   10loPI    C1  145  16.069   5.140  10.884 -0.0371  0.0959 -0.0574
   10loPI    C2  146  15.860   4.987  11.189 -0.0790  0.0303 -0.1185
   10loPI    C3  147  16.075   4.746  10.953 -0.0403  0.0818 -0.1360
   10loPI   PO4  148  15.899   5.251  10.709 -0.0932 -0.1155  0.1601
   10loPI   GL1  149  15.954   5.234  10.221  0.0167 -0.4555  0.2345
   10loPI   GL2  150  15.976   5.477   9.968 -0.3004  0.0847  0.0977
   10loPI   C1A  151  15.981   5.035   9.839 -0.4589 -0.0593  0.0853
   10loPI   C2A  152  15.891   5.036   9.346 -0.2100 -0.1735 -0.0387
   10loPI   C3A  153  15.848   5.151   8.939  0.0043  0.2714  0.1003
   10loPI   C4A  154  15.874   5.442   8.657 -0.0656  0.0677 -0.1892
   10loPI   C5A  155  15.840   5.513   8.244  0.3530  0.0554  0.0292
   10loPI   C6A  156  15.929   5.751   7.955  0.0693  0.2056 -0.0698
   10loPI   C1B  157  16.056   5.559   9.519  0.1530 -0.0336 -0.1100
   10loPI   C2B  158  16.021   5.638   9.195 -0.2989 -0.0708 -0.2495
   10loPI   C3B  159  16.265   5.836   8.790  0.4267 -0.0472  0.1668
   10loPI   C4B  160  16.368   5.803   8.403 -0.1984  0.1707  0.0049
   11loPI    C1  161  14.610  10.908  10.822  0.1925  0.1829 -0.0141
   11loPI    C2  162  14.845  10.812  11.131  0.1022 -0.0429 -0.0136
   11loPI    C3  163  14.460  10.903  11.193  0.0635 -0.1682 -0.0668
   11loPI   PO4  164  14.652  10.706  10.631 -0.0987  0.2825 -0.0863
   11loPI   GL1  165  14.652  10.479  10.293  0.1442  0.1518 -0.0216
   11loPI   GL2  166  14.684  10.205  10.193  0.2562 -0.5297 -0.1020
   11loPI   C1A  167  14.460  10.689   9.986  0.0402  0.4045 -0.0228
   11loPI   C2A  168  14.420  10.670   9.528  0.1223 -0.4139 -0.0299
   11loPI   C3A  169  14.509  10.660   9.046 -0.0161  0.0447  0.0619
   11loPI   C4A  170  14.439  10.779   8.598  0.0003  0.0147 -0.1311
   11loPI   C5A  171  14.435  10.682   8.226  0.0529  0.0150  0.0718
   11loPI   C6A  172  14.604  10.351   7.911  0.0270  0.1143  0.0412
   11loPI   C1B  173  14.568  10.260   9.746  0.0728 -0.0975  0.1943
   11loPI   C2B  174  14.736  10.230   9.279  0.1931  0.2362 -0.1093
   11loPI   C3B  175  14.710  10.263   8.783 -0.0133 -0.1872  0.0284
   11loPI   C4B  176  14.825  10.202   8.328  0.2303  0.2066  0.1880
   12loPI    C1  177   8.648   7.037  10.618 -0.2791 -0.1497 -0.1558
   12loPI    C2  178   8.785   6.777  10.889 -0.0050  0.0854 -0.0641
   12loPI    C3  179   8.442   6.971  10.954  0.0288  0.0958  0.0880
   12loPI   PO4  180   8.805   7.219  10.566 -0.0713  0.2575 -0.3017
   12loPI   GL1  181   8.745   7.574  10.234 -0.0006 -0.0255 -0.0802
   12loPI   GL2  182   8.999   7.650  10.214 -0.0435  0.0933  0.2092
   12loPI   C1A  183   8.602   7.680   9.756 -0.0131 -0.1858  0.0959
   12loPI   C2A  184   8.501   7.605   9.317 -0.0035 -0.1676  0.1192
   12loPI   C3A  185   8.469   7.540   8.841 -0.0637  0.3415 -0.0198
   12loPI   C4A  186   8.483   7.472   8.424  0.1100  0.0796  0.2309
   12loPI   C5A  187   8.751   7.348   8.105 -0.0944  0.3863  0.2193
   12loPI   C6A  188   9.078   7.162   8.008  0.2521  0.1877 -0.1122
   12loPI   C1B  189   9.127   7.394   9.848  0.0351  0.2525  0.1027
   12loPI   C2B  190   9.044   7.553   9.478  0.1713 -0.0314 -0.1575
   12loPI   C3B  191   8.968   7.515   8.968 -0.1151  0.0058 -0.1559
   12loPI   C4B  192   8.949   7.530   8.544  0.0413  0.2039 -0.2367
   13loPI    C1  193  13.711   6.361  10.847  0.0588  0.0330  0.2095
   13loPI    C2  194  13.764   6.685  10.618  0.2098 -0.0919  0.0640
   13loPI    C3  195  14.067   6.545  10.838  0.1432 -0.1314  0.1309
   13loPI   PO4  196  13.482   6.231  10.655 -0.2906 -0.0069 -0.2802
   13loPI   GL1  197  13.433   6.491  10.264  0.1103  0.2990 -0.0438
   13loPI   GL2  198  13.666   6.280  10.148  0.2137  0.0042  0.0731
   13loPI   C1A  199  13.607   6.735   9.863 -0.0081  0.1616  0.1684
   13loPI   C2A  200  13.600   6.766   9.381  0.0380 -0.1828  0.2261
   13loPI   C3A  201  13.608   6.729   8.921  0.0892  0.3377  0.1863
   13loPI   C4A  202  13.503   6.688   8.466  0.1263  0.1061  0.5509
   13loPI   C5A  203  13.520   6.279   8.241  0.2721  0.0810 -0.2122
   13loPI   C6A  204  13.616   5.805   8.244 -0.2325  0.2007 -0.1166
   13loPI   C1B  205  13.926   6.269   9.825 -0.1206  0.0119 -0.0117
   13loPI   C2B  206  13.916   6.410   9.446  0.0665 -0.2300 -0.0593
   13loPI   C3B  207  13.913   6.344   9.037 -0.3131  0.4647  0.1059
   13loPI   C4B  208  13.895   6.429   8.658 -0.4231 -0.1262  0.1819
   14loPI    C1  209  16.293   2.988  10.901 -0.0117  0.1158 -0.0125
   14loPI    C2  210  16.118   3.161  11.216  0.0793  0.1026  0.0456
   14loPI    C3  211  16.517   3.164  11.182  0.0760 -0.0040 -0.0067
   14loPI   PO4  212  16.139   3.004  10.617 -0.0515 -0.2500  0.0777
   14loPI   GL1  213  16.106   3.146  10.211  0.0396 -0.0012 -0.1050
   14loPI   GL2  214  16.035   3.360  10.058  0.1762 -0.1247 -0.4400
   14loPI   C1A  215  16.140   2.738   9.898 -0.4241 -0.0306  0.1734
   14loPI   C2A  216  15.969   2.617   9.569 -0.1041  0.0090 -0.0512
   14loPI   C3A  217  15.823   2.497   9.258  0.0312  0.0718 -0.3864
   14loPI   C4A  218  15.697   2.411   8.946 -0.0561  0.0807  0.1785
   14loPI   C5A  219  15.562   2.332   8.588  0.0820 -0.0429 -0.0495
   14loPI   C6A  220  15.291   2.525   8.334  0.0002 -0.0389  0.1660
   14loPI   C1B  221  15.830   3.131   9.730 -0.0044 -0.0386 -0.1845
   14loPI   C2B  222  15.502   2.837   9.610 -0.3832 -0.0078 -0.1377
   14loPI   C3B  223  15.354   2.699   9.225 -0.1835  0.0182  0.2325
   14loPI   C4B  224  15.262   2.738   8.799 -0.1117  0.0989 -0.0288
   15loPI    C1  225  12.176  13.987  10.963 -0.1956 -0.0374  0.1364
   15loPI    C2  226  12.553  13.871  10.897 -0.2624 -0.0299 -0.2885
   15loPI    C3  227  12.473  14.254  10.980 -0.1893 -0.0074 -0.3220
   15loPI   PO4  228  12.045  13.798  10.784 -0.1873 -0.1817  0.1157
   15loPI   GL1  229  11.904  13.692  10.422 -0.1811 -0.1376 -0.0404
   15loPI   GL2  230  11.712  13.535  10.227 -0.1951  0.1477 -0.2131
   15loPI   C1A  231  12.294  13.540  10.207  0.0322  0.2530  0.0284
   15loPI   C2A  232  12.496  13.146   9.969  0.2036  0.4948  0.1104
   15loPI   C3A  233  12.919  13.140   9.832  0.2412  0.0836 -0.3058
   15loPI   C4A  234  13.064  13.065   9.491 -0.1282  0.2126  0.1029
   15loPI   C5A  235  12.974  13.059   9.049  0.1000  0.0108 -0.0576
   15loPI   C6A  236  12.998  13.028   8.585 -0.2149 -0.0903  0.2173
   15loPI   C1B  237  11.672  13.609   9.723 -0.1482  0.1124  0.0157
   15loPI   C2B  238  11.387  13.777   9.384 -0.3040 -0.1778  0.1605
   15loPI   C3B  239  11.374  13.737   8.930  0.0288 -0.0728 -0.0757
   15loPI   C4B  240  11.291  13.706   8.519 -0.1087 -0.1222  0.0090
   16loPI    C1  241   9.916   7.403  10.457  0.0466 -0.0907 -0.0016
   16loPI    C2  242  10.187   7.123  10.366  0.1215  0.0159 -0.1094
   16loPI    C3  243  10.302   7.501  10.427  0.0154  0.0323 -0.0066
   16loPI   PO4  244   9.687   7.200  10.558  0.0004 -0.1555  0.1376
   16loPI   GL1  245   9.416   7.328  10.275  0.2005 -0.0441 -0.2215
   16loPI   GL2  246   9.462   6.996  10.162  0.1210  0.1920  0.0629
   16loPI   C1A  247   9.580   7.486   9.875 -0.0404  0.1729 -0.1314
   16loPI   C2A  248   9.564   7.450   9.533 -0.1537 -0.0561 -0.1361
   16loPI   C3A  249   9.529   7.503   9.062 -0.0312 -0.1020 -0.0253
   16loPI   C4A  250   9.475   7.561   8.648  0.5064  0.0809  0.2391
   16loPI   C5A  251   9.374   7.433   8.263  0.4245  0.1478 -0.0141
   16loPI   C6A  252   9.553   7.138   7.882  0.2070 -0.2663 -0.0332
   16loPI   C1B  253   9.400   7.025   9.770 -0.2300  0.0453 -0.0079
   16loPI   C2B  254   9.257   7.146   9.315  0.2412 -0.1078 -0.0081
   16loPI   C3B  255   9.229   7.114   8.869 -0.0752 -0.1859  0.1843
   16loPI   C4B  256   9.104   7.084   8.464  0.0803 -0.1160 -0.1263
   17loPI    C1  257   5.419  11.931  10.519 -0.3739 -0.1067 -0.0306
   17loPI    C2  258   5.164  11.639  10.619 -0.0242 -0.3283  0.2390
   17loPI    C3  259   5.420  11.783  10.891 -0.2727  0.3239  0.1458
   17loPI   PO4  260   5.307  11.975  10.308  0.1250 -0.2408 -0.0614
   17loPI   GL1  261   5.343  11.879   9.956  0.1563  0.0864  0.5624
   17loPI   GL2  262   5.619  12.041   9.867 -0.0308 -0.0281 -0.4246
   17loPI   C1A  263   5.261  11.680   9.599 -0.0553  0.1375 -0.0805
   17loPI   C2A  264   5.328  11.696   9.221  0.1033  0.4038 -0.1221
   17loPI   C3A  265   5.302  11.724   8.763  0.2528  0.2000  0.0004
   17loPI   C4A  266   5.361  11.945   8.325  0.0214 -0.0262  0.1366
   17loPI   C5A  267   5.155  12.022   7.933  0.1294  0.0264 -0.1064
   17loPI   C6A  268   4.788  12.153   7.692  0.1241  0.1069  0.3587
   17loPI   C1B  269   5.660  12.001   9.464 -0.1418  0.0515 -0.1139
   17loPI   C2B  270   5.591  12.082   9.036 -0.2066  0.0206  0.1012
   17loPI   C3B  271   5.638  12.276   8.623 -0.2992  0.4064  0.1386
   17loPI   C4B  272   5.863  12.449   8.237  0.2080  0.1497 -0.1110
   18loPI    C1  273  14.775   6.008  10.780 -0.2084 -0.0996  0.1779
   18loPI    C2  274  14.735   5.799  11.118 -0.1089 -0.0051  0.2486
   18loPI    C3  275  14.860   6.179  11.131 -0.3632  0.0853  0.1275
   18loPI   PO4  276  14.836   5.836  10.603 -0.2136  0.2726  0.0814
   18loPI   GL1  277  14.946   5.852  10.201 -0.0480  0.3893 -0.0200
   18loPI   GL2  278  14.850   6.091   9.948  0.1129  0.0823 -0.0676
   18loPI   C1A  279  15.233   5.831   9.766 -0.2607 -0.1881 -0.2975
   18loPI   C2A  280  15.164   5.780   9.420  0.1207  0.2415 -0.0834
   18loPI   C3A  281  15.123   5.713   8.907 -0.2062  0.0285 -0.2447
   18loPI   C4A  282  15.432   5.710   8.517  0.2201  0.1042 -0.4421
   18loPI   C5A  283  15.401   5.745   8.135 -0.0551  0.0087  0.1094
   18loPI   C6A  284  15.223   5.734   7.760 -0.0853  0.0725 -0.0164
   18loPI   C1B  285  14.784   6.082   9.509  0.0203  0.2033  0.2919
   18loPI   C2B  286  14.848   6.085   9.073  0.2513  0.2839 -0.1928
   18loPI   C3B  287  14.787   6.380   8.728  0.0516 -0.0985  0.1303
   18loPI   C4B  288  14.863   6.611   8.401  0.1908  0.1499  0.0741
   19loPI    C1  289  16.205   1.466  10.514  0.2210  0.2199  0.3089
   19loPI    C2  290  15.820   1.390  10.435  0.3959 -0.0622 -0.3459
   19loPI    C3  291  16.001   1.209  10.742 -0.0194  0.1779  0.0530
   19loPI   PO4  292  16.304   1.428  10.334  0.1187 -0.1919  0.2114
   19loPI   GL1  293  16.447   1.522   9.934 -0.0858  0.3518 -0.6921
   19loPI   GL2  294  16.624   1.705   9.801 -0.0374 -0.1093 -0.1112
   19loPI   C1A  295  16.542   1.369   9.441 -0.1643  0.2750 -0.0839
   19loPI   C2A  296  16.463   1.154   9.009 -0.0823 -0.1206  0.0788
   19loPI   C3A  297  16.397   1.321   8.657 -0.0615  0.2844  0.0292
   19loPI   C4A  298  16.371   1.664   8.499 -0.2752  0.0741  0.1533
   19loPI   C5A  299  16.232   1.872   8.193 -0.3198 -0.1016  0.3698
   19loPI   C6A  300  15.993   1.678   7.937  0.3075 -0.3093 -0.0831
   19loPI   C1B  301  16.471   1.951   9.505 -0.1497 -0.4520 -0.0526
   19loPI   C2B  302  16.241   2.220   9.145 -0.1502 -0.0497  0.4245
   19loPI   C3B  303  16.063   1.921   8.757  0.0522  0.2092 -0.1928
   19loPI   C4B  304  15.989   1.570   8.865 -0.1780  0.1328 -0.3407
   20loPI    C1  305  16.543   1.264  10.808  0.0023  0.0674 -0.0321
   20loPI    C2  306  16.740   1.249  11.156  0.0249 -0.0307 -0.0488
   20loPI    C3  307  16.349   1.165  11.143  0.0290 -0.0500 -0.0509
   20loPI   PO4  308  16.697   1.088  10.688  0.0796  0.0538  0.0919
   20loPI   GL1  309  16.776   1.080  10.191 -0.3074 -0.2831 -0.3566
   20loPI   GL2  310  16.503   0.877  10.028  0.2190  0.0896 -0.2713
   20loPI   C1A  311  16.876   1.070   9.759 -0.0690  0.1040 -0.0762
   20loPI   C2A  312  16.915   1.044   9.372  0.0770 -0.2886  0.0408
   20loPI   C3A  313  16.939   0.932   8.957  0.0867 -0.0851  0.0097
   20loPI   C4A  314  16.759   0.932   8.619  0.1533  0.0632 -0.0676
   20loPI   C5A  315  16.549   1.067   8.251  0.0093  0.0858 -0.0186
   20loPI   C6A  316  16.405   1.405   7.950  0.0292 -0.1296 -0.0023
   20loPI   C1B  317  16.501   0.824   9.549  0.4197 -0.0205  0.0145
   20loPI   C2B  318  16.408   0.703   9.218 -0.3778 -0.0718  0.0422
   20loPI   C3B  319  16.328   0.760   8.760  0.1641  0.1476 -0.0108
   20loPI   C4B  320  16.283   0.677   8.371 -0.2309 -0.0084 -0.1409
   21loPI    C1  321  14.989  13.458  10.657  0.3442  0.2980  0.0408
   21loPI    C2  322  15.006  13.319  11.031 -0.0693 -0.0917 -0.0769
   21loPI    C3  323  14.707  13.561  10.921  0.1141  0.1143 -0.1285
   21loPI   PO4  324  15.221  13.563  10.637  0.0330 -0.0891 -0.1543
   21loPI   GL1  325  15.451  13.731  10.250  0.3738  0.3107  0.0221
   21loPI   GL2  326  15.819  13.743  10.288 -0.2568 -0.0484 -0.3063
   21loPI   C1A  327  15.356  14.104   9.999  0.0390  0.1905  0.1062
   21loPI   C2A  328  15.509  14.200   9.614  0.1784 -0.0017  0.1796
   21loPI   C3A  329  15.454  14.186   9.212 -0.3394 -0.4100 -0.0198
   21loPI   C4A  330  15.529  14.111   8.864  0.1808 -0.0746  0.0365
   21loPI   C5A  331  15.462  14.287   8.432  0.2900  0.1227  0.0543
   21loPI   C6A  332  15.085  14.669   8.313 -0.0033 -0.0889  0.1761
   21loPI   C1B  333  16.187  13.619  10.056 -0.3582  0.0782  0.0416
   21loPI   C2B  334  16.508  13.644   9.771 -0.0769  0.1684 -0.1266
   21loPI   C3B  335  16.790  13.561   9.382  0.1479  0.0424 -0.0689
   21loPI   C4B  336  16.755  13.578   8.928 -0.1153  0.0264  0.1547
   22loPI    C1  337   6.438  18.057  10.947 -0.0152  0.1110 -0.0339
   22loPI    C2  338   6.455  18.241  11.302 -0.0237  0.1213 -0.0389
   22loPI    C3  339   6.122  18.261  11.082 -0.1124 -0.1061  0.0719
   22loPI   PO4  340   6.661  18.123  10.831  0.0070 -0.2749  0.0193
   22loPI   GL1  341   6.724  18.141  10.366  0.1084  0.0471  0.2594
   22loPI   GL2  342   6.398  18.095  10.280  0.0945 -0.3395  0.0333
   22loPI   C1A  343   6.687  18.473  10.030  0.1298  0.1178 -0.1455
   22loPI   C2A  344   6.625  18.530   9.592  0.2747 -0.2467 -0.0036
   22loPI   C3A  345   6.678  18.524   9.238  0.2792  0.0269 -0.1089
   22loPI   C4A  346   6.671  18.503   8.820  0.0057 -0.3165 -0.3966
   22loPI   C5A  347   6.756  18.600   8.361  0.1476 -0.0733  0.3164
   22loPI   C6A  348   6.519  18.559   7.936  0.0742  0.0243 -0.1688
   22loPI   C1B  349   6.466  18.064   9.863 -0.1470 -0.0434 -0.2453
   22loPI   C2B  350   6.413  18.158   9.339 -0.1556  0.0401 -0.0535
   22loPI   C3B  351   6.356  18.029   8.855 -0.0158  0.3061  0.0247
   22loPI   C4B  352   6.374  17.717   8.559 -0.0539 -0.1464 -0.1179
   23loPI    C1  353   4.536   8.871  10.505 -0.0887  0.0690  0.1221
   23loPI    C2  354   4.580   8.777  10.892 -0.1327  0.0007  0.1109
   23loPI    C3  355   4.687   8.515  10.609  0.3092  0.2179  0.0683
   23loPI   PO4  356   4.706   9.077  10.472  0.1662  0.0068  0.0410
   23loPI   GL1  357   4.828   9.227  10.055 -0.0241  0.1616  0.1679
   23loPI   GL2  358   4.976   8.921  10.031 -0.0426 -0.1428 -0.1668
   23loPI   C1A  359   4.921   9.428   9.655 -0.1941  0.0304  0.0990
   23loPI   C2A  360   5.046   9.500   9.273 -0.1475 -0.3187 -0.0108
   23loPI   C3A  361   4.977   9.426   8.760 -0.2082 -0.1021  0.3633
   23loPI   C4A  362   4.764   9.414   8.348  0.0900  0.0659 -0.1020
   23loPI   C5A  363   4.462   9.084   8.285  0.0093 -0.0109 -0.2527
   23loPI   C6A  364   4.022   9.073   8.252  0.1629 -0.3354  0.2434
   23loPI   C1B  365   5.132   8.973   9.653 -0.1697  0.0784  0.3186
   23loPI   C2B  366   5.301   9.040   9.273 -0.0552  0.2285 -0.4060
   23loPI   C3B  367   5.145   8.976   8.846 -0.3956 -0.0196 -0.0533
   23loPI   C4B  368   4.937   8.876   8.426  0.1384 -0.2197  0.2008
   24loPI    C1  369  11.300   2.403  10.774 -0.1846 -0.1768  0.0652
   24loPI    C2  370  11.502   2.139  10.997 -0.0205 -0.0175  0.1079
   24loPI    C3  371  11.213   2.361  11.162 -0.0339 -0.0401  0.1151
   24loPI   PO4  372  11.489   2.450  10.619 -0.0646 -0.2712  0.2125
   24loPI   GL1  373  11.460   2.631  10.226 -0.0417  0.2407 -0.0406
   24loPI   GL2  374  11.667   2.819  10.300 -0.0436 -0.3288 -0.1954
   24loPI   C1A  375  11.486   2.592   9.850 -0.0613 -0.4118  0.0554
   24loPI   C2A  376  11.550   2.497   9.490 -0.3978 -0.3138 -0.2289
   24loPI   C3A  377  11.610   2.469   9.043 -0.1714 -0.1067  0.0139
   24loPI   C4A  378  11.524   2.440   8.597 -0.1423 -0.0570  0.0478
   24loPI   C5A  379  11.661   2.294   8.225  0.2507  0.0749 -0.1402
   24loPI   C6A  380  11.992   2.396   7.933 -0.2716  0.0311 -0.0221
   24loPI   C1B  381  11.716   3.072   9.960  0.2014 -0.0446 -0.4965
   24loPI   C2B  382  11.711   2.964   9.532  0.1254 -0.1085  0.0978
   24loPI   C3B  383  11.739   2.954   9.144  0.0562 -0.0856 -0.2858
   24loPI   C4B  384  11.767   2.942   8.711  0.0690 -0.1126 -0.3054
   25loPI    C1  385   2.290  15.403  10.798 -0.1812  0.0546  0.0053
   25loPI    C2  386   2.615  15.281  10.599 -0.4631 -0.3752 -0.2071
   25loPI    C3  387   2.638  15.357  10.991 -0.0585 -0.1756 -0.2633
   25loPI   PO4  388   2.194  15.601  10.599 -0.1128  0.1876 -0.0656
   25loPI   GL1  389   2.495  15.622  10.244  0.3335 -0.1314  0.0656
   25loPI   GL2  390   2.364  15.934  10.241 -0.1637 -0.3144 -0.0177
   25loPI   C1A  391   2.737  15.549   9.867  0.0939 -0.2940 -0.0393
   25loPI   C2A  392   2.707  15.641   9.396 -0.0566 -0.0588 -0.2131
   25loPI   C3A  393   2.729  15.503   8.997 -0.0550 -0.3176  0.0753
   25loPI   C4A  394   2.655  15.415   8.589 -0.0999 -0.1537  0.1163
   25loPI   C5A  395   2.407  15.595   8.271 -0.0800 -0.1086  0.1645
   25loPI   C6A  396   2.069  15.548   7.971 -0.1515  0.0311 -0.0464
   25loPI   C1B  397   2.332  15.845   9.831 -0.0536 -0.0201 -0.0748
   25loPI   C2B  398   2.431  16.110   9.458 -0.1232  0.1033 -0.0397
   25loPI   C3B  399   2.503  15.990   9.060 -0.0940 -0.0732 -0.2929
   25loPI   C4B  400   2.488  15.852   8.677  0.1299  0.0657  0.0192
   26loPI    C1  401   4.126   1.293  11.061  0.0537 -0.0181 -0.0190
   26loPI    C2  402   3.736   1.368  11.009  0.0718  0.0432 -0.0671
   26loPI    C3  403   3.858   1.156  11.325  0.0042  0.0677 -0.0242
   26loPI   PO4  404   4.178   1.205  10.795 -0.2238  0.2535 -0.1258
   26loPI   GL1  405   4.417   1.214  10.429 -0.2774 -0.2690  0.1287
   26loPI   GL2  406   4.738   1.318  10.472  0.1625  0.1433  0.0677
   26loPI   C1A  407   4.205   1.314  10.054 -0.1628 -0.0021 -0.2433
   26loPI   C2A  408   4.152   1.350   9.614  0.2715  0.1112  0.0924
   26loPI   C3A  409   4.194   1.434   9.198  0.1352  0.1730  0.1950
   26loPI   C4A  410   4.176   1.478   8.760  0.1927 -0.1305 -0.0048
   26loPI   C5A  411   4.211   1.307   8.317 -0.0059  0.0558  0.0943
   26loPI   C6A  412   4.017   1.222   7.943  0.0431  0.3730  0.0362
   26loPI   C1B  413   4.681   1.364  10.045  0.0344  0.1144  0.1682
   26loPI   C2B  414   4.724   1.332   9.676  0.1079  0.0355 -0.0177
   26loPI   C3B  415   4.695   1.400   9.340  0.0321  0.1301  0.0577
   26loPI   C4B  416   4.605   1.320   8.952  0.3056  0.0277  0.0283
   27loPI    C1  417  13.519   3.511  10.833 -0.2622  0.0648 -0.0199
   27loPI    C2  418  13.579   3.428  11.220 -0.0274  0.0468 -0.0586
   27loPI    C3  419  13.207   3.471  11.080 -0.1226 -0.1603  0.1242
   27loPI   PO4  420  13.594   3.351  10.673  0.1585 -0.2865  0.0582
   27loPI   GL1  421  13.384   3.277  10.306 -0.0954 -0.2424 -0.0435
   27loPI   GL2  422  13.624   3.052  10.210 -0.1219  0.1220  0.2756
   27loPI   C1A  423  13.275   3.393   9.884  0.0748  0.2112 -0.0528
   27loPI   C2A  424  13.162   3.356   9.547  0.1857 -0.0442  0.0642
   27loPI   C3A  425  13.179   3.444   9.073  0.2509 -0.0863 -0.0103
   27loPI   C4A  426  13.194   3.384   8.688 -0.0787 -0.5768  0.3703
   27loPI   C5A  427  13.109   3.234   8.247 -0.1816 -0.0719  0.2841
   27loPI   C6A  428  13.434   2.946   8.112 -0.2166 -0.3438 -0.4022
   27loPI   C1B  429  13.704   3.048   9.800 -0.0815  0.3620 -0.4342
   27loPI   C2B  430  13.544   3.087   9.401  0.1882 -0.0691  0.1609
   27loPI   C3B  431  13.561   3.107   8.993 -0.1819  0.1573  0.1658
   27loPI   C4B  432  13.490   2.998   8.603  0.1229 -0.0853 -0.0594
   28loPI    C1  433   8.459   6.474  11.159 -0.0241 -0.2060  0.1648
   28loPI    C2  434   8.112   6.668  11.193 -0.0537 -0.1746 -0.2618
   28loPI    C3  435   8.420   6.768  11.427 -0.2478 -0.0184 -0.0680
   28loPI   PO4  436   8.402   6.342  10.923  0.1660 -0.0457  0.1279
   28loPI   GL1  437   8.332   6.189  10.513 -0.1249  0.1205 -0.0749
   28loPI   GL2  438   8.633   6.500  10.504  0.0303  0.1039  0.2248
   28loPI   C1A  439   8.564   6.177  10.156  0.0037  0.1233 -0.0433
   28loPI   C2A  440   8.615   6.242   9.694  0.1407  0.0118 -0.0062
   28loPI   C3A  441   8.585   6.276   9.232 -0.0977  0.0341 -0.0654
   28loPI   C4A  442   8.753   6.153   8.871 -0.0590  0.3072  0.0432
   28loPI   C5A  443   9.118   6.128   8.517  0.0329  0.0106 -0.0920
   28loPI   C6A  444   9.431   6.135   8.252  0.0266 -0.0107  0.0699
   28loPI   C1B  445   8.347   6.767  10.257 -0.0506  0.1501  0.1751
   28loPI   C2B  446   8.454   6.727   9.788 -0.0686 -0.1620 -0.2945
   28loPI   C3B  447   8.345   6.646   9.386  0.0604  0.3152 -0.2768
   28loPI   C4B  448   8.436   6.658   8.997 -0.0684 -0.0452 -0.3836
   29loPI    C1  449   8.048  11.296  10.205  0.4579 -0.0427 -0.1421
   29loPI    C2  450   8.261  11.219  10.534  0.0879  0.0710  0.1310
   29loPI    C3  451   7.861  11.211  10.548  0.0662 -0.2288 -0.3930
   29loPI   PO4  452   8.245  11.130   9.953  0.2356 -0.0639  0.0733
   29loPI   GL1  453   8.338  11.285   9.610 -0.1796  0.2304  0.1737
   29loPI   GL2  454   8.593  11.569   9.601  0.1829  0.0399 -0.1266
   29loPI   C1A  455   8.344  11.167   9.238  0.0203  0.1396  0.1377
   29loPI   C2A  456   8.255  11.094   8.853  0.0100  0.0559 -0.3772
   29loPI   C3A  457   8.097  11.169   8.479  0.1335 -0.0506 -0.2088
   29loPI   C4A  458   8.074  11.149   8.071  0.1290 -0.3786 -0.0080
   29loPI   C5A  459   7.948  11.225   7.693  0.3866  0.1726  0.1737
   29loPI   C6A  460   7.952  11.355   7.234  0.0504 -0.1363 -0.0720
   29loPI   C1B  461   8.552  11.599   9.162  0.0649 -0.1434  0.2432
   29loPI   C2B  462   8.501  11.708   8.651 -0.0184  0.3186 -0.1564
   29loPI   C3B  463   8.387  11.572   8.219 -0.5311 -0.0811  0.1455
   29loPI   C4B  464   8.421  11.401   7.767  0.0027  0.2125 -0.1495
   30loPI    C1  465   9.053  10.538  10.094 -0.1177  0.2035  0.1016
   30loPI    C2  466   9.320  10.397  10.356 -0.0201  0.0212 -0.0935
   30loPI    C3  467   9.318  10.786  10.263  0.1421  0.0335 -0.0496
   30loPI   PO4  468   8.855  10.417  10.144  0.4775  0.1263 -0.1915
   30loPI   GL1  469   8.522  10.294   9.865  0.3840  0.0766  0.0261
   30loPI   GL2  470   8.739  10.319   9.660 -0.2533  0.0870 -0.0426
   30loPI   C1A  471   8.426   9.892   9.619 -0.0822 -0.3696 -0.0445
   30loPI   C2A  472   8.367   9.747   9.200  0.3249  0.0032  0.0085
   30loPI   C3A  473   8.256   9.783   8.781 -0.1401 -0.0728  0.0300
   30loPI   C4A  474   8.231   9.784   8.326  0.1648 -0.0099 -0.1857
   30loPI   C5A  475   8.162   9.784   7.835  0.4639 -0.0033  0.1673
   30loPI   C6A  476   8.373   9.520   7.514 -0.0797  0.0659  0.1343
   30loPI   C1B  477   8.659  10.156   9.266  0.1550 -0.0411  0.0736
   30loPI   C2B  478   8.665  10.198   8.887  0.0415  0.2817 -0.2669
   30loPI   C3B  479   8.486  10.290   8.434 -0.2119  0.0396  0.0832
   30loPI   C4B  480   8.518  10.050   8.035 -0.0649  0.2308 -0.1506
   31loPI    C1  481   0.977  14.075  10.849  0.0856  0.2835 -0.1170
   31loPI    C2  482   0.797  14.352  11.074  0.2044  0.1008  0.2097
   31loPI    C3  483   1.076  14.115  11.234  0.1516 -0.1649 -0.0822
   31loPI   PO4  484   1.035  14.226  10.538  0.0336  0.0247 -0.1434
   31loPI   GL1  485   0.938  14.479  10.279  0.0886  0.0395  0.1258
   31loPI   GL2  486   1.264  14.661  10.069  0.0216 -0.2639  0.1037
   31loPI   C1A  487   0.614  14.317   9.979 -0.0959  0.4138  0.0289
   31loPI   C2A  488   0.648  14.156   9.505  0.1403  0.2687  0.0179
   31loPI   C3A  489   0.653  14.200   8.998 -0.1744  0.3326  0.0549
   31loPI   C4A  490   0.651  14.251   8.497  0.1068  0.0621 -0.1569
   31loPI   C5A  491   0.961  14.339   8.238  0.1339 -0.1674  0.0390
   31loPI   C6A  492   1.104  14.691   8.326  0.1638  0.2382 -0.0379
   31loPI   C1B  493   1.464  14.678   9.592 -0.1619 -0.0644  0.0104
   31loPI   C2B  494   1.601  14.671   9.188 -0.3818 -0.1198 -0.1237
   31loPI   C3B  495   1.561  14.596   8.727 -0.1102 -0.0164 -0.4142
   31loPI   C4B  496   1.581  14.526   8.299  0.4715  0.0462  0.2238
   32loPI    C1  497  15.216  14.447  11.022 -0.1061  0.0258  0.2293
   32loPI    C2  498  15.572  14.482  11.202 -0.0851  0.0853  0.1768
   32loPI    C3  499  15.286  14.254  11.365  0.0358 -0.1019  0.1302
   32loPI   PO4  500  15.315  14.477  10.695 -0.2701 -0.2572 -0.0072
   32loPI   GL1  501  15.081  14.540  10.269  0.0724 -0.0268  0.0735
   32loPI   GL2  502  14.882  14.861  10.128 -0.0279  0.2897  0.0214
   32loPI   C1A  503  15.143  14.525   9.853 -0.2449  0.1218  0.0896
   32loPI   C2A  504  15.220  14.622   9.448  0.3073  0.3086  0.0635
   32loPI   C3A  505  15.270  14.648   9.021 -0.2230  0.1327 -0.0459
   32loPI   C4A  506  15.722  14.632   8.728  0.3119 -0.0271  0.0338
   32loPI   C5A  507  16.009  14.667   8.354 -0.1315 -0.0948 -0.0847
   32loPI   C6A  508  15.879  14.853   8.047  0.0357  0.1997 -0.3217
   32loPI   C1B  509  14.705  14.785   9.816  0.0817 -0.1129  0.1374
   32loPI   C2B  510  14.718  14.644   9.460 -0.0880  0.1472  0.0439
   32loPI   C3B  511  14.776  14.676   9.002  0.1166 -0.0724 -0.1922
   32loPI   C4B  512  14.650  14.680   8.622 -0.1339 -0.2192 -0.1594
   33loPI    C1  513  16.233  17.768  10.593 -0.2016 -0.0779 -0.1946
   33loPI    C2  514  15.970  17.742  10.893 -0.0172 -0.1414 -0.0366
   33loPI    C3  515  16.211  18.060  10.866 -0.0632 -0.1151 -0.1429
   33loPI   PO4  516  16.336  17.451  10.541  0.0146  0.1751  0.1667
   33loPI   GL1  517  16.406  17.309  10.131  0.1343 -0.1265  0.0006
   33loPI   GL2  518  16.674  17.029   9.970 -0.0153  0.1156  0.0619
   33loPI   C1A  519  16.216  17.386   9.713  0.1337 -0.2549  0.0994
   33loPI   C2A  520  16.259  17.217   9.273 -0.1595  0.1458 -0.1105
   33loPI   C3A  521  16.031  17.301   8.901 -0.0980 -0.0728 -0.2679
   33loPI   C4A  522  15.967  17.630   8.565 -0.1271 -0.3316  0.4185
   33loPI   C5A  523  15.826  17.982   8.207  0.0015  0.0992 -0.1148
   33loPI   C6A  524  15.826  18.340   8.149  0.3249 -0.0419  0.2676
   33loPI   C1B  525  16.634  17.039   9.523 -0.3496 -0.0545 -0.2695
   33loPI   C2B  526  16.708  16.920   9.107 -0.1699 -0.2231  0.1409
   33loPI   C3B  527  16.769  17.020   8.679  0.0743  0.0677 -0.0830
   33loPI   C4B  528  16.979  16.763   8.423 -0.5838  0.0450 -0.1311
   34loPI    C1  529  14.413   2.241  10.404  0.1881 -0.2152 -0.1105
   34loPI    C2  530  14.605   2.461  10.677 -0.1561 -0.0248 -0.0148
   34loPI    C3  531  14.425   2.639  10.368  0.0363 -0.2217 -0.2446
   34loPI   PO4  532  14.189   2.082  10.502  0.0452  0.0465  0.2353
   34loPI   GL1  533  13.872   1.924  10.303 -0.1722  0.1802 -0.0011
   34loPI   GL2  534  13.949   2.169  10.071 -0.1132 -0.2075 -0.1363
   34loPI   C1A  535  13.840   1.696   9.863 -0.0642  0.0617  0.0454
   34loPI   C2A  536  13.878   1.757   9.449 -0.3252  0.0032  0.1185
   34loPI   C3A  537  13.695   1.638   9.042  0.0434 -0.1007 -0.2383
   34loPI   C4A  538  13.755   1.535   8.566 -0.0640  0.2825  0.1034
   34loPI   C5A  539  13.603   1.516   8.189  0.3658 -0.0358 -0.0089
   34loPI   C6A  540  13.386   1.813   7.855  0.1553  0.2325  0.0623
   34loPI   C1B  541  13.963   2.268   9.581  0.1626  0.2114  0.2540
   34loPI   C2B  542  13.957   2.218   9.141  0.3112  0.3006 -0.1782
   34loPI   C3B  543  13.866   2.104   8.711 -0.2224 -0.1991  0.0172
   34loPI   C4B  544  13.911   2.062   8.361  0.1324 -0.0072  0.0788
   35loPI    C1  545   9.961  11.762  10.185  0.1455  0.2349  0.0907
   35loPI    C2  546  10.206  11.746   9.869 -0.0501 -0.0044 -0.0516
   35loPI    C3  547   9.819  11.836   9.819 -0.0934 -0.0943  0.1127
   35loPI   PO4  548  10.106  11.497  10.307  0.2061  0.2425  0.1414
   35loPI   GL1  549  10.375  11.300  10.076 -0.0766  0.1985  0.1067
   35loPI   GL2  550  10.113  11.109   9.948 -0.3360 -0.0525 -0.2208
   35loPI   C1A  551  10.671  11.504   9.765  0.3571 -0.1510 -0.1314
   35loPI   C2A  552  10.660  11.557   9.311  0.0242 -0.0312  0.1860
   35loPI   C3A  553  10.695  11.462   8.766  0.0544  0.2607 -0.1965
   35loPI   C4A  554  10.566  11.366   8.310  0.0565  0.1092 -0.1400
   35loPI   C5A  555  10.496  11.017   8.090  0.1185  0.1914  0.0673
   35loPI   C6A  556  10.515  10.596   8.145  0.0369 -0.1003  0.2798
   35loPI   C1B  557  10.392  11.127   9.547  0.1171  0.0295 -0.1105
   35loPI   C2B  558  10.323  11.214   9.071  0.1707  0.0887 -0.0127
   35loPI   C3B  559  10.187  11.467   8.756  0.1012  0.0098  0.2609
   35loPI   C4B  560   9.873  11.734   8.792  0.4624 -0.0455  0.1178
   36loPI    C1  561  12.710  15.522  10.284  0.0555 -0.1515 -0.1462
   36loPI    C2  562  12.882  15.772  10.545 -0.2618 -0.0491 -0.0299
   36loPI    C3  563  12.693  15.445  10.676 -0.2107 -0.1279 -0.1514
   36loPI   PO4  564  12.901  15.445  10.166  0.0935  0.2683 -0.0471
   36loPI   GL1  565  12.977  15.008   9.995  0.3463 -0.0609 -0.1115
   36loPI   GL2  566  12.978  14.674  10.140  0.2400 -0.1983 -0.4060
   36loPI   C1A  567  12.932  15.176   9.503  0.0672  0.0506 -0.1980
   36loPI   C2A  568  12.923  15.291   9.046 -0.0136 -0.1994  0.0265
   36loPI   C3A  569  12.824  15.467   8.635 -0.0671 -0.2988  0.5012
   36loPI   C4A  570  12.587  15.844   8.435 -0.0511 -0.0590 -0.0198
   36loPI   C5A  571  12.418  16.178   8.315 -0.1194 -0.2376  0.1939
   36loPI   C6A  572  12.332  16.603   8.241  0.0581  0.0767 -0.3204
   36loPI   C1B  573  13.078  14.700   9.661 -0.0817  0.1481  0.0612
   36loPI   C2B  574  13.232  14.883   9.236 -0.2325 -0.0280 -0.2843
   36loPI   C3B  575  13.219  14.755   8.768 -0.1710 -0.0861 -0.3097
   36loPI   C4B  576  13.341  14.801   8.334  0.0368  0.1763  0.4364
   37loPI    C1  577   4.411  10.985  10.395 -0.1652 -0.1291  0.0306
   37loPI    C2  578   4.137  10.868  10.662 -0.1268  0.2330  0.2360
   37loPI    C3  579   4.524  10.869  10.760 -0.0666 -0.0769  0.0169
   37loPI   PO4  580   4.378  10.881  10.216 -0.0930 -0.0035  0.1107
   37loPI   GL1  581   4.600  10.964   9.789 -0.5321  0.0438  0.1912
   37loPI   GL2  582   4.750  10.833   9.654  0.1077 -0.0361 -0.0422
   37loPI   C1A  583   4.521  11.220   9.453 -0.0640  0.1270  0.1860
   37loPI   C2A  584   4.521  11.192   9.085  0.1849  0.0273  0.1814
   37loPI   C3A  585   4.451  11.238   8.676 -0.3864 -0.0725 -0.0349
   37loPI   C4A  586   4.507  11.364   8.316 -0.1977  0.0792 -0.3588
   37loPI   C5A  587   4.351  11.414   7.991  0.2101 -0.2308 -0.1112
   37loPI   C6A  588   4.449  11.142   7.638 -0.0118 -0.2045 -0.2937
   37loPI   C1B  589   4.801  10.770   9.263 -0.2475 -0.0384  0.0822
   37loPI   C2B  590   4.754  10.831   8.767  0.2872  0.3193 -0.1191
   37loPI   C3B  591   4.694  10.912   8.292 -0.1102  0.1727  0.0651
   37loPI   C4B  592   4.919  11.098   7.876  0.0292  0.2667  0.0573
   38loPI    C1  593   4.358   6.909  10.424  0.1230  0.2040 -0.1301
   38loPI    C2  594   4.011   7.107  10.443  0.0271  0.0303 -0.0453
   38loPI    C3  595   4.141   6.902  10.760  0.1524  0.0019 -0.1146
   38loPI   PO4  596   4.501   7.037  10.347 -0.3206 -0.1451  0.1424
   38loPI   GL1  597   4.463   6.996   9.912 -0.0839 -0.2006 -0.1390
   38loPI   GL2  598   4.141   6.881   9.980  0.1048 -0.3308 -0.0479
   38loPI   C1A  599   4.274   6.836   9.494  0.1098 -0.2788  0.3127
   38loPI   C2A  600   4.291   6.711   9.034  0.1087 -0.0006 -0.0073
   38loPI   C3A  601   4.339   6.823   8.588 -0.0492 -0.0798 -0.0753
   38loPI   C4A  602   4.494   6.916   8.150 -0.2687 -0.0453 -0.1242
   38loPI   C5A  603   4.730   7.140   7.814  0.1106  0.2445  0.0424
   38loPI   C6A  604   4.872   7.178   7.462 -0.4274  0.0925  0.1977
   38loPI   C1B  605   4.038   6.518   9.791  0.1629  0.1464 -0.1536
   38loPI   C2B  606   3.996   6.402   9.340  0.2162  0.0134  0.3001
   38loPI   C3B  607   4.087   6.284   8.897  0.2908  0.1202  0.1420
   38loPI   C4B  608   4.052   6.464   8.521 -0.0567  0.0998 -0.0353
   39loPI    C1  609   9.998   5.581  10.887 -0.1716  0.0955 -0.0608
   39loPI    C2  610   9.844   5.829  10.613 -0.2469  0.3658  0.2212
   39loPI    C3  611   9.727   5.854  10.995 -0.1726 -0.0342  0.2749
   39loPI   PO4  612  10.293   5.666  10.726  0.0442 -0.3357  0.1908
   39loPI   GL1  613  10.606   5.441  10.455 -0.0306 -0.0433 -0.2441
   39loPI   GL2  614  10.774   5.199  10.557 -0.0702  0.1223 -0.3380
   39loPI   C1A  615  10.532   5.478   9.964  0.1752 -0.0699  0.0900
   39loPI   C2A  616  10.135   5.404   9.733 -0.0522  0.0974  0.2187
   39loPI   C3A  617   9.903   5.707   9.393 -0.1232 -0.2400  0.1606
   39loPI   C4A  618   9.936   5.941   9.062  0.1718 -0.0605 -0.1343
   39loPI   C5A  619  10.162   6.255   8.707 -0.0350  0.0210  0.1866
   39loPI   C6A  620  10.357   6.511   8.379 -0.1666 -0.2208  0.0687
   39loPI   C1B  621  10.845   5.088  10.072 -0.2701  0.3563  0.2234
   39loPI   C2B  622  10.893   5.034   9.656 -0.2291  0.3757  0.2415
   39loPI   C3B  623  10.776   5.113   9.178 -0.2356 -0.0807  0.0306
   39loPI   C4B  624  10.865   5.126   8.751 -0.0119 -0.0702  0.0158
   40loPI    C1  625   4.293   3.387  10.683  0.0013  0.2144  0.0246
   40loPI    C2  626   4.355   3.667  10.962 -0.0371  0.3232 -0.0750
   40loPI    C3  627   4.075   3.388  11.018 -0.0408  0.3414 -0.0023
   40loPI   PO4  628   4.316   3.468  10.460  0.2033 -0.4597  0.0229
   40loPI   GL1  629   4.262   3.546  10.042  0.0544 -0.4405  0.0771
   40loPI   GL2  630   4.527   3.532  10.002  0.0301 -0.0712  0.1391
   40loPI   C1A  631   4.297   3.130   9.789 -0.0062  0.0308  0.1404
   40loPI   C2A  632   4.263   3.158   9.302  0.0117 -0.0001 -0.0409
   40loPI   C3A  633   4.322   3.216   8.867 -0.0935 -0.1129  0.1134
   40loPI   C4A  634   4.081   3.240   8.508  0.2906  0.0854 -0.0902
   40loPI   C5A  635   3.723   3.121   8.316  0.0331 -0.2169  0.0099
   40loPI   C6A  636   3.427   3.159   7.993 -0.1588 -0.0392 -0.2371
   40loPI   C1B  637   4.469   3.567   9.562  0.2391  0.2742 -0.0611
   40loPI   C2B  638   4.486   3.634   9.171  0.1384 -0.2271  0.2161
   40loPI   C3B  639   4.458   3.715   8.662 -0.0027 -0.2140 -0.2175
   40loPI   C4B  640   4.547   3.814   8.108 -0.3921 -0.0271 -0.1255
   41loPI    C1  641  16.936  15.300  11.012  0.0748  0.0033 -0.0745
   41loPI    C2  642  17.312  15.223  11.125  0.1054 -0.1624 -0.2836
   41loPI    C3  643  17.006  15.052  11.318  0.1171  0.2682  0.1343
   41loPI   PO4  644  16.895  15.252  10.740 -0.2295  0.0498 -0.1760
   41loPI   GL1  645  16.598  15.321  10.541  0.1981 -0.2065 -0.1906
   41loPI   GL2  646  16.241  15.112  10.438  0.1718 -0.0139  0.2238
   41loPI   C1A  647  16.509  15.427  10.043 -0.0232 -0.2767  0.1116
   41loPI   C2A  648  16.417  15.404   9.631 -0.3730  0.0306  0.1883
   41loPI   C3A  649  16.505  15.409   9.210  0.0803  0.1455  0.0144
   41loPI   C4A  650  16.389  15.418   8.787  0.1385  0.0854  0.3242
   41loPI   C5A  651  16.611  15.648   8.398  0.3260  0.3713 -0.1314
   41loPI   C6A  652  17.010  15.623   8.369 -0.0135 -0.2389  0.0848
   41loPI   C1B  653  15.955  15.070  10.111  0.0430  0.1231 -0.0046
   41loPI   C2B  654  16.080  15.011   9.758 -0.1623  0.2946 -0.1070
   41loPI   C3B  655  16.136  14.907   9.297  0.3939 -0.0338  0.1680
   41loPI   C4B  656  16.062  15.011   8.825  0.0465  0.0074  0.2538
   42loPI    C1  657   8.243  12.520  10.611 -0.0451 -0.0544 -0.0590
   42loPI    C2  658   8.385  12.338  10.937  0.1502  0.0607 -0.0784
   42loPI    C3  659   8.260  12.121  10.625  0.1149 -0.0457  0.0091
   42loPI   PO4  660   8.381  12.668  10.436  0.0355  0.0963  0.3214
   42loPI   GL1  661   8.497  12.624   9.931 -0.1378 -0.2344 -0.1020
   42loPI   GL2  662   8.399  12.401   9.814  0.3218  0.0950 -0.1439
   42loPI   C1A  663   8.270  12.964   9.643 -0.1120 -0.2609 -0.0577
   42loPI   C2A  664   7.987  12.945   9.250  0.2196 -0.2795 -0.3274
   42loPI   C3A  665   7.822  12.940   8.797 -0.1890  0.1583 -0.0158
   42loPI   C4A  666   7.831  13.101   8.322  0.1632 -0.0137  0.1180
   42loPI   C5A  667   7.809  13.273   7.845 -0.1162 -0.0507 -0.1465
   42loPI   C6A  668   7.550  13.205   7.581  0.2429  0.1590  0.2019
   42loPI   C1B  669   8.315  12.520   9.418  0.1410 -0.0040  0.1493
   42loPI   C2B  670   8.108  12.467   9.046 -0.2382  0.1446  0.1026
   42loPI   C3B  671   7.972  12.520   8.644  0.0726 -0.0029  0.0595
   42loPI   C4B  672   7.874  12.583   8.172  0.1529 -0.0957  0.1888
   43loPI    C1  673   1.165   7.101  10.686 -0.1741  0.0494  0.0924
   43loPI    C2  674   1.391   7.374  10.499 -0.2800  0.1247  0.0739
   43loPI    C3  675   1.421   7.327  10.896 -0.0343 -0.0552  0.0364
   43loPI   PO4  676   1.050   7.000  10.519  0.1860  0.1931 -0.3058
   43loPI   GL1  677   1.227   6.850  10.088  0.0584  0.2277 -0.0917
   43loPI   GL2  678   1.100   6.599  10.070  0.0584 -0.0174 -0.1642
   43loPI   C1A  679   1.199   7.028   9.720  0.4311  0.0216 -0.2326
   43loPI   C2A  680   0.883   7.075   9.439 -0.0379 -0.1785  0.0149
   43loPI   C3A  681   0.873   7.061   8.963 -0.0748  0.0553 -0.1624
   43loPI   C4A  682   0.848   6.833   8.592  0.0681  0.0940  0.2710
   43loPI   C5A  683   0.754   6.509   8.312 -0.2557 -0.1445 -0.1328
   43loPI   C6A  684   0.752   6.040   8.131 -0.2477  0.2194  0.1603
   43loPI   C1B  685   0.943   6.596   9.630 -0.1908  0.1176 -0.0197
   43loPI   C2B  686   0.991   6.547   9.120  0.1356  0.1324  0.2984
   43loPI   C3B  687   1.262   6.586   8.807  0.0421 -0.1461  0.1103
   43loPI   C4B  688   1.591   6.841   8.774  0.0932 -0.0935  0.1951
   44loPI    C1  689  17.659   6.617  10.841 -0.0391  0.1020  0.1475
   44loPI    C2  690  17.380   6.741  11.099 -0.0333  0.0667  0.1709
   44loPI    C3  691  17.392   6.358  10.987 -0.0864  0.0984  0.0550
   44loPI   PO4  692  17.560   6.873  10.592 -0.0969 -0.0042 -0.1496
   44loPI   GL1  693  17.764   7.042  10.212 -0.2012 -0.0335  0.1892
   44loPI   GL2  694  17.925   7.201  10.100 -0.0012 -0.1564  0.0356
   44loPI   C1A  695  17.621   6.779   9.880 -0.1770 -0.3581  0.1979
   44loPI   C2A  696  17.670   6.786   9.466 -0.2321 -0.1184 -0.3126
   44loPI   C3A  697  17.633   6.798   9.047  0.1096 -0.3940  0.1458
   44loPI   C4A  698  17.784   6.910   8.653 -0.0864 -0.0203 -0.2520
   44loPI   C5A  699  17.923   6.993   8.213 -0.0312 -0.2738 -0.5616
   44loPI   C6A  700  17.829   7.383   7.961 -0.0020 -0.1577  0.1687
   44loPI   C1B  701  18.025   7.093   9.719 -0.0776  0.0228 -0.0504
   44loPI   C2B  702  18.025   7.233   9.239  0.2802  0.1010 -0.1274
   44loPI   C3B  703  18.057   7.230   8.893 -0.0988 -0.0212 -0.3175
   44loPI   C4B  704  18.223   7.485   8.604 -0.0244  0.2491 -0.2138
   45loPI    C1  705  10.179   7.819  10.905  0.0273  0.0932 -0.0332
   45loPI    C2  706  10.466   7.540  10.896  0.0524  0.1263 -0.4733
   45loPI    C3  707  10.559   7.922  10.972  0.0612  0.0689 -0.1849
   45loPI   PO4  708  10.055   7.856  10.664 -0.3139 -0.1371 -0.0900
   45loPI   GL1  709  10.132   7.939  10.199  0.2346 -0.0783  0.2852
   45loPI   GL2  710  10.035   7.664  10.068 -0.2655 -0.0214  0.1627
   45loPI   C1A  711  10.152   8.192   9.876 -0.2458  0.1449 -0.1185
   45loPI   C2A  712  10.048   8.301   9.514  0.1353 -0.3435 -0.3309
   45loPI   C3A  713  10.065   8.433   9.233 -0.0307 -0.1717  0.2923
   45loPI   C4A  714  10.007   8.385   8.794 -0.1460 -0.2972 -0.0993
   45loPI   C5A  715  10.008   8.260   8.372  0.0868 -0.0504 -0.2813
   45loPI   C6A  716   9.972   8.486   7.970 -0.4658 -0.0292  0.2080
   45loPI   C1B  717  10.398   7.783   9.700  0.1584  0.0408  0.1453
   45loPI   C2B  718  10.274   7.881   9.357  0.2087  0.2648 -0.0338
   45loPI   C3B  719  10.259   7.927   8.925  0.1020 -0.3173 -0.0553
   45loPI   C4B  720  10.318   7.906   8.468 -0.0285 -0.1025  0.1152
   46loPI    C1  721   8.641   1.434  11.093  0.1006 -0.1638  0.0800
   46loPI    C2  722   8.597   1.121  11.338  0.1385 -0.3356 -0.1297
   46loPI    C3  723   8.912   1.365  11.379 -0.0153 -0.1842  0.1854
   46loPI   PO4  724   8.394   1.290  10.877  0.1019  0.3922  0.0091
   46loPI   GL1  725   8.256   1.418  10.393 -0.0568  0.3802  0.0574
   46loPI   GL2  726   8.166   1.165  10.302 -0.0166 -0.0148  0.0269
   46loPI   C1A  727   7.995   1.588  10.053 -0.2330 -0.0373 -0.1996
   46loPI   C2A  728   8.050   1.745   9.650 -0.1057  0.0866 -0.1415
   46loPI   C3A  729   8.072   1.643   9.196  0.0939 -0.0536  0.1288
   46loPI   C4A  730   8.123   1.688   8.803  0.2365  0.0821  0.0303
   46loPI   C5A  731   8.184   1.985   8.451 -0.0153  0.0424 -0.0414
   46loPI   C6A  732   8.259   2.176   8.105 -0.0858  0.1119  0.1710
   46loPI   C1B  733   8.266   1.258   9.870 -0.0007  0.3317  0.3067
   46loPI   C2B  734   8.210   1.312   9.526 -0.3984  0.0176  0.1725
   46loPI   C3B  735   8.209   1.216   9.080 -0.1452 -0.1578  0.1945
   46loPI   C4B  736   8.216   1.217   8.630 -0.0072 -0.1520 -0.0972
   47loPI    C1  737   5.390   8.903  10.862  0.1564  0.1503 -0.1731
   47loPI    C2  738   5.120   8.787  10.591  0.0947  0.3774 -0.2108
   47loPI    C3  739   5.018   9.048  10.876  0.1243  0.0463  0.1102
   47loPI   PO4  740   5.670   8.743  10.745  0.1613 -0.0089  0.2261
   47loPI   GL1  741   5.522   8.705  10.311  0.1420 -0.0186 -0.2338
   47loPI   GL2  742   5.621   8.436  10.365 -0.0901  0.0998 -0.1583
   47loPI   C1A  743   5.504   9.004  10.006 -0.2901  0.0889  0.2222
   47loPI   C2A  744   5.747   9.049   9.632  0.2293  0.2092  0.3054
   47loPI   C3A  745   5.851   9.042   9.230  0.0586  0.3462  0.0491
   47loPI   C4A  746   5.752   8.967   8.752 -0.1333  0.0669  0.0232
   47loPI   C5A  747   5.834   8.856   8.374 -0.3396  0.2024 -0.0433
   47loPI   C6A  748   5.965   8.458   8.235 -0.0224  0.1802  0.0247
   47loPI   C1B  749   5.733   8.224  10.010 -0.1577  0.2250 -0.2145
   47loPI   C2B  750   5.676   8.161   9.575 -0.0702 -0.4727 -0.1774
   47loPI   C3B  751   5.676   8.072   9.208 -0.2191  0.0996  0.2002
   47loPI   C4B  752   5.675   8.131   8.773  0.1013 -0.3628 -0.1516
   48loPI    C1  753   3.784  11.349  10.507 -0.3189  0.1110  0.2252
   48loPI    C2  754   3.731  11.156  10.853  0.1062 -0.1735  0.1390
   48loPI    C3  755   3.886  11.524  10.851 -0.0866 -0.0903  0.2614
   48loPI   PO4  756   3.988  11.247  10.353 -0.1191 -0.0668  0.3040
   48loPI   GL1  757   3.905  11.019  10.007 -0.0452 -0.0791 -0.1015
   48loPI   GL2  758   3.699  10.799   9.945  0.1291 -0.2109  0.0455
   48loPI   C1A  759   4.069  10.945   9.684 -0.1258 -0.1701 -0.2283
   48loPI   C2A  760   4.284  10.791   9.282  0.0393 -0.1356 -0.1990
   48loPI   C3A  761   4.175  10.739   8.967  0.3520  0.2578 -0.0896
   48loPI   C4A  762   4.200  10.794   8.538  0.1497 -0.2663 -0.0797
   48loPI   C5A  763   4.162  10.908   8.098 -0.1583  0.0443 -0.0970
   48loPI   C6A  764   3.918  11.225   7.911 -0.0246  0.0671 -0.0843
   48loPI   C1B  765   3.554  11.008   9.608 -0.2096 -0.1967 -0.0293
   48loPI   C2B  766   3.466  11.254   9.320 -0.1520  0.1038  0.2649
   48loPI   C3B  767   3.485  11.169   8.849 -0.0614 -0.1201 -0.2426
   48loPI   C4B  768   3.426  11.151   8.477 -0.1255  0.2400 -0.1325
   49loPI    C1  769   7.668   6.514  11.031 -0.0499  0.3305  0.0233
   49loPI    C2  770   7.309   6.344  11.080  0.1752 -0.1224  0.1529
   49loPI    C3  771   7.572   6.349  11.382  0.3530  0.0278 -0.0012
   49loPI   PO4  772   7.631   6.722  10.865  0.0313  0.1161  0.0251
   49loPI   GL1  773   7.696   6.842  10.492  0.1223  0.1427  0.0884
   49loPI   GL2  774   7.468   6.974  10.359  0.1088  0.0833  0.1434
   49loPI   C1A  775   7.828   6.838  10.020 -0.1908 -0.2555  0.1086
   49loPI   C2A  776   7.917   6.698   9.595 -0.2295  0.0724  0.0662
   49loPI   C3A  777   7.852   6.709   9.160 -0.0166  0.3024  0.2636
   49loPI   C4A  778   7.916   6.705   8.696  0.1242 -0.0548 -0.4046
   49loPI   C5A  779   8.023   6.692   8.267 -0.1371  0.1817  0.1227
   49loPI   C6A  780   8.155   6.588   7.845  0.1842  0.1585  0.0730
   49loPI   C1B  781   7.289   6.798   9.943 -0.0896  0.0728 -0.0731
   49loPI   C2B  782   7.434   6.755   9.420 -0.2238 -0.2254 -0.0697
   49loPI   C3B  783   7.353   6.726   8.980 -0.2481 -0.0286 -0.0913
   49loPI   C4B  784   7.358   6.667   8.520 -0.2809  0.0901  0.2824
   50loPI    C1  785  14.212  13.424  10.815 -0.1165 -0.1320 -0.1795
   50loPI    C2  786  14.131  13.799  10.926  0.4152 -0.0296 -0.1112
   50loPI    C3  787  14.170  13.513  11.203  0.0555 -0.1312 -0.1603
   50loPI   PO4  788  14.330  13.454  10.637 -0.2086  0.0519 -0.0466
   50loPI   GL1  789  14.443  13.271  10.269 -0.3606  0.0424 -0.0652
   50loPI   GL2  790  14.272  13.368  10.014 -0.1073  0.0358 -0.0282
   50loPI   C1A  791  14.784  13.263   9.929 -0.3573  0.0318 -0.1684
   50loPI   C2A  792  14.877  13.227   9.564 -0.0728 -0.2125  0.1542
   50loPI   C3A  793  14.835  13.310   9.135  0.3991 -0.0951 -0.0290
   50loPI   C4A  794  14.905  13.301   8.642 -0.1692  0.0526  0.1221
   50loPI   C5A  795  15.132  13.334   8.262 -0.0239 -0.1591 -0.2716
   50loPI   C6A  796  15.427  13.126   7.881 -0.1891 -0.1963 -0.0104
   50loPI   C1B  797  14.304  13.319   9.657 -0.1397 -0.0388  0.1621
   50loPI   C2B  798  14.375  13.365   9.274  0.0045  0.0471  0.0276
   50loPI   C3B  799  14.368  13.310   8.861  0.0481 -0.0428  0.2129
   50loPI   C4B  800  14.264  13.121   8.373  0.4482  0.2877 -0.2171
   51loPI    C1  801   6.774   9.101  10.771  0.2503 -0.1352  0.1490
   51loPI    C2  802   6.858   9.390  11.035 -0.0609  0.0126  0.0908
   51loPI    C3  803   6.555   9.138  11.103 -0.1611  0.0688 -0.1372
   51loPI   PO4  804   6.942   9.165  10.555  0.0605  0.0518 -0.1461
   51loPI   GL1  805   6.951   8.839  10.280 -0.1922  0.2104 -0.1817
   51loPI   GL2  806   7.119   8.838  10.029  0.0309 -0.1373 -0.0229
   51loPI   C1A  807   6.603   8.652  10.046 -0.0212  0.0052 -0.2281
   51loPI   C2A  808   6.464   8.536   9.666  0.0501 -0.0804 -0.5360
   51loPI   C3A  809   6.452   8.528   9.196 -0.1178 -0.2626 -0.0732
   51loPI   C4A  810   6.426   8.477   8.768  0.0429 -0.0748  0.1068
   51loPI   C5A  811   6.382   8.656   8.431 -0.0497  0.2348  0.2283
   51loPI   C6A  812   6.293   8.770   8.020  0.2444  0.1810 -0.2286
   51loPI   C1B  813   6.938   8.577   9.643 -0.1535 -0.1284 -0.0354
   51loPI   C2B  814   6.967   8.436   9.221 -0.1397 -0.1465 -0.3386
   51loPI   C3B  815   7.056   8.496   8.820  0.0667  0.1923 -0.1036
   51loPI   C4B  816   6.881   8.582   8.389 -0.2710  0.0958  0.0034
   52loPI    C1  817  15.193   9.000  10.996  0.0631  0.3204 -0.0674
   52loPI    C2  818  14.809   9.089  10.929 -0.1533 -0.1971  0.4064
   52loPI    C3  819  15.059   9.371  11.062 -0.2976  0.2071 -0.1419
   52loPI   PO4  820  15.266   8.933  10.769 -0.0950  0.0488 -0.0377
   52loPI   GL1  821  15.301   8.891  10.424  0.0336  0.1050 -0.4773
   52loPI   GL2  822  15.495   8.700  10.304 -0.0289 -0.0860 -0.0974
   52loPI   C1A  823  15.573   9.204  10.171 -0.0057 -0.0469  0.0076
   52loPI   C2A  824  15.569   9.299   9.745  0.1572 -0.0124  0.0618
   52loPI   C3A  825  15.566   9.262   9.318 -0.1472  0.0568 -0.0335
   52loPI   C4A  826  15.679   9.253   8.866 -0.1541  0.3299  0.1205
   52loPI   C5A  827  15.756   9.101   8.431  0.1613 -0.0176 -0.1875
   52loPI   C6A  828  15.734   8.756   8.132  0.1312 -0.2732  0.0328
   52loPI   C1B  829  15.281   8.835   9.895 -0.2653 -0.0396 -0.2238
   52loPI   C2B  830  15.214   8.794   9.452  0.0552  0.0881  0.0205
   52loPI   C3B  831  15.334   8.867   9.005  0.0726  0.0634  0.1174
   52loPI   C4B  832  15.308   8.968   8.575 -0.0713 -0.0337 -0.1926
   53loPI    C1  833  14.532  12.667  10.998  0.3015 -0.3464  0.1679
   53loPI    C2  834  14.679  12.956  10.764 -0.1565 -0.2998 -0.0736
   53loPI    C3  835  14.431  13.048  11.065 -0.0248 -0.4121  0.0706
   53loPI   PO4  836  14.556  12.455  10.769  0.0135  0.0096 -0.0823
   53loPI   GL1  837  14.577  12.395  10.325 -0.1096 -0.0290 -0.2385
   53loPI   GL2  838  14.581  12.686  10.307  0.1448  0.1200 -0.1071
   53loPI   C1A  839  14.777  12.413   9.887  0.1107  0.1891  0.1280
   53loPI   C2A  840  14.716  12.382   9.460  0.1024  0.0557 -0.0389
   53loPI   C3A  841  14.736  12.432   9.091  0.1617  0.2758  0.2736
   53loPI   C4A  842  14.822  12.470   8.706 -0.0644  0.4761  0.1169
   53loPI   C5A  843  14.767  12.597   8.267  0.0897  0.1879 -0.1396
   53loPI   C6A  844  14.899  12.929   8.057  0.5503 -0.1281  0.0345
   53loPI   C1B  845  14.457  12.825   9.983 -0.1059  0.1216 -0.1266
   53loPI   C2B  846  14.550  12.882   9.529 -0.2320 -0.0771  0.1204
   53loPI   C3B  847  14.545  12.854   9.102  0.3240  0.0435  0.0078
   53loPI   C4B  848  14.613  12.877   8.609 -0.0067  0.3547  0.1993
   54loPI    C1  849   2.208  10.880  10.764 -0.0320  0.2377  0.3061
   54loPI    C2  850   2.325  10.561  10.975 -0.0481  0.1281  0.1509
   54loPI    C3  851   2.428  10.928  11.094  0.3333  0.0427  0.0975
   54loPI   PO4  852   2.163  10.756  10.483  0.0018 -0.1446  0.1966
   54loPI   GL1  853   1.854  10.862  10.220  0.1192 -0.0055 -0.1909
   54loPI   GL2  854   1.655  10.655  10.234  0.2103 -0.0013 -0.1542
   54loPI   C1A  855   1.643  10.923   9.747 -0.2668  0.0091  0.0328
   54loPI   C2A  856   1.613  10.835   9.397  0.0859 -0.0813  0.2298
   54loPI   C3A  857   1.687  10.983   9.074  0.0323 -0.1890 -0.0980
   54loPI   C4A  858   1.659  11.053   8.779  0.0763 -0.0781 -0.2162
   54loPI   C5A  859   1.564  11.158   8.344 -0.2234 -0.3793 -0.3762
   54loPI   C6A  860   1.571  11.640   8.083 -0.1054 -0.2412 -0.2289
   54loPI   C1B  861   1.792  10.411   9.918  0.2186  0.0064 -0.0875
   54loPI   C2B  862   1.903  10.362   9.498 -0.0402  0.1427  0.2615
   54loPI   C3B  863   1.904  10.424   9.139 -0.0830  0.1569  0.4677
   54loPI   C4B  864   1.892  10.543   8.745  0.1512  0.0416 -0.1954
   55loPI    C1  865   7.399  14.311  10.935  0.1393  0.0479  0.0954
   55loPI    C2  866   7.690  14.063  11.049  0.2520  0.1712  0.0784
   55loPI    C3  867   7.481  14.265  11.323 -0.0690 -0.1964  0.1131
   55loPI   PO4  868   7.561  14.486  10.812 -0.5503  0.0726  0.0562
   55loPI   GL1  869   7.639  14.518  10.363 -0.2604 -0.1745  0.0611
   55loPI   GL2  870   7.709  14.886  10.433 -0.3839  0.1091  0.3159
   55loPI   C1A  871   7.248  14.665  10.086  0.1278 -0.0630 -0.0733
   55loPI   C2A  872   6.931  14.771   9.754 -0.1118 -0.2903 -0.1583
   55loPI   C3A  873   6.980  14.785   9.331  0.3031 -0.1984  0.0056
   55loPI   C4A  874   7.038  14.933   8.953  0.0520  0.0969  0.2432
   55loPI   C5A  875   7.053  15.091   8.472 -0.0029 -0.3474 -0.1276
   55loPI   C6A  876   7.152  14.932   8.040 -0.3997  0.0041  0.5928
   55loPI   C1B  877   7.710  14.975  10.059 -0.1876 -0.0698  0.0811
   55loPI   C2B  878   7.635  14.786   9.639 -0.1086  0.0740 -0.0450
   55loPI   C3B  879   7.466  14.805   9.233  0.1914 -0.2591  0.0700
   55loPI   C4B  880   7.519  14.836   8.804  0.2404  0.1685  0.3057
   56loPI    C1  881  14.322  15.527  10.811 -0.3564 -0.0974 -0.4114
   56loPI    C2  882  14.299  15.161  10.970 -0.0657  0.0439 -0.0253
   56loPI    C3  883  14.010  15.429  11.041 -0.1447 -0.0240 -0.0867
   56loPI   PO4  884  14.405  15.461  10.478 -0.2510  0.1938 -0.0565
   56loPI   GL1  885  14.341  15.401  10.142 -0.0594 -0.0994  0.1400
   56loPI   GL2  886  14.356  15.144  10.094  0.1654 -0.0140 -0.1667
   56loPI   C1A  887  14.183  15.581   9.816  0.4184  0.3427 -0.1274
   56loPI   C2A  888  14.269  15.529   9.339  0.0585  0.0489  0.0545
   56loPI   C3A  889  14.349  15.564   8.889  0.1380  0.3367  0.0303
   56loPI   C4A  890  14.547  15.532   8.481 -0.1005  0.1022  0.0837
   56loPI   C5A  891  14.865  15.612   8.154 -0.0075  0.0410  0.2033
   56loPI   C6A  892  15.223  15.658   7.912  0.0847 -0.3330 -0.1319
   56loPI   C1B  893  14.372  15.160   9.606  0.3225  0.0246  0.2202
   56loPI   C2B  894  14.524  15.157   9.171  0.1754 -0.1109  0.0273
   56loPI   C3B  895  14.649  15.157   8.765 -0.2106 -0.1049 -0.0694
   56loPI   C4B  896  14.790  15.111   8.374 -0.2167  0.3395 -0.2129
   57loPI    C1  897  15.282  11.077  10.985 -0.3876 -0.1297  0.2496
   57loPI    C2  898  15.429  11.410  11.152  0.0781 -0.3394  0.2705
   57loPI    C3  899  15.269  11.125  11.382 -0.0874 -0.2438  0.2753
   57loPI   PO4  900  15.159  11.062  10.839 -0.1872  0.2457  0.1107
   57loPI   GL1  901  15.044  10.881  10.454 -0.4506 -0.2038 -0.1014
   57loPI   GL2  902  14.846  11.079  10.377  0.1436  0.0481 -0.0672
   57loPI   C1A  903  15.283  11.054  10.006 -0.1210 -0.1392  0.4354
   57loPI   C2A  904  15.370  11.049   9.572  0.0150  0.1616  0.2455
   57loPI   C3A  905  15.327  10.989   9.069 -0.1185 -0.1049  0.2705
   57loPI   C4A  906  15.359  11.030   8.681 -0.3145 -0.0523  0.3105
   57loPI   C5A  907  15.188  11.222   8.252  0.3085 -0.1318  0.4740
   57loPI   C6A  908  14.701  11.254   8.031 -0.2330 -0.1915 -0.0833
   57loPI   C1B  909  14.786  11.101  10.050 -0.1469 -0.3033  0.2680
   57loPI   C2B  910  14.835  11.142   9.575 -0.2240 -0.0180  0.3225
   57loPI   C3B  911  14.828  11.078   9.176 -0.0316  0.1219 -0.1118
   57loPI   C4B  912  14.883  11.190   8.709 -0.0269  0.0735  0.1744
   58loPI    C1  913   7.852  11.883  10.221  0.1110  0.1108  0.0801
   58loPI    C2  914   7.947  11.717  10.572  0.1670  0.1596  0.0882
   58loPI    C3  915   7.790  12.084  10.562 -0.1343  0.0336  0.0833
   58loPI   PO4  916   7.787  11.710  10.091 -0.4514 -0.0637  0.0361
   58loPI   GL1  917   7.618  11.583   9.763  0.1405  0.0658  0.0430
   58loPI   GL2  918   7.757  11.291   9.669 -0.0067  0.2200 -0.1027
   58loPI   C1A  919   7.526  11.631   9.364 -0.0286  0.0233 -0.1596
   58loPI   C2A  920   7.503  11.572   8.971 -0.4642 -0.2865  0.0731
   58loPI   C3A  921   7.486  11.695   8.611 -0.0654 -0.2902  0.1591
   58loPI   C4A  922   7.363  11.698   8.236 -0.1884 -0.0634  0.2139
   58loPI   C5A  923   7.284  11.563   7.774 -0.1965  0.1412  0.3132
   58loPI   C6A  924   7.425  11.359   7.382 -0.1642  0.0672 -0.3230
   58loPI   C1B  925   7.788  11.238   9.265 -0.3514 -0.0101 -0.0582
   58loPI   C2B  926   7.653  11.130   8.860 -0.1066  0.2159 -0.1792
   58loPI   C3B  927   7.609  11.139   8.393  0.1197 -0.1819 -0.0695
   58loPI   C4B  928   7.566  11.170   8.017  0.2377  0.0548 -0.0692
   59loPI    C1  929  15.101  10.542  10.807 -0.1662 -0.1736  0.0342
   59loPI    C2  930  15.065  10.311  11.131  0.0348 -0.0021  0.1812
   59loPI    C3  931  15.331  10.609  11.127  0.0161  0.0132 -0.1334
   59loPI   PO4  932  15.108  10.352  10.605  0.0473  0.2286 -0.1415
   59loPI   GL1  933  15.391  10.379  10.292 -0.2095  0.0175 -0.4314
   59loPI   GL2  934  15.507  10.600  10.142 -0.3184  0.0634  0.1443
   59loPI   C1A  935  15.030  10.654  10.054  0.1490  0.0289 -0.0080
   59loPI   C2A  936  14.940  10.698   9.613  0.1546  0.0583 -0.2609
   59loPI   C3A  937  15.056  10.615   9.275  0.1762 -0.0096  0.1728
   59loPI   C4A  938  14.990  10.674   8.832  0.2693 -0.1219 -0.0332
   59loPI   C5A  939  14.945  10.801   8.407  0.3117 -0.1088 -0.0292
   59loPI   C6A  940  14.874  10.761   7.953 -0.2919 -0.2276 -0.0254
   59loPI   C1B  941  15.428  10.561   9.776  0.1313  0.1047  0.1030
   59loPI   C2B  942  15.530  10.546   9.376 -0.0434 -0.0239  0.0868
   59loPI   C3B  943  15.580  10.595   8.950  0.1714  0.0523  0.0920
   59loPI   C4B  944  15.358  10.517   8.466  0.1418 -0.2942 -0.1936
   60loPI    C1  945   9.485   5.457  10.737 -0.0416 -0.0665 -0.2529
   60loPI    C2  946   9.238   5.763  10.811  0.2297  0.0914  0.0252
   60loPI    C3  947   9.189   5.415  11.003 -0.0193 -0.0119 -0.2191
   60loPI   PO4  948   9.489   5.511  10.421 -0.0131 -0.0162 -0.1933
   60loPI   GL1  949   9.200   5.367  10.048 -0.0097 -0.1731  0.1710
   60loPI   GL2  950   9.284   5.595   9.965  0.0735 -0.2364 -0.2394
   60loPI   C1A  951   9.149   5.267   9.640  0.0984  0.1259  0.0982
   60loPI   C2A  952   9.114   5.309   9.182 -0.0562  0.0521 -0.0709
   60loPI   C3A  953   9.079   5.243   8.751  0.0068 -0.1711  0.1457
   60loPI   C4A  954   9.084   5.188   8.333  0.1563 -0.1429  0.0270
   60loPI   C5A  955   8.759   4.956   8.139 -0.1251 -0.3315  0.1503
   60loPI   C6A  956   8.806   4.498   8.094  0.1202 -0.1598 -0.1068
   60loPI   C1B  957   9.417   5.693   9.486  0.0267  0.1039 -0.0781
   60loPI   C2B  958   9.453   5.746   9.090  0.2741 -0.1100  0.1325
   60loPI   C3B  959   9.375   5.718   8.679 -0.2432 -0.1670 -0.0799
   60loPI   C4B  960   9.338   5.623   8.242 -0.2652 -0.1209 -0.1766
   61loPI    C1  961   0.210  14.093  10.759 -0.2399  0.1590  0.0186
   61loPI    C2  962   0.509  13.875  10.912 -0.1057  0.1748 -0.2161
   61loPI    C3  963   0.243  14.048  11.155 -0.0102  0.0388 -0.0121
   61loPI   PO4  964   0.039  13.973  10.470  0.0482  0.0642 -0.0248
   61loPI   GL1  965   0.099  14.191  10.060  0.1560 -0.0990  0.0237
   61loPI   GL2  966  -0.179  14.299  10.063 -0.3001 -0.2154  0.2294
   61loPI   C1A  967   0.177  14.302   9.642  0.0461  0.0160 -0.2420
   61loPI   C2A  968   0.203  14.280   9.234 -0.2329  0.0494  0.0155
   61loPI   C3A  969   0.149  14.207   8.863 -0.1171  0.0836 -0.0944
   61loPI   C4A  970   0.183  14.040   8.429  0.0630  0.1991 -0.1224
   61loPI   C5A  971   0.075  14.105   8.013 -0.1983 -0.2043  0.0896
   61loPI   C6A  972  -0.038  14.281   7.748 -0.0952 -0.0005  0.2682
   61loPI   C1B  973  -0.369  14.332   9.694  0.0799  0.1296 -0.0417
   61loPI   C2B  974  -0.357  14.292   9.253  0.1521 -0.1751  0.3412
   61loPI   C3B  975  -0.353  14.252   8.822  0.2374 -0.2066 -0.0534
   61loPI   C4B  976  -0.563  14.300   8.366  0.0312 -0.1446 -0.1584
   62loPI    C1  977   6.503  12.424  10.517 -0.2706  0.2244  0.0761
   62loPI    C2  978   6.846  12.286  10.669 -0.0680  0.2237 -0.3649
   62loPI    C3  979   6.675  12.613  10.825  0.1874  0.2852 -0.2069
   62loPI   PO4  980   6.592  12.427  10.210  0.0750  0.1407  0.1844
   62loPI   GL1  981   6.684  12.639   9.922 -0.2902 -0.0978 -0.0692
   62loPI   GL2  982   6.419  12.794   9.805  0.0358  0.0085  0.0411
   62loPI   C1A  983   6.865  12.492   9.519 -0.1337 -0.1162 -0.0883
   62loPI   C2A  984   7.081  12.580   9.235  0.3201 -0.0003  0.1956
   62loPI   C3A  985   6.978  12.576   8.819 -0.1955 -0.2301 -0.0087
   62loPI   C4A  986   7.024  12.720   8.468  0.2204 -0.0064  0.0026
   62loPI   C5A  987   6.871  12.875   8.062 -0.0258 -0.0018  0.1326
   62loPI   C6A  988   6.543  13.007   7.882 -0.2893 -0.1952  0.1612
   62loPI   C1B  989   6.403  12.576   9.484  0.1205 -0.1990  0.0278
   62loPI   C2B  990   6.499  12.663   9.010 -0.4179  0.2189 -0.0486
   62loPI   C3B  991   6.504  12.692   8.569 -0.3859  0.1748 -0.0429
   62loPI   C4B  992   6.315  12.688   8.144 -0.0557  0.1498  0.0753
   63loPI    C1  993  15.525   9.450  10.893 -0.0155 -0.0812  0.0523
   63loPI    C2  994  15.698   9.213  10.622 -0.0844  0.0237 -0.0844
   63loPI    C3  995  15.713   9.116  11.010 -0.0440 -0.1625 -0.1313
   63loPI   PO4  996  15.586   9.703  10.762 -0.0971  0.1024 -0.0360
   63loPI   GL1  997  15.493   9.795  10.406 -0.0310 -0.1279  0.2018
   63loPI   GL2  998  15.179   9.971  10.318 -0.1364  0.0174  0.0459
   63loPI   C1A  999  15.405   9.703   9.998  0.0490  0.0842 -0.1625
   63loPI   C2A 1000  15.356   9.706   9.527  0.2685 -0.0315  0.1016
   63loPI   C3A 1001  15.439   9.719   9.050  0.0500 -0.1843 -0.0511
   63loPI   C4A 1002  15.464   9.612   8.592  0.0832 -0.0139 -0.0186
   63loPI   C5A 1003  15.360   9.428   8.336  0.0082 -0.0510  0.3256
   63loPI   C6A 1004  15.431   9.151   8.033 -0.1195  0.2668 -0.0082
   63loPI   C1B 1005  15.136  10.159   9.948 -0.0223 -0.0324  0.0488
   63loPI   C2B 1006  15.150  10.160   9.502  0.2079 -0.1743  0.2030
   63loPI   C3B 1007  15.230  10.161   9.043 -0.1176 -0.0084 -0.2048
   63loPI   C4B 1008  15.249  10.042   8.647 -0.1820  0.0133 -0.0774
   64loPI    C1 1009   0.776  13.535  10.673 -0.0417  0.2032  0.0513
   64loPI    C2 1010   0.493  13.252  10.694 -0.0454  0.2120  0.1226
   64loPI    C3 1011   0.812  13.235  10.935  0.0489  0.1652 -0.0043
   64loPI   PO4 1012   0.832  13.575  10.446 -0.0820 -0.0285  0.2246
   64loPI   GL1 1013   0.759  13.647  10.035 -0.1822  0.2154 -0.0860
   64loPI   GL2 1014   1.009  13.897  10.146  0.1947  0.1482  0.3721
   64loPI   C1A 1015   0.749  13.698   9.556  0.1434 -0.0422  0.0907
   64loPI   C2A 1016   0.877  13.754   9.164 -0.2322 -0.0723 -0.1526
   64loPI   C3A 1017   1.031  13.760   8.718 -0.1081  0.1441 -0.2428
   64loPI   C4A 1018   0.913  13.857   8.393  0.0431  0.3904  0.0002
   64loPI   C5A 1019   0.604  13.954   8.116 -0.4801  0.1021 -0.2794
   64loPI   C6A 1020   0.468  14.032   7.703 -0.0931  0.0395 -0.0435
   64loPI   C1B 1021   1.134  14.167   9.802 -0.0179  0.2805 -0.0245
   64loPI   C2B 1022   0.992  14.542   9.645  0.1499 -0.1293 -0.0203
   64loPI   C3B 1023   0.972  14.709   9.283  0.1023  0.2793  0.0640
   64loPI   C4B 1024   0.967  14.683   8.780  0.1173 -0.3689 -0.4327
   65loPI    C1 1025   8.307   2.923  10.639  0.0729  0.2241 -0.1313
   65loPI    C2 1026   8.470   3.130  10.940  0.1135  0.0898 -0.0600
   65loPI    C3 1027   8.534   2.736  10.911 -0.0457  0.0690 -0.1374
   65loPI   PO4 1028   8.372   3.044  10.417 -0.3691 -0.0252  0.1003
   65loPI   GL1 1029   8.512   3.359  10.225  0.3454  0.1192  0.0849
   65loPI   GL2 1030   8.805   3.229  10.180 -0.1896  0.0475  0.0115
   65loPI   C1A 1031   8.363   3.190   9.751  0.3166  0.1209  0.2269
   65loPI   C2A 1032   8.327   3.098   9.386  0.1005  0.0555 -0.2520
   65loPI   C3A 1033   8.598   3.063   8.988  0.0503 -0.0889 -0.0823
   65loPI   C4A 1034   8.697   3.050   8.514  0.0949  0.1247  0.0023
   65loPI   C5A 1035   8.797   2.670   8.239 -0.2823 -0.0679 -0.1107
   65loPI   C6A 1036   8.740   2.267   8.308  0.2465  0.4256  0.0002
   65loPI   C1B 1037   8.854   3.164   9.705  0.1014 -0.0379  0.0969
   65loPI   C2B 1038   8.979   2.954   9.275 -0.0422 -0.1891 -0.0438
   65loPI   C3B 1039   9.104   2.783   8.838  0.0424 -0.2114 -0.2201
   65loPI   C4B 1040   9.327   2.923   8.436  0.2163 -0.2700 -0.1553
   66loPI    C1 1041   4.929  12.098  10.640  0.1119  0.2129 -0.0088
   66loPI    C2 1042   5.201  12.323  10.830  0.2319 -0.0003  0.0759
   66loPI    C3 1043   5.018  12.024  11.023  0.0105  0.0769 -0.0109
   66loPI   PO4 1044   4.848  12.227  10.420 -0.1009  0.0336  0.0716
   66loPI   GL1 1045   4.966  12.233   9.938  0.1783 -0.1160  0.2870
   66loPI   GL2 1046   5.265  12.383   9.910  0.0493 -0.2642  0.0818
   66loPI   C1A 1047   4.963  12.107   9.503  0.1905 -0.2396 -0.2595
   66loPI   C2A 1048   5.083  12.124   9.030  0.0632  0.0007 -0.0456
   66loPI   C3A 1049   5.094  12.266   8.615 -0.0418  0.0447  0.0802
   66loPI   C4A 1050   5.383  12.552   8.275  0.0999 -0.1743 -0.0535
   66loPI   C5A 1051   5.269  12.956   8.093 -0.1720 -0.1202  0.4104
   66loPI   C6A 1052   5.337  13.332   7.853  0.1768 -0.3320 -0.2018
   66loPI   C1B 1053   5.352  12.380   9.374  0.0357 -0.0121 -0.2722
   66loPI   C2B 1054   5.342  12.585   8.948 -0.0947 -0.2587 -0.1093
   66loPI   C3B 1055   5.508  12.796   8.694  0.2486 -0.0814  0.0720
   66loPI   C4B 1056   5.814  13.136   8.777 -0.2214 -0.1177  0.0102
   67loPI    C1 1057  13.163   1.115  10.642  0.1864  0.1298  0.0821
   67loPI    C2 1058  13.071   1.314  10.976  0.0649  0.1158  0.0573
   67loPI    C3 1059  13.102   1.510  10.628 -0.0519  0.0924  0.0334
   67loPI   PO4 1060  13.003   0.992  10.561  0.0441 -0.0423 -0.1017
   67loPI   GL1 1061  12.949   0.855  10.110 -0.2604 -0.1616  0.0016
   67loPI   GL2 1062  12.588   0.980  10.114 -0.4240 -0.0436  0.1645
   67loPI   C1A 1063  13.159   0.494   9.880 -0.1057 -0.2345  0.1616
   67loPI   C2A 1064  13.099   0.476   9.447 -0.4189  0.1589 -0.0793
   67loPI   C3A 1065  12.990   0.498   8.991  0.0093  0.1871 -0.1115
   67loPI   C4A 1066  12.910   0.593   8.490 -0.1036 -0.3853  0.1255
   67loPI   C5A 1067  12.915   0.797   8.098  0.1618  0.0925  0.0065
   67loPI   C6A 1068  12.449   1.063   8.068 -0.0464 -0.0374 -0.1115
   67loPI   C1B 1069  12.559   0.773   9.770  0.0294 -0.3622 -0.0826
   67loPI   C2B 1070  12.656   0.609   9.498  0.2703 -0.2120 -0.0210
   67loPI   C3B 1071  12.612   0.810   9.057  0.1082 -0.0134  0.0336
   67loPI   C4B 1072  12.542   0.864   8.731 -0.0118  0.0625  0.1582
   68loPI    C1 1073  14.055   7.357  10.639 -0.2309 -0.0378  0.0471
   68loPI    C2 1074  14.151   6.976  10.564 -0.1463 -0.0195  0.0605
   68loPI    C3 1075  13.942   7.069  10.893 -0.1951 -0.0578  0.0404
   68loPI   PO4 1076  14.022   7.427  10.295 -0.2796 -0.1110  0.0340
   68loPI   GL1 1077  13.759   7.615  10.028  0.0793 -0.1745  0.0172
   68loPI   GL2 1078  13.753   7.928  10.132  0.2738  0.2225 -0.0914
   68loPI   C1A 1079  13.904   7.601   9.570 -0.1152  0.1316 -0.0417
   68loPI   C2A 1080  13.895   7.626   9.153  0.1823  0.3763  0.2521
   68loPI   C3A 1081  13.837   7.692   8.604  0.2481 -0.1480  0.1450
   68loPI   C4A 1082  13.903   7.346   8.296  0.2387 -0.2673  0.2534
   68loPI   C5A 1083  13.664   7.001   8.106 -0.2460  0.1621  0.0743
   68loPI   C6A 1084  13.467   6.643   7.907 -0.1086 -0.1402  0.0405
   68loPI   C1B 1085  13.658   8.157   9.700  0.1323  0.1054  0.0021
   68loPI   C2B 1086  13.592   8.055   9.275  0.0364 -0.1787 -0.1552
   68loPI   C3B 1087  13.699   8.169   8.845  0.0321 -0.0571 -0.0908
   68loPI   C4B 1088  13.672   8.273   8.396  0.0989  0.2208  0.2123
   69loPI    C1 1089  11.422   4.487  10.819 -0.0007 -0.1517 -0.0233
   69loPI    C2 1090  11.358   4.646  11.180 -0.0433  0.1196 -0.1478
   69loPI    C3 1091  11.130   4.343  11.052 -0.2919  0.2851 -0.1057
   69loPI   PO4 1092  11.580   4.492  10.743 -0.0229  0.0159 -0.2443
   69loPI   GL1 1093  11.584   4.370  10.371 -0.2233 -0.1222  0.0421
   69loPI   GL2 1094  11.242   4.257  10.289 -0.4649 -0.0462  0.0206
   69loPI   C1A 1095  11.652   4.357   9.967  0.1223 -0.1796  0.2780
   69loPI   C2A 1096  11.570   4.381   9.494  0.2646  0.0781  0.3886
   69loPI   C3A 1097  11.672   4.254   9.213  0.2231 -0.0478 -0.1936
   69loPI   C4A 1098  11.569   4.326   8.747 -0.2127 -0.1391  0.1915
   69loPI   C5A 1099  11.406   4.457   8.331 -0.2490 -0.1407  0.3979
   69loPI   C6A 1100  11.386   4.306   7.888 -0.4844 -0.0158  0.0330
   69loPI   C1B 1101  11.172   4.188   9.915 -0.1474 -0.1450  0.1466
   69loPI   C2B 1102  11.159   4.076   9.496  0.1244  0.1860 -0.0465
   69loPI   C3B 1103  11.150   4.209   9.100 -0.2705 -0.0060 -0.0420
   69loPI   C4B 1104  11.063   4.211   8.689  0.1480 -0.2576 -0.1077
   70loPI    C1 1105   6.393   6.990  10.914 -0.0489 -0.0202 -0.2037
   70loPI    C2 1106   6.576   6.723  10.679  0.1194  0.1270 -0.2421
   70loPI    C3 1107   6.317   6.599  10.957  0.3582 -0.0941 -0.1135
   70loPI   PO4 1108   6.290   7.163  10.736  0.0231  0.0589 -0.0897
   70loPI   GL1 1109   6.068   7.223  10.236  0.4758  0.2197 -0.1477
   70loPI   GL2 1110   6.243   6.930  10.198  0.0580  0.2013 -0.1828
   70loPI   C1A 1111   6.164   7.196   9.727 -0.4545  0.1227  0.0054
   70loPI   C2A 1112   6.199   7.258   9.254  0.1901  0.0920 -0.0226
   70loPI   C3A 1113   6.104   7.183   8.779  0.0523 -0.0794 -0.1535
   70loPI   C4A 1114   6.093   7.108   8.303  0.2411 -0.0650  0.0167
   70loPI   C5A 1115   5.924   7.221   7.932 -0.1071 -0.1024 -0.1089
   70loPI   C6A 1116   5.694   7.532   7.765 -0.0373  0.1138  0.0939
   70loPI   C1B 1117   6.299   6.749   9.817  0.0618 -0.3658  0.1397
   70loPI   C2B 1118   6.429   6.807   9.396  0.3828 -0.0830  0.2970
   70loPI   C3B 1119   6.363   6.705   8.929 -0.2073  0.1028  0.2149
   70loPI   C4B 1120   6.428   6.681   8.498 -0.0329 -0.1545 -0.0675
   71loPI    C1 1121   0.112   2.259  10.721 -0.0140  0.3383  0.0732
   71loPI    C2 1122  -0.201   2.077  10.891  0.1213 -0.0080 -0.0411
   71loPI    C3 1123   0.105   2.201  11.116  0.0445  0.0467  0.0334
   71loPI   PO4 1124   0.257   2.011  10.466  0.1005  0.1547 -0.0835
   71loPI   GL1 1125   0.403   2.128  10.011  0.0573  0.1742 -0.2006
   71loPI   GL2 1126   0.275   1.805   9.965 -0.1473  0.1549 -0.3460
   71loPI   C1A 1127   0.536   2.384   9.646  0.1689 -0.0436  0.1726
   71loPI   C2A 1128   0.638   2.439   9.197 -0.1833 -0.1337  0.0709
   71loPI   C3A 1129   0.562   2.329   8.812  0.0146  0.0551  0.0871
   71loPI   C4A 1130   0.619   2.393   8.390 -0.2418  0.1176 -0.3335
   71loPI   C5A 1131   0.980   2.508   8.097 -0.1334 -0.2008  0.1542
   71loPI   C6A 1132   1.107   2.085   7.966 -0.2038  0.1383  0.1676
   71loPI   C1B 1133   0.333   1.889   9.566  0.2134 -0.0762 -0.0788
   71loPI   C2B 1134   0.392   1.912   9.125  0.1330  0.2794  0.0803
   71loPI   C3B 1135   0.324   1.858   8.759  0.1510  0.2510  0.2518
   71loPI   C4B 1136   0.377   1.465   8.490  0.2763  0.0034 -0.0176
   72loPI    C1 1137   5.370   8.365  10.824 -0.0852 -0.0735  0.0565
   72loPI    C2 1138   5.312   8.141  11.151 -0.0185  0.0404  0.1471
   72loPI    C3 1139   5.654   8.110  10.946 -0.1035 -0.1086  0.0260
   72loPI   PO4 1140   5.163   8.297  10.613 -0.0106 -0.1248 -0.0351
   72loPI   GL1 1141   5.114   8.450  10.178 -0.1928  0.3036  0.3141
   72loPI   GL2 1142   4.897   8.252  10.201  0.0781 -0.0033  0.1588
   72loPI   C1A 1143   5.408   8.542   9.869 -0.3076 -0.2318  0.0392
   72loPI   C2A 1144   5.520   8.577   9.450  0.1904 -0.2623  0.0475
   72loPI   C3A 1145   5.444   8.537   9.055  0.0164  0.1180 -0.1806
   72loPI   C4A 1146   5.440   8.582   8.657  0.0420 -0.0635 -0.0376
   72loPI   C5A 1147   5.318   8.506   8.260 -0.1259  0.1701 -0.2953
   72loPI   C6A 1148   5.125   8.803   7.848 -0.2014  0.0960  0.3305
   72loPI   C1B 1149   4.926   8.490   9.730  0.1609 -0.2521 -0.0471
   72loPI   C2B 1150   4.957   8.641   9.308 -0.2814 -0.0188 -0.0755
   72loPI   C3B 1151   4.785   8.662   8.964 -0.1506 -0.0768  0.3971
   72loPI   C4B 1152   4.396   8.617   8.706  0.0397  0.0279 -0.1440
   73loPI    C1 1153  15.673  18.149  10.788 -0.1153  0.1179  0.1558
   73loPI    C2 1154  15.277  18.094  10.769 -0.0708 -0.1583 -0.0184
   73loPI    C3 1155  15.485  17.950  11.079 -0.0692 -0.2554 -0.0644
   73loPI   PO4 1156  15.774  18.082  10.580  0.0265 -0.0749 -0.1476
   73loPI   GL1 1157  15.787  17.773  10.366  0.5548 -0.1687  0.1775
   73loPI   GL2 1158  15.898  17.501  10.179 -0.3626 -0.2133  0.0687
   73loPI   C1A 1159  15.814  18.074   9.955 -0.1457  0.0729 -0.0121
   73loPI   C2A 1160  15.752  18.052   9.443  0.2188  0.1386 -0.0679
   73loPI   C3A 1161  15.853  18.271   9.091 -0.0331 -0.2304  0.0041
   73loPI   C4A 1162  16.129  18.026   8.852  0.4348  0.1159  0.1789
   73loPI   C5A 1163  16.401  17.892   8.610 -0.1674  0.1560 -0.3114
   73loPI   C6A 1164  16.327  18.012   8.220 -0.1119 -0.0892  0.1054
   73loPI   C1B 1165  15.734  17.541   9.807 -0.0159 -0.0635  0.0722
   73loPI   C2B 1166  15.846  17.577   9.326 -0.2296 -0.0288  0.1393
   73loPI   C3B 1167  15.653  17.698   8.944 -0.0141 -0.0701  0.1904
   73loPI   C4B 1168  15.360  17.832   8.619 -0.0534 -0.0725  0.0744
   74loPI    C1 1169   7.678   0.375  10.732 -0.1529  0.0284 -0.0848
   74loPI    C2 1170   7.446   0.550  11.007 -0.0765 -0.0089  0.0042
   74loPI    C3 1171   7.819   0.442  11.100 -0.0979 -0.1518 -0.0723
   74loPI   PO4 1172   7.601   0.208  10.616  0.2047 -0.0464 -0.0749
   74loPI   GL1 1173   7.554   0.011  10.309 -0.1476 -0.0901 -0.1240
   74loPI   GL2 1174   7.639  -0.319  10.303 -0.1570 -0.0087 -0.3891
   74loPI   C1A 1175   7.463  -0.008   9.910  0.1932  0.2790 -0.0286
   74loPI   C2A 1176   7.472   0.019   9.489  0.1438 -0.0243  0.1540
   74loPI   C3A 1177   7.403  -0.100   9.063  0.5084  0.3662 -0.0282
   74loPI   C4A 1178   7.696  -0.087   8.729 -0.1009 -0.1125  0.0801
   74loPI   C5A 1179   8.127  -0.257   8.593  0.0285  0.1174  0.2677
   74loPI   C6A 1180   8.489  -0.282   8.502  0.1791 -0.1532 -0.2672
   74loPI   C1B 1181   7.718  -0.648  10.058 -0.1151  0.3934  0.0178
   74loPI   C2B 1182   7.697  -0.643   9.586 -0.0682  0.0127 -0.0292
   74loPI   C3B 1183   7.811  -0.637   9.150  0.1165  0.1088 -0.3089
   74loPI   C4B 1184   7.755  -0.594   8.730 -0.1594  0.0406 -0.1199
   75loPI    C1 1185  13.258   8.896  10.727  0.0670 -0.0807 -0.1879
   75loPI    C2 1186  13.095   9.135  11.003  0.1672 -0.0785 -0.1301
   75loPI    C3 1187  12.958   8.762  10.956  0.0589 -0.0338 -0.1711
   75loPI   PO4 1188  13.500   9.099  10.684 -0.1437 -0.3041 -0.1890
   75loPI   GL1 1189  13.556   9.354  10.244 -0.1170  0.0924 -0.0502
   75loPI   GL2 1190  13.836   9.306  10.297 -0.3708  0.1116  0.0070
   75loPI   C1A 1191  13.536   9.443   9.878  0.1267  0.3824  0.2143
   75loPI   C2A 1192  13.534   9.435   9.396  0.2111 -0.4529  0.3827
   75loPI   C3A 1193  13.512   9.490   8.940  0.1732  0.2047 -0.2562
   75loPI   C4A 1194  13.679   9.598   8.526 -0.0799  0.1272  0.0664
   75loPI   C5A 1195  13.807   9.926   8.284  0.3080  0.1424 -0.1003
   75loPI   C6A 1196  13.692  10.063   7.969 -0.1518 -0.1050 -0.3690
   75loPI   C1B 1197  14.016   9.357   9.923  0.0065 -0.0460  0.0250
   75loPI   C2B 1198  14.019   9.398   9.551  0.1626 -0.2631 -0.1066
   75loPI   C3B 1199  14.039   9.388   9.084  0.4268  0.3676 -0.2899
   75loPI   C4B 1200  14.158   9.504   8.619 -0.0047 -0.1478  0.1682
   76loPI    C1 1201  12.428  16.516  10.541 -0.0303  0.2462 -0.0751
   76loPI    C2 1202  12.388  16.572  10.935 -0.2456  0.3501 -0.1100
   76loPI    C3 1203  12.227  16.249  10.761 -0.0335  0.2335 -0.0933
   76loPI   PO4 1204  12.299  16.716  10.377  0.2369  0.0778  0.0740
   76loPI   GL1 1205  11.937  16.706  10.121 -0.2909  0.2172 -0.5509
   76loPI   GL2 1206  11.697  16.596   9.935  0.2731  0.2882  0.4041
   76loPI   C1A 1207  11.970  16.923   9.731 -0.0745  0.1852 -0.0084
   76loPI   C2A 1208  12.093  16.775   9.286  0.0286  0.0450 -0.0896
   76loPI   C3A 1209  12.110  16.898   8.926 -0.0495  0.2463  0.0090
   76loPI   C4A 1210  12.180  17.034   8.522  0.1508  0.1867  0.0758
   76loPI   C5A 1211  12.026  17.171   8.120 -0.0989 -0.0025 -0.2313
   76loPI   C6A 1212  12.042  17.481   7.894 -0.1513  0.3254  0.1166
   76loPI   C1B 1213  11.881  16.354   9.541  0.2400 -0.2620  0.1253
   76loPI   C2B 1214  12.029  16.343   9.054 -0.0199  0.2313  0.0531
   76loPI   C3B 1215  12.067  16.438   8.645 -0.2272  0.1532 -0.0641
   76loPI   C4B 1216  11.834  16.712   8.543 -0.0918  0.1000  0.1361
   77loPI    C1 1217   8.639  10.882  10.622  0.0852  0.0997  0.0113
   77loPI    C2 1218   8.938  10.618  10.597 -0.0957 -0.1124  0.0546
   77loPI    C3 1219   8.604  10.523  10.795 -0.0881  0.2211  0.2335
   77loPI   PO4 1220   8.713  11.011  10.439  0.0037  0.0123  0.1352
   77loPI   GL1 1221   8.663  10.877   9.911 -0.0784 -0.1502 -0.0297
   77loPI   GL2 1222   8.955  11.000   9.985  0.2218  0.1179 -0.3759
   77loPI   C1A 1223   8.551  10.775   9.507 -0.4859 -0.3881  0.2251
   77loPI   C2A 1224   8.472  10.662   9.026 -0.0388  0.2036 -0.1513
   77loPI   C3A 1225   8.333  10.743   8.560  0.0169  0.2606  0.0508
   77loPI   C4A 1226   8.297  10.688   8.124 -0.2042  0.0428  0.0977
   77loPI   C5A 1227   8.445  10.896   7.781 -0.0850  0.1463 -0.0746
   77loPI   C6A 1228   8.375  11.109   7.336  0.0946  0.1073 -0.0099
   77loPI   C1B 1229   9.080  10.695   9.604 -0.0793  0.2760  0.3081
   77loPI   C2B 1230   8.942  10.596   9.166 -0.0497  0.3856  0.0107
   77loPI   C3B 1231   8.829  10.589   8.655 -0.0401 -0.0822  0.3987
   77loPI   C4B 1232   8.817  10.747   8.164 -0.0711  0.0439 -0.2884
   78loPI    C1 1233   6.214  16.759  10.861  0.2687  0.1438  0.1951
   78loPI    C2 1234   5.964  17.071  10.853  0.1447  0.0414 -0.0567
   78loPI    C3 1235   5.885  16.758  11.088  0.2242  0.1602  0.1312
   78loPI   PO4 1236   6.264  16.701  10.556 -0.1136 -0.1933 -0.0861
   78loPI   GL1 1237   6.348  16.713  10.181 -0.3642  0.0005  0.0057
   78loPI   GL2 1238   6.564  16.710   9.909  0.1110  0.4360  0.0667
   78loPI   C1A 1239   6.051  16.722   9.832  0.0947  0.0343  0.5407
   78loPI   C2A 1240   6.295  16.626   9.454 -0.2493  0.1704 -0.1232
   78loPI   C3A 1241   6.200  16.731   9.032  0.0838 -0.0007  0.1216
   78loPI   C4A 1242   6.117  16.677   8.490 -0.2577  0.0175 -0.1000
   78loPI   C5A 1243   5.748  16.505   8.219 -0.1399  0.1328  0.1881
   78loPI   C6A 1244   5.331  16.313   8.210 -0.1061 -0.0300  0.0152
   78loPI   C1B 1245   6.748  16.695   9.503 -0.2520 -0.0602  0.1381
   78loPI   C2B 1246   6.696  16.711   9.054 -0.1523 -0.0934 -0.2356
   78loPI   C3B 1247   6.654  16.825   8.638 -0.3156 -0.1957 -0.1910
   78loPI   C4B 1248   6.502  17.224   8.363 -0.4975 -0.0209  0.1512
   79loPI    C1 1249  17.553   4.520  10.138 -0.0732  0.0260  0.2309
   79loPI    C2 1250  17.236   4.598   9.907  0.0092 -0.1262  0.0635
   79loPI    C3 1251  17.252   4.742  10.280 -0.2907 -0.1797  0.0999
   79loPI   PO4 1252  17.700   4.386   9.960 -0.3051 -0.0143  0.0041
   79loPI   GL1 1253  17.726   4.279   9.605 -0.0565 -0.4364 -0.1450
   79loPI   GL2 1254  17.545   4.256   9.423  0.4796 -0.1130  0.2098
   79loPI   C1A 1255  17.920   3.938   9.366 -0.0056 -0.1098  0.3224
   79loPI   C2A 1256  17.726   3.892   9.054  0.1115 -0.1833 -0.0599
   79loPI   C3A 1257  17.536   3.800   8.641 -0.1729 -0.1289  0.1560
   79loPI   C4A 1258  17.609   3.553   8.271 -0.1459  0.0571  0.0108
   79loPI   C5A 1259  17.323   3.228   8.112  0.1989  0.0765 -0.2116
   79loPI   C6A 1260  16.986   2.888   7.976  0.0343 -0.1349 -0.3086
   79loPI   C1B 1261  17.703   4.452   9.133 -0.1010 -0.0226 -0.0042
   79loPI   C2B 1262  17.761   4.291   8.750 -0.1494  0.1552  0.1631
   79loPI   C3B 1263  17.825   4.217   8.316 -0.0770  0.0840  0.1649
   79loPI   C4B 1264  17.717   3.943   8.050 -0.0580  0.3003 -0.1627
   80loPI    C1 1265   0.870   3.830  10.727  0.2368 -0.0430 -0.0900
   80loPI    C2 1266   1.202   4.033  10.635  0.0948  0.3306  0.1958
   80loPI    C3 1267   1.026   4.089  10.989 -0.2578  0.1130  0.0604
   80loPI   PO4 1268   0.723   3.841  10.433  0.1863  0.0994 -0.3217
   80loPI   GL1 1269   0.869   3.633  10.065  0.2734 -0.0295 -0.1109
   80loPI   GL2 1270   1.102   3.692   9.953 -0.1604 -0.2036 -0.1893
   80loPI   C1A 1271   0.795   3.775   9.599  0.0661 -0.0320  0.0035
   80loPI   C2A 1272   0.843   3.759   9.169  0.2415 -0.0115  0.0940
   80loPI   C3A 1273   0.960   3.815   8.730  0.3199  0.0531  0.1462
   80loPI   C4A 1274   0.847   3.736   8.233  0.1897  0.2958 -0.0231
   80loPI   C5A 1275   0.455   3.562   8.027  0.0446 -0.0438  0.1105
   80loPI   C6A 1276   0.166   3.238   7.826  0.1545  0.2133 -0.2603
   80loPI   C1B 1277   1.348   3.710   9.592  0.2551  0.0920 -0.2693
   80loPI   C2B 1278   1.414   3.765   9.081 -0.1512  0.0929  0.1705
   80loPI   C3B 1279   1.441   3.816   8.702 -0.0494  0.2590  0.0742
   80loPI   C4B 1280   1.391   3.898   8.243 -0.3018 -0.2125 -0.3096
   81loPI    C1 1281   9.729  14.978  10.560 -0.0082  0.2815  0.0172
   81loPI    C2 1282   9.725  15.045  10.954 -0.2716 -0.0398  0.0737
   81loPI    C3 1283   9.898  14.715  10.809  0.0414  0.1970 -0.1046
   81loPI   PO4 1284   9.484  15.265  10.492  0.0594 -0.3098  0.2384
   81loPI   GL1 1285   9.445  15.616  10.168  0.0031 -0.0245  0.2638
   81loPI   GL2 1286   9.317  15.375   9.938  0.1513  0.0744  0.0383
   81loPI   C1A 1287   9.403  15.817   9.720  0.1982 -0.3715  0.2771
   81loPI   C2A 1288   9.399  15.839   9.324 -0.3481 -0.1456  0.1555
   81loPI   C3A 1289   9.500  15.876   8.907 -0.2483 -0.0288  0.3468
   81loPI   C4A 1290   9.447  15.584   8.538 -0.1522 -0.2840 -0.0200
   81loPI   C5A 1291   9.432  15.374   8.291  0.0714 -0.1551 -0.3894
   81loPI   C6A 1292   9.441  14.844   8.175  0.0654  0.1038 -0.2851
   81loPI   C1B 1293   9.448  15.232   9.463 -0.0782  0.3386  0.1243
   81loPI   C2B 1294   9.385  15.015   9.113 -0.0885 -0.3323  0.1337
   81loPI   C3B 1295   9.329  15.057   8.644  0.3211 -0.0680  0.0448
   81loPI   C4B 1296   9.003  15.020   8.347  0.3333 -0.0570  0.0071
   82loPI    C1 1297  10.262   3.938  11.009  0.0345 -0.1233 -0.1409
   82loPI    C2 1298   9.902   3.826  11.142  0.1443 -0.0614  0.2210
   82loPI    C3 1299  10.066   4.166  11.273  0.2983 -0.0443 -0.0094
   82loPI   PO4 1300  10.309   3.834  10.783 -0.0126  0.1284  0.0303
   82loPI   GL1 1301  10.241   3.524  10.487  0.0112  0.1586  0.0982
   82loPI   GL2 1302  10.591   3.543  10.332 -0.2273  0.0070 -0.1095
   82loPI   C1A 1303  10.144   3.330  10.194  0.1712  0.1687 -0.0710
   82loPI   C2A 1304  10.117   3.333   9.827 -0.1522  0.2180  0.1198
   82loPI   C3A 1305  10.027   3.306   9.325 -0.0631  0.0503  0.2080
   82loPI   C4A 1306   9.945   3.481   8.939  0.3441  0.1028 -0.1572
   82loPI   C5A 1307   9.982   3.607   8.533 -0.1723 -0.2684 -0.1125
   82loPI   C6A 1308  10.139   3.874   8.344  0.1214 -0.1230 -0.0926
   82loPI   C1B 1309  10.595   3.577   9.954 -0.3466 -0.0521  0.1001
   82loPI   C2B 1310  10.561   3.584   9.575  0.2102  0.1869  0.3870
   82loPI   C3B 1311  10.452   3.570   9.153  0.1563  0.0361  0.4426
   82loPI   C4B 1312  10.529   3.586   8.758 -0.1211  0.0733 -0.1021
   83loPI    C1 1313  13.952   8.352  10.766  0.0364  0.0297  0.0525
   83loPI    C2 1314  13.757   8.082  10.986  0.0691  0.0816  0.1460
   83loPI    C3 1315  13.933   8.394  11.163  0.2517  0.0261  0.0646
   83loPI   PO4 1316  13.832   8.324  10.552 -0.0961  0.0915 -0.0251
   83loPI   GL1 1317  13.971   8.457  10.065  0.0210 -0.0337 -0.0189
   83loPI   GL2 1318  14.135   8.244  10.182  0.0267 -0.0567  0.1436
   83loPI   C1A 1319  13.921   8.553   9.678 -0.1598  0.1868 -0.2465
   83loPI   C2A 1320  13.985   8.495   9.212  0.3545  0.0494 -0.0925
   83loPI   C3A 1321  14.002   8.563   8.766 -0.1138 -0.2393  0.0070
   83loPI   C4A 1322  13.939   8.735   8.439  0.1828 -0.0340  0.2175
   83loPI   C5A 1323  13.798   9.141   8.167  0.1267 -0.2737  0.3626
   83loPI   C6A 1324  13.713   9.515   7.922  0.1274 -0.2100  0.2545
   83loPI   C1B 1325  14.389   8.522   9.833 -0.0728  0.2069  0.1542
   83loPI   C2B 1326  14.404   8.435   9.448  0.1551 -0.0622 -0.0685
   83loPI   C3B 1327  14.507   8.567   9.005  0.1524 -0.4323  0.1821
   83loPI   C4B 1328  14.550   8.650   8.566  0.0484 -0.2245 -0.0788
   84loPI    C1 1329   1.372  17.572  10.914 -0.1541 -0.0277 -0.1084
   84loPI    C2 1330   0.980  17.629  10.862 -0.1090  0.3537 -0.0604
   84loPI    C3 1331   1.158  17.756  11.197  0.0416  0.1046 -0.0438
   84loPI   PO4 1332   1.422  17.680  10.554 -0.0572 -0.2550  0.2307
   84loPI   GL1 1333   1.601  17.531  10.251  0.4491  0.0157 -0.1837
   84loPI   GL2 1334   1.905  17.645  10.302 -0.1520  0.0084  0.4713
   84loPI   C1A 1335   1.755  17.351   9.948  0.3547  0.0186  0.0261
   84loPI   C2A 1336   1.834  17.356   9.519  0.0089  0.1429 -0.0984
   84loPI   C3A 1337   1.866  17.413   9.076  0.1283 -0.0588 -0.3210
   84loPI   C4A 1338   1.902  17.267   8.692  0.2095 -0.0340 -0.0201
   84loPI   C5A 1339   1.917  17.367   8.341 -0.1484  0.1141  0.2557
   84loPI   C6A 1340   2.235  17.513   8.153  0.0136 -0.3497 -0.0124
   84loPI   C1B 1341   2.082  17.791   9.884 -0.0631 -0.0462  0.1346
   84loPI   C2B 1342   2.061  17.810   9.462  0.0034  0.0626 -0.0102
   84loPI   C3B 1343   2.115  17.834   9.009 -0.1226  0.1430  0.2919
   84loPI   C4B 1344   2.242  17.782   8.578 -0.2037  0.0817 -0.2482
   85loPI    C1 1345   7.705   0.843  10.703 -0.2468 -0.2749  0.0986
   85loPI    C2 1346   8.074   0.899  10.848 -0.0873 -0.0867 -0.3589
   85loPI    C3 1347   7.754   1.007  11.064  0.1292 -0.0795 -0.0354
   85loPI   PO4 1348   7.690   0.929  10.429 -0.1931  0.1202 -0.0140
   85loPI   GL1 1349   7.591   1.162  10.090 -0.2677 -0.1746 -0.1618
   85loPI   GL2 1350   7.319   0.996  10.065 -0.1780 -0.1205  0.1097
   85loPI   C1A 1351   7.784   1.283   9.723 -0.0497  0.0229  0.1164
   85loPI   C2A 1352   7.711   1.250   9.264 -0.4176 -0.0253  0.1107
   85loPI   C3A 1353   7.766   1.267   8.861  0.1983  0.1482 -0.1193
   85loPI   C4A 1354   7.769   0.917   8.561  0.1559  0.0513  0.0391
   85loPI   C5A 1355   7.790   0.670   8.235 -0.3041  0.0457 -0.2090
   85loPI   C6A 1356   7.794   0.553   7.851 -0.0578  0.0087  0.0006
   85loPI   C1B 1357   7.259   1.229   9.634 -0.1036 -0.1822 -0.0300
   85loPI   C2B 1358   7.222   1.288   9.206  0.1239 -0.3756 -0.0418
   85loPI   C3B 1359   7.187   1.329   8.856 -0.5307  0.0525 -0.2483
   85loPI   C4B 1360   7.418   1.273   8.480 -0.0271 -0.1907 -0.1659
   86loPI    C1 1361   5.379  17.759  10.654  0.1313 -0.4036 -0.0238
   86loPI    C2 1362   5.567  17.528  10.920  0.2439  0.0209  0.2747
   86loPI    C3 1363   5.234  17.723  11.025  0.1239 -0.0389  0.0120
   86loPI   PO4 1364   5.522  17.924  10.538  0.0358  0.1808 -0.1046
   86loPI   GL1 1365   5.653  18.042  10.168  0.0701  0.1642 -0.2022
   86loPI   GL2 1366   5.945  18.038  10.034 -0.0914 -0.2443  0.3491
   86loPI   C1A 1367   5.506  18.157   9.868  0.1400 -0.0575  0.0011
   86loPI   C2A 1368   5.370  18.177   9.443  0.0496 -0.0403  0.0377
   86loPI   C3A 1369   5.386  18.098   8.972 -0.1567  0.2775 -0.1205
   86loPI   C4A 1370   5.400  17.850   8.575  0.0229 -0.1158  0.0492
   86loPI   C5A 1371   5.660  17.701   8.234 -0.1271  0.1837 -0.0441
   86loPI   C6A 1372   5.720  17.902   7.889  0.1036  0.0465 -0.2842
   86loPI   C1B 1373   5.944  18.112   9.568  0.0927 -0.0608 -0.0559
   86loPI   C2B 1374   5.861  18.014   9.085  0.0682  0.1963  0.2426
   86loPI   C3B 1375   5.806  18.130   8.652 -0.1154 -0.0644  0.1459
   86loPI   C4B 1376   5.515  18.273   8.248 -0.2440 -0.1073  0.1649
   87loPI    C1 1377  11.191   8.295  10.963  0.0863 -0.0323  0.1547
   87loPI    C2 1378  11.005   8.155  11.288 -0.0130 -0.1300  0.0564
   87loPI    C3 1379  11.092   8.544  11.259 -0.1849 -0.0866  0.1120
   87loPI   PO4 1380  11.029   8.210  10.746  0.0043  0.1581 -0.0153
   87loPI   GL1 1381  11.065   8.056  10.449  0.0354  0.2695  0.0648
   87loPI   GL2 1382  11.346   7.971  10.392  0.1520  0.1566  0.0458
   87loPI   C1A 1383  11.133   8.290  10.058 -0.1336  0.0164  0.1305
   87loPI   C2A 1384  11.195   8.337   9.683 -0.0658 -0.0455 -0.0963
   87loPI   C3A 1385  11.061   8.372   9.281 -0.0297 -0.0865 -0.0897
   87loPI   C4A 1386  11.088   8.416   8.752 -0.3540  0.1310 -0.0193
   87loPI   C5A 1387  11.014   8.360   8.300 -0.0657 -0.2672 -0.1509
   87loPI   C6A 1388  10.580   8.204   8.187 -0.1135  0.5358 -0.0077
   87loPI   C1B 1389  11.324   7.845   9.919  0.2539  0.1359 -0.0870
   87loPI   C2B 1390  11.306   7.894   9.427 -0.1957 -0.1164  0.0301
   87loPI   C3B 1391  11.302   7.940   9.060  0.2865 -0.0765  0.2875
   87loPI   C4B 1392  11.320   7.924   8.589  0.1568  0.0752 -0.0491
   88loPI    C1 1393   5.455  13.672  10.937  0.2329  0.1070 -0.0815
   88loPI    C2 1394   5.717  13.434  11.123 -0.0715 -0.1037  0.0860
   88loPI    C3 1395   5.606  13.779  11.291  0.0852 -0.0208  0.0213
   88loPI   PO4 1396   5.276  13.550  10.754 -0.0838 -0.1820 -0.0654
   88loPI   GL1 1397   5.314  13.462  10.437  0.0586 -0.0732  0.2571
   88loPI   GL2 1398   5.216  13.722  10.309 -0.1846 -0.4276 -0.0559
   88loPI   C1A 1399   5.675  13.587  10.057  0.0983 -0.1469  0.2793
   88loPI   C2A 1400   5.852  13.882   9.695 -0.3654 -0.1929 -0.1409
   88loPI   C3A 1401   5.891  14.000   9.293 -0.2413 -0.0695 -0.2220
   88loPI   C4A 1402   5.922  14.117   8.843  0.0246  0.0419  0.1969
   88loPI   C5A 1403   5.982  14.169   8.425 -0.2025 -0.1874  0.0376
   88loPI   C6A 1404   6.306  14.323   8.086 -0.1799 -0.2937 -0.2564
   88loPI   C1B 1405   5.368  13.919   9.881 -0.1529  0.2254 -0.1235
   88loPI   C2B 1406   5.391  14.058   9.467 -0.0100  0.0586 -0.2332
   88loPI   C3B 1407   5.432  14.145   9.041 -0.0855 -0.1644  0.0207
   88loPI   C4B 1408   5.327  14.247   8.541 -0.1166 -0.0406 -0.1782
   89loPI    C1 1409  17.868  12.503  10.702 -0.1470 -0.1006 -0.1897
   89loPI    C2 1410  18.080  12.194  10.564  0.0594  0.0497 -0.2134
   89loPI    C3 1411  18.048  12.254  10.958 -0.0951 -0.0793 -0.2054
   89loPI   PO4 1412  17.923  12.654  10.588 -0.0657 -0.0995  0.4134
   89loPI   GL1 1413  18.047  12.838  10.203 -0.0178 -0.0373 -0.2553
   89loPI   GL2 1414  17.834  12.658  10.060 -0.0119  0.0071 -0.1086
   89loPI   C1A 1415  18.366  12.829   9.902  0.3433  0.0432  0.2455
   89loPI   C2A 1416  18.423  12.901   9.484  0.4850 -0.1531  0.2906
   89loPI   C3A 1417  18.455  12.929   9.038 -0.0297  0.2501  0.0508
   89loPI   C4A 1418  18.488  13.063   8.680 -0.2222 -0.1420  0.1301
   89loPI   C5A 1419  18.451  13.048   8.259 -0.2246 -0.1243  0.0211
   89loPI   C6A 1420  18.589  12.999   7.808  0.2381  0.1852  0.1409
   89loPI   C1B 1421  17.938  12.927   9.749 -0.1550 -0.4330  0.1362
   89loPI   C2B 1422  17.881  12.985   9.287 -0.2740 -0.0308 -0.4009
   89loPI   C3B 1423  17.945  12.933   8.779  0.0763 -0.1343  0.1282
   89loPI   C4B 1424  17.823  13.008   8.367  0.1598  0.3316  0.1147
   90loPI    C1 1425  13.382   4.867  10.842  0.1572 -0.1931 -0.2285
   90loPI    C2 1426  13.158   5.133  11.039  0.5100  0.0881 -0.1962
   90loPI    C3 1427  13.130   4.744  11.128  0.2066  0.1429 -0.0348
   90loPI   PO4 1428  13.368   4.851  10.578  0.0371  0.2276 -0.3330
   90loPI   GL1 1429  13.666   4.914  10.193  0.0877 -0.2324 -0.0905
   90loPI   GL2 1430  13.828   4.682  10.318  0.2319  0.2147 -0.0765
   90loPI   C1A 1431  13.563   4.839   9.798  0.3709  0.2920 -0.0197
   90loPI   C2A 1432  13.527   4.854   9.348 -0.1383  0.4827 -0.1333
   90loPI   C3A 1433  13.533   4.868   8.884 -0.1498 -0.2162 -0.1030
   90loPI   C4A 1434  13.552   4.928   8.495 -0.2011  0.0370  0.0906
   90loPI   C5A 1435  13.479   4.867   8.034  0.4309  0.1719 -0.0881
   90loPI   C6A 1436  13.421   4.552   7.742  0.0184  0.2063  0.1778
   90loPI   C1B 1437  13.928   4.481   9.892 -0.0913  0.4166 -0.1954
   90loPI   C2B 1438  13.923   4.516   9.506  0.0754 -0.0028 -0.2091
   90loPI   C3B 1439  13.862   4.493   9.044 -0.0848  0.0679  0.1923
   90loPI   C4B 1440  13.850   4.538   8.625 -0.3930  0.0873  0.1683
   91loPI    C1 1441   8.365  15.019  10.554  0.2285  0.0883 -0.0409
   91loPI    C2 1442   8.115  15.293  10.405  0.0999  0.0270  0.0598
   91loPI    C3 1443   8.053  15.145  10.771  0.1240 -0.1924 -0.0231
   91loPI   PO4 1444   8.587  15.075  10.490  0.3478  0.2737 -0.0505
   91loPI   GL1 1445   8.631  15.331  10.206 -0.1324  0.1275  0.0455
   91loPI   GL2 1446   8.357  15.232   9.994 -0.0301  0.1387  0.0034
   91loPI   C1A 1447   8.776  15.197   9.764 -0.3318 -0.3767  0.2408
   91loPI   C2A 1448   8.879  15.143   9.340  0.1674 -0.0086  0.1593
   91loPI   C3A 1449   8.850  15.012   8.891 -0.1946 -0.0797 -0.0133
   91loPI   C4A 1450   8.531  15.103   8.593  0.1334 -0.0775  0.2085
   91loPI   C5A 1451   8.634  15.335   8.131  0.0798 -0.0527  0.1448
   91loPI   C6A 1452   8.569  15.043   7.810 -0.0016 -0.0133 -0.1497
   91loPI   C1B 1453   8.351  15.196   9.504 -0.0341  0.2156 -0.0573
   91loPI   C2B 1454   8.365  15.213   9.107  0.2799  0.0459  0.2129
   91loPI   C3B 1455   8.302  15.540   8.688  0.2372  0.2585 -0.0295
   91loPI   C4B 1456   8.566  15.777   8.386  0.2470  0.0064 -0.2471
   92loPI    C1 1457   1.058   6.356  10.757  0.1481  0.1772 -0.0027
   92loPI    C2 1458   1.239   6.683  10.897  0.3285  0.0448  0.0776
   92loPI    C3 1459   1.231   6.350  11.117  0.1414 -0.0044 -0.0016
   92loPI   PO4 1460   1.154   6.369  10.501  0.4097  0.0341 -0.1430
   92loPI   GL1 1461   1.203   6.045  10.231  0.1215  0.3709  0.1147
   92loPI   GL2 1462   1.490   5.974  10.442 -0.0912  0.0148  0.2046
   92loPI   C1A 1463   1.190   6.033   9.743  0.1320  0.0701 -0.1709
   92loPI   C2A 1464   1.261   6.050   9.215 -0.1685  0.1424  0.2085
   92loPI   C3A 1465   1.173   6.097   8.880  0.1496 -0.0931  0.2034
   92loPI   C4A 1466   1.114   6.220   8.439 -0.1602  0.1435  0.0902
   92loPI   C5A 1467   1.306   6.590   8.283  0.1344 -0.4041  0.0684
   92loPI   C6A 1468   1.293   7.033   8.443 -0.2398  0.1600 -0.2133
   92loPI   C1B 1469   1.677   6.046   9.950  0.0932  0.1001  0.0514
   92loPI   C2B 1470   1.769   6.061   9.561 -0.1875 -0.1114 -0.4255
   92loPI   C3B 1471   1.757   5.973   9.196 -0.1846  0.1896 -0.0938
   92loPI   C4B 1472   1.738   5.971   8.790  0.0400 -0.0518 -0.2103
   93loPI    C1 1473  13.455   8.488  11.054  0.1944 -0.3071 -0.0548
   93loPI    C2 1474  13.123   8.348  11.228  0.0397 -0.0993 -0.1781
   93loPI    C3 1475  13.482   8.236  11.363 -0.0789 -0.1610  0.0920
   93loPI   PO4 1476  13.403   8.441  10.761  0.1501  0.1772 -0.0208
   93loPI   GL1 1477  13.484   8.594  10.312 -0.0338 -0.2344 -0.3802
   93loPI   GL2 1478  13.710   8.799  10.370  0.0872 -0.1686  0.1718
   93loPI   C1A 1479  13.456   8.545   9.930 -0.0066 -0.0548  0.0260
   93loPI   C2A 1480  13.545   8.538   9.368 -0.0550 -0.1327 -0.1089
   93loPI   C3A 1481  13.412   8.498   8.986  0.3390 -0.0286 -0.2591
   93loPI   C4A 1482  13.478   8.665   8.668 -0.0056 -0.0614  0.0066
   93loPI   C5A 1483  13.447   8.797   8.234 -0.0806 -0.0392 -0.2833
   93loPI   C6A 1484  13.689   8.702   7.902 -0.0105  0.1467  0.2626
   93loPI   C1B 1485  13.730   8.939  10.001 -0.3252  0.2495  0.1030
   93loPI   C2B 1486  13.714   8.980   9.534 -0.0310 -0.1176 -0.1160
   93loPI   C3B 1487  13.721   8.933   9.078  0.1204 -0.1497 -0.0404
   93loPI   C4B 1488  13.761   9.158   8.708 -0.2623 -0.0875 -0.0684
   94loPI    C1 1489  18.075   7.202  10.568  0.1318  0.1573 -0.1384
   94loPI    C2 1490  18.198   7.125  10.941  0.3315  0.0349 -0.2277
   94loPI    C3 1491  18.058   6.829  10.712  0.2050  0.1107 -0.2495
   94loPI   PO4 1492  18.318   7.390  10.537 -0.1797 -0.1374  0.0696
   94loPI   GL1 1493  18.488   7.728  10.218  0.0680 -0.0125  0.2789
   94loPI   GL2 1494  18.378   7.515  10.091 -0.4055 -0.0443 -0.0312
   94loPI   C1A 1495  18.475   7.930   9.802 -0.2449  0.0467 -0.1634
   94loPI   C2A 1496  18.539   7.997   9.430 -0.0965  0.0971 -0.1394
   94loPI   C3A 1497  18.844   8.052   9.034  0.0472 -0.2483 -0.0321
   94loPI   C4A 1498  19.080   7.988   8.689  0.0854  0.0545 -0.0965
   94loPI   C5A 1499  19.424   7.941   8.436  0.1819  0.2311 -0.0740
   94loPI   C6A 1500  19.620   8.279   8.170  0.0100  0.2640 -0.1831
   94loPI   C1B 1501  18.361   7.508   9.554  0.0181 -0.2258 -0.1170
   94loPI   C2B 1502  18.425   7.713   9.099  0.0153 -0.0487  0.1683
   94loPI   C3B 1503  18.621   7.709   8.668 -0.1433 -0.1152 -0.0573
   94loPI   C4B 1504  18.802   7.717   8.234  0.0246  0.0553 -0.0753
   95loPI    C1 1505   1.856   7.539  10.633 -0.2351  0.1711 -0.1527
   95loPI    C2 1506   1.853   7.932  10.709  0.3231  0.1388  0.0889
   95loPI    C3 1507   2.178   7.714  10.794 -0.0370 -0.4099  0.1132
   95loPI   PO4 1508   1.858   7.391  10.360 -0.2553 -0.1180  0.0152
   95loPI   GL1 1509   2.003   7.361   9.974 -0.2230 -0.1712  0.1381
   95loPI   GL2 1510   1.856   7.582   9.904 -0.1342  0.2048  0.1979
   95loPI   C1A 1511   2.449   7.438   9.709 -0.2503 -0.0250 -0.1630
   95loPI   C2A 1512   2.549   7.292   9.349  0.1950  0.1543  0.2123
   95loPI   C3A 1513   2.476   7.238   8.926 -0.0365 -0.0098  0.3499
   95loPI   C4A 1514   2.587   7.091   8.504 -0.0103 -0.0345  0.0185
   95loPI   C5A 1515   2.656   7.078   8.017  0.0911  0.2795  0.0882
   95loPI   C6A 1516   2.939   6.767   7.883  0.4138 -0.1236  0.0237
   95loPI   C1B 1517   2.051   7.672   9.581  0.0169  0.0617  0.1324
   95loPI   C2B 1518   2.189   7.711   9.189  0.1193  0.1754  0.1017
   95loPI   C3B 1519   2.236   7.652   8.722  0.1183 -0.1908  0.2065
   95loPI   C4B 1520   2.203   7.557   8.268  0.2694 -0.0616  0.0212
   96loPI    C1 1521  15.152   3.677  10.351 -0.1602  0.1228  0.1000
   96loPI    C2 1522  14.973   3.344  10.219  0.0527  0.0341  0.0317
   96loPI    C3 1523  15.094   3.368  10.599 -0.0139  0.0555  0.0515
   96loPI   PO4 1524  15.004   3.836  10.335  0.1824  0.0134 -0.2540
   96loPI   GL1 1525  14.666   4.042  10.013  0.2200 -0.0375  0.3685
   96loPI   GL2 1526  14.825   3.782   9.854 -0.3307  0.1248  0.0854
   96loPI   C1A 1527  14.305   4.169   9.659 -0.2930  0.2591 -0.0603
   96loPI   C2A 1528  14.283   4.189   9.150 -0.2566 -0.2011  0.1766
   96loPI   C3A 1529  14.222   4.215   8.682 -0.2638 -0.2542 -0.0413
   96loPI   C4A 1530  14.293   4.224   8.262  0.1244  0.0521  0.0337
   96loPI   C5A 1531  14.464   4.306   7.935  0.0500 -0.0491 -0.0307
   96loPI   C6A 1532  14.620   4.456   7.501  0.0801  0.0319  0.0873
   96loPI   C1B 1533  14.652   3.904   9.487 -0.1761 -0.2983  0.0318
   96loPI   C2B 1534  14.650   3.901   9.084  0.1703 -0.0721  0.2871
   96loPI   C3B 1535  14.589   3.857   8.644  0.0204  0.1159  0.2023
   96loPI   C4B 1536  14.552   3.841   8.118 -0.1234  0.1430 -0.4897
   97loPI    C1 1537  10.279  13.305  10.490  0.0587  0.1706 -0.0681
   97loPI    C2 1538  10.627  13.443  10.350  0.0776  0.1665 -0.0251
   97loPI    C3 1539  10.618  13.107  10.567  0.0589  0.2170  0.0521
   97loPI   PO4 1540  10.137  13.361  10.240  0.0804  0.0115 -0.1542
   97loPI   GL1 1541  10.209  13.583   9.855 -0.0813 -0.2359  0.1960
   97loPI   GL2 1542  10.118  13.255   9.748  0.0228  0.0432  0.0853
   97loPI   C1A 1543  10.142  13.640   9.359  0.3612  0.2791 -0.0195
   97loPI   C2A 1544   9.950  13.504   9.077  0.1903  0.0580 -0.0824
   97loPI   C3A 1545  10.063  13.691   8.668  0.0593  0.0021  0.0302
   97loPI   C4A 1546  10.084  13.696   8.309 -0.1070  0.2027  0.2799
   97loPI   C5A 1547   9.814  13.488   8.017  0.1092 -0.1873  0.2106
   97loPI   C6A 1548  10.014  13.254   7.652 -0.1152 -0.0710 -0.0581
   97loPI   C1B 1549  10.112  12.937   9.352 -0.0437 -0.0827 -0.1839
   97loPI   C2B 1550  10.141  12.715   9.054 -0.1011  0.4106  0.0262
   97loPI   C3B 1551  10.078  12.590   8.650 -0.2203  0.0828 -0.1102
   97loPI   C4B 1552  10.169  12.314   8.255 -0.0821  0.3006  0.0430
   98loPI    C1 1553   4.130   9.556  10.607 -0.1998 -0.1656  0.0130
   98loPI    C2 1554   4.050   9.372  10.953 -0.1205 -0.0299  0.1042
   98loPI    C3 1555   4.243   9.722  10.952  0.2618 -0.2335 -0.0988
   98loPI   PO4 1556   4.186   9.307  10.469 -0.2573  0.1022  0.0906
   98loPI   GL1 1557   4.241   9.380  10.061 -0.0916 -0.0219  0.0520
   98loPI   GL2 1558   4.496   9.611   9.898  0.2907 -0.2671  0.0210
   98loPI   C1A 1559   4.233   9.277   9.560 -0.2915  0.0256  0.0778
   98loPI   C2A 1560   4.185   9.103   9.034 -0.3767  0.0594 -0.0648
   98loPI   C3A 1561   3.793   9.199   8.686  0.1121  0.0708 -0.3675
   98loPI   C4A 1562   3.484   9.189   8.286 -0.1359  0.4141 -0.1824
   98loPI   C5A 1563   3.322   8.924   8.047 -0.0247 -0.0529  0.1771
   98loPI   C6A 1564   3.271   8.957   7.648 -0.0978 -0.0560 -0.2082
   98loPI   C1B 1565   4.433  10.016   9.835 -0.3195  0.2052 -0.0985
   98loPI   C2B 1566   4.040  10.250   9.677 -0.1044 -0.3202 -0.1150
   98loPI   C3B 1567   3.929  10.512   9.563 -0.0642 -0.2449 -0.2031
   98loPI   C4B 1568   3.692  10.792   9.197 -0.2006  0.0224  0.1041
   99loPI    C1 1569   5.471  10.007  10.287  0.0333 -0.0371 -0.0242
   99loPI    C2 1570   5.516   9.701  10.541  0.4055  0.0850  0.0620
   99loPI    C3 1571   5.437  10.068  10.680 -0.1850  0.0104 -0.0487
   99loPI   PO4 1572   5.696  10.036  10.159 -0.1185 -0.1715  0.2709
   99loPI   GL1 1573   5.763   9.927   9.769 -0.2042  0.2473  0.0354
   99loPI   GL2 1574   6.141   9.978   9.925  0.1159  0.2050  0.0049
   99loPI   C1A 1575   5.863   9.975   9.315  0.1814  0.0966 -0.1574
   99loPI   C2A 1576   5.735   9.910   8.876 -0.0178 -0.0832  0.1777
   99loPI   C3A 1577   5.646   9.811   8.461 -0.0337  0.1978 -0.0802
   99loPI   C4A 1578   5.579   9.884   8.120 -0.1874  0.0340  0.0494
   99loPI   C5A 1579   5.896  10.015   7.867 -0.2105 -0.0071  0.4739
   99loPI   C6A 1580   6.285  10.029   7.832 -0.1010 -0.0405  0.2767
   99loPI   C1B 1581   6.359   9.991   9.506  0.1545  0.1001  0.0506
   99loPI   C2B 1582   6.317   9.898   9.059 -0.4856 -0.0241 -0.0011
   99loPI   C3B 1583   6.173   9.834   8.683 -0.0090 -0.0302  0.0054
   99loPI   C4B 1584   6.084   9.691   8.223 -0.1090 -0.0652  0.2027
  100loPI    C1 1585  13.011   6.953  10.508 -0.0886 -0.0864 -0.0510
  100loPI    C2 1586  12.928   6.572  10.418 -0.2310 -0.0850  0.0711
  100loPI    C3 1587  13.236   6.659  10.658 -0.0651 -0.1091 -0.1301
  100loPI   PO4 1588  12.723   7.063  10.326 -0.1400 -0.0359  0.0049
  100loPI   GL1 1589  12.767   7.307   9.998  0.2518  0.0003 -0.1585
  100loPI   GL2 1590  12.823   7.602   9.884 -0.1785  0.2078 -0.2714
  100loPI   C1A 1591  12.669   6.993   9.683  0.4708  0.2473 -0.3131
  100loPI   C2A 1592  12.643   6.490   9.493  0.2497 -0.0391 -0.0302
  100loPI   C3A 1593  12.500   6.471   9.097  0.1243 -0.1039  0.0498
  100loPI   C4A 1594  12.455   6.648   8.666 -0.2472  0.2858  0.0014
  100loPI   C5A 1595  12.509   6.459   8.228 -0.2190 -0.1143  0.0680
  100loPI   C6A 1596  12.641   5.914   8.186  0.2769 -0.2572 -0.0185
  100loPI   C1B 1597  12.761   7.468   9.397  0.2948  0.2684 -0.0914
  100loPI   C2B 1598  12.632   7.466   8.991  0.0927  0.0976 -0.0780
  100loPI   C3B 1599  12.693   7.087   8.747  0.0781  0.1856  0.0821
  100loPI   C4B 1600  12.948   6.850   8.439 -0.0248  0.0429 -0.0565
  101loPI    C1 1601  12.962   3.735  10.680 -0.2712 -0.0054 -0.1533
  101loPI    C2 1602  12.654   3.506  10.570 -0.2090 -0.1749  0.0209
  101loPI    C3 1603  13.012   3.341  10.636 -0.1322 -0.0087  0.0239
  101loPI   PO4 1604  12.891   3.987  10.528 -0.0675  0.1183  0.2019
  101loPI   GL1 1605  13.046   4.245  10.233 -0.0221 -0.2208 -0.1106
  101loPI   GL2 1606  13.417   4.386  10.199 -0.3175 -0.0261  0.2738
  101loPI   C1A 1607  12.949   4.201   9.874 -0.0102  0.0107 -0.1864
  101loPI   C2A 1608  12.930   4.190   9.428  0.1454  0.0237  0.1446
  101loPI   C3A 1609  12.880   4.320   8.966  0.1203  0.0412  0.0115
  101loPI   C4A 1610  12.899   4.288   8.563 -0.0755 -0.1945 -0.3148
  101loPI   C5A 1611  12.885   4.164   8.085 -0.0212 -0.1152  0.0956
  101loPI   C6A 1612  12.734   4.284   7.746 -0.1107 -0.0874 -0.3024
  101loPI   C1B 1613  13.451   4.336   9.731  0.2048 -0.0411 -0.1422
  101loPI   C2B 1614  13.463   4.361   9.306 -0.0609  0.2443  0.1433
  101loPI   C3B 1615  13.388   4.401   8.781 -0.2319 -0.0585 -0.0256
  101loPI   C4B 1616  13.389   4.366   8.292  0.2656 -0.2261  0.2394
  102loPI    C1 1617   6.044  17.705  10.946  0.0430 -0.1555 -0.1883
  102loPI    C2 1618   6.026  17.437  11.243  0.0614 -0.0561 -0.0970
  102loPI    C3 1619   6.119  17.818  11.322 -0.1007  0.0079 -0.2077
  102loPI   PO4 1620   6.014  17.552  10.731  0.0782 -0.1991 -0.1328
  102loPI   GL1 1621   5.903  17.628  10.350  0.1870 -0.2621  0.0322
  102loPI   GL2 1622   6.146  17.641  10.182  0.0288  0.0212 -0.1933
  102loPI   C1A 1623   5.677  17.581   9.951  0.0708 -0.2123 -0.2438
  102loPI   C2A 1624   5.650  17.722   9.504  0.3666 -0.0537  0.1368
  102loPI   C3A 1625   5.581  17.612   9.073  0.3850  0.2743  0.0794
  102loPI   C4A 1626   5.469  17.285   8.780  0.1208  0.0264 -0.1864
  102loPI   C5A 1627   5.208  17.328   8.400  0.3678  0.1771  0.5673
  102loPI   C6A 1628   5.352  17.504   7.968 -0.0528  0.0274 -0.0311
  102loPI   C1B 1629   6.139  17.689   9.763 -0.1160 -0.1432 -0.2247
  102loPI   C2B 1630   6.316  17.601   9.373 -0.0391  0.0763  0.0409
  102loPI   C3B 1631   6.176  17.619   8.998 -0.0580  0.1676 -0.3935
  102loPI   C4B 1632   5.904  17.643   8.701 -0.0503 -0.0804  0.0652
  103loPI    C1 1633  11.314   1.086  11.071  0.0966 -0.2578 -0.4095
  103loPI    C2 1634  10.917   1.091  11.117  0.1167  0.2126 -0.2431
  103loPI    C3 1635  11.128   0.774  11.239 -0.1710  0.1052 -0.0117
  103loPI   PO4 1636  11.304   1.086  10.785  0.0959  0.0952 -0.3501
  103loPI   GL1 1637  11.298   0.985  10.312 -0.1835 -0.1594  0.2121
  103loPI   GL2 1638  11.251   1.374  10.311  0.1523 -0.1226 -0.0144
  103loPI   C1A 1639  11.219   0.797   9.937 -0.0104 -0.1325  0.0132
  103loPI   C2A 1640  11.198   0.919   9.463  0.0943  0.0137 -0.1582
  103loPI   C3A 1641  11.171   0.881   8.989 -0.2296  0.0750 -0.0990
  103loPI   C4A 1642  11.103   0.767   8.485  0.1939 -0.0974 -0.2099
  103loPI   C5A 1643  10.906   0.629   8.086  0.4875  0.1323  0.2318
  103loPI   C6A 1644  10.606   0.340   8.017  0.0540  0.1759  0.0464
  103loPI   C1B 1645  11.394   1.331   9.849  0.1736 -0.0851 -0.1957
  103loPI   C2B 1646  11.387   1.406   9.455  0.2835 -0.0469 -0.0891
  103loPI   C3B 1647  11.293   1.467   9.053  0.0381  0.2207  0.0557
  103loPI   C4B 1648  11.231   1.283   8.671 -0.4736  0.0223 -0.2687
  104loPI    C1 1649  17.706   0.318  10.847 -0.0811  0.1300 -0.1919
  104loPI    C2 1650  17.881   0.596  11.075 -0.1579 -0.0886  0.1414
  104loPI    C3 1651  17.494   0.630  10.980 -0.1755 -0.0983  0.2097
  104loPI   PO4 1652  17.986   0.266  10.603 -0.0841 -0.2765  0.3436
  104loPI   GL1 1653  18.156   0.455  10.222 -0.1656  0.0322 -0.0533
  104loPI   GL2 1654  18.488   0.500  10.358 -0.2560 -0.0774  0.1031
  104loPI   C1A 1655  18.065   0.638   9.818 -0.0395 -0.1784  0.0302
  104loPI   C2A 1656  18.324   0.637   9.392  0.1490  0.1365 -0.0584
  104loPI   C3A 1657  18.344   0.641   8.987  0.2637 -0.0249 -0.1478
  104loPI   C4A 1658  18.534   0.891   8.671 -0.0735 -0.1177  0.2680
  104loPI   C5A 1659  18.765   1.080   8.344  0.2910 -0.0273  0.0171
  104loPI   C6A 1660  18.978   0.750   8.203 -0.3247 -0.0316  0.2851
  104loPI   C1B 1661  18.532   0.526   9.878 -0.2555 -0.1218  0.0508
  104loPI   C2B 1662  18.871   0.375   9.701 -0.0435 -0.1798 -0.0789
  104loPI   C3B 1663  18.924   0.171   9.365 -0.0377  0.2342  0.0639
  104loPI   C4B 1664  18.778  -0.300   9.134  0.0434 -0.1097 -0.2032
  105loPI    C1 1665   3.190   6.121  10.622  0.0169 -0.2266  0.1584
  105loPI    C2 1666   2.975   6.089  10.957  0.0634 -0.2061  0.1903
  105loPI    C3 1667   3.089   5.760  10.759  0.2038 -0.2260  0.3021
  105loPI   PO4 1668   3.062   6.287  10.505  0.2546 -0.1604  0.0176
  105loPI   GL1 1669   2.861   6.252  10.109  0.4295  0.0241  0.0976
  105loPI   GL2 1670   3.065   6.346  10.002 -0.0853 -0.1409 -0.0586
  105loPI   C1A 1671   2.765   5.972   9.697 -0.0194 -0.0607 -0.1491
  105loPI   C2A 1672   2.731   5.939   9.285  0.0541 -0.0449 -0.1191
  105loPI   C3A 1673   2.753   6.013   8.882 -0.2470 -0.2357 -0.1030
  105loPI   C4A 1674   2.784   5.931   8.476 -0.0255 -0.1343 -0.0564
  105loPI   C5A 1675   2.613   5.748   7.948 -0.3664  0.1023  0.1560
  105loPI   C6A 1676   2.325   5.528   7.773  0.2725 -0.0287  0.0521
  105loPI   C1B 1677   2.998   6.458   9.568  0.3019 -0.2056  0.1517
  105loPI   C2B 1678   3.020   6.375   9.146  0.2661 -0.2519  0.0986
  105loPI   C3B 1679   3.011   6.362   8.618 -0.1641 -0.1079  0.1362
  105loPI   C4B 1680   3.223   6.333   8.200 -0.0367 -0.1788  0.4237
  106loPI    C1 1681   7.623  16.879  11.012  0.1303 -0.0411 -0.1835
  106loPI    C2 1682   7.472  16.509  10.998  0.1368 -0.0584  0.1332
  106loPI    C3 1683   7.647  16.642  11.333  0.0105  0.2803  0.0694
  106loPI   PO4 1684   7.732  16.909  10.782  0.0869  0.0636 -0.1012
  106loPI   GL1 1685   7.566  16.935  10.407  0.0560  0.1230 -0.1194
  106loPI   GL2 1686   7.764  17.090  10.291 -0.1141  0.2907  0.0966
  106loPI   C1A 1687   7.630  16.596  10.002 -0.2709 -0.1742  0.3053
  106loPI   C2A 1688   7.684  16.518   9.602  0.1107  0.1262  0.0538
  106loPI   C3A 1689   7.917  16.209   9.265 -0.2380  0.2273 -0.0735
  106loPI   C4A 1690   8.069  16.069   8.865  0.0660 -0.0409  0.1722
  106loPI   C5A 1691   8.571  16.102   8.777  0.2315 -0.3012 -0.0617
  106loPI   C6A 1692   9.046  15.998   8.608  0.0963 -0.2951 -0.0698
  106loPI   C1B 1693   7.534  17.050   9.869  0.2945 -0.0411 -0.1445
  106loPI   C2B 1694   7.517  16.972   9.362  0.2067  0.1823  0.1024
  106loPI   C3B 1695   7.625  17.148   8.994 -0.3540  0.2881 -0.4311
  106loPI   C4B 1696   8.005  17.078   8.720 -0.0832  0.1417 -0.2904
  107loPI    C1 1697   2.646   1.976  10.523 -0.2735  0.1796  0.1603
  107loPI    C2 1698   2.789   1.688  10.761 -0.1186  0.1781  0.0670
  107loPI    C3 1699   2.660   2.033  10.918  0.1917  0.2654  0.1369
  107loPI   PO4 1700   2.441   1.830  10.397  0.0026 -0.0489  0.3221
  107loPI   GL1 1701   2.251   1.752  10.083 -0.1914 -0.1131  0.0028
  107loPI   GL2 1702   2.076   1.550   9.971  0.1428 -0.1177  0.1700
  107loPI   C1A 1703   2.450   1.918   9.711 -0.0681 -0.1285  0.0487
  107loPI   C2A 1704   2.372   1.975   9.340  0.0623 -0.2535 -0.0119
  107loPI   C3A 1705   2.409   2.020   8.880 -0.0112 -0.0136 -0.1233
  107loPI   C4A 1706   2.452   1.915   8.454  0.0384 -0.2093  0.2045
  107loPI   C5A 1707   2.660   2.115   8.127  0.0587  0.1074  0.0693
  107loPI   C6A 1708   2.885   2.323   7.872  0.1220  0.1751 -0.3484
  107loPI   C1B 1709   2.128   1.513   9.601  0.1065  0.0936  0.0691
  107loPI   C2B 1710   2.191   1.537   9.159 -0.0893 -0.2023 -0.0110
  107loPI   C3B 1711   2.183   1.412   8.683  0.0502  0.3917  0.1553
  107loPI   C4B 1712   2.234   1.271   8.313  0.2519 -0.0213  0.1095
  108loPI    C1 1713   6.698   5.665  10.833  0.2781 -0.0388  0.2015
  108loPI    C2 1714   6.423   5.409  10.971  0.0751 -0.0490 -0.2056
  108loPI    C3 1715   6.448   5.778  11.123 -0.0686 -0.0947 -0.0691
  108loPI   PO4 1716   6.678   5.712  10.613  0.0314 -0.0083  0.1103
  108loPI   GL1 1717   6.663   5.630  10.202 -0.2169 -0.2390 -0.2248
  108loPI   GL2 1718   6.405   5.883  10.219  0.2052  0.0863  0.0404
  108loPI   C1A 1719   6.639   5.258   9.934 -0.2718 -0.0322 -0.0827
  108loPI   C2A 1720   6.552   5.354   9.546 -0.3506 -0.1073  0.3447
  108loPI   C3A 1721   6.615   5.360   9.122 -0.0561  0.0968  0.0065
  108loPI   C4A 1722   6.521   5.466   8.681 -0.0621  0.3003 -0.0859
  108loPI   C5A 1723   6.709   5.561   8.266 -0.1917 -0.1519 -0.0270
  108loPI   C6A 1724   7.134   5.812   8.109  0.2972  0.0960 -0.0058
  108loPI   C1B 1725   6.282   5.772   9.847 -0.0292 -0.0389  0.1790
  108loPI   C2B 1726   6.352   5.838   9.388 -0.0887 -0.1280  0.0439
  108loPI   C3B 1727   6.249   5.885   8.905 -0.0392  0.0789 -0.1330
  108loPI   C4B 1728   6.546   5.911   8.516  0.2671 -0.1692 -0.1122
  109loPI    C1 1729  16.839   5.483  10.448  0.2117  0.1325 -0.1549
  109loPI    C2 1730  16.698   5.724  10.734 -0.0389  0.0905 -0.2405
  109loPI    C3 1731  17.015   5.491  10.807  0.0022  0.2032 -0.0522
  109loPI   PO4 1732  16.876   5.604  10.200 -0.1143  0.0673  0.1714
  109loPI   GL1 1733  17.124   5.906   9.918 -0.0381  0.2176  0.0965
  109loPI   GL2 1734  16.888   5.921   9.730  0.2519 -0.0448 -0.0706
  109loPI   C1A 1735  17.525   5.776   9.689 -0.1517 -0.2669 -0.1779
  109loPI   C2A 1736  17.585   5.871   9.330 -0.2918  0.2261 -0.1507
  109loPI   C3A 1737  17.638   5.892   8.825 -0.1677  0.4280 -0.0144
  109loPI   C4A 1738  17.484   6.149   8.427  0.0368 -0.1012  0.3099
  109loPI   C5A 1739  17.211   6.364   8.176  0.3205  0.1524  0.2512
  109loPI   C6A 1740  17.107   6.523   7.802 -0.0890 -0.1157 -0.3154
  109loPI   C1B 1741  17.134   5.772   9.359 -0.3513 -0.0822 -0.3171
  109loPI   C2B 1742  17.246   5.593   8.935 -0.3404 -0.1469  0.3077
  109loPI   C3B 1743  17.309   5.606   8.497  0.1417 -0.0808  0.2384
  109loPI   C4B 1744  17.656   5.626   8.328  0.0707  0.3419  0.0240
  110loPI    C1 1745   0.578  16.406  11.071 -0.2060  0.1202 -0.4069
  110loPI    C2 1746   0.237  16.255  11.215 -0.0402  0.0735 -0.0506
  110loPI    C3 1747   0.477  16.467  11.454  0.3296 -0.1545 -0.2117
  110loPI   PO4 1748   0.528  16.404  10.734  0.0397 -0.0376 -0.3552
  110loPI   GL1 1749   0.679  16.543  10.312  0.2244 -0.0317 -0.1444
  110loPI   GL2 1750   0.727  16.876  10.395 -0.0010  0.0387 -0.1446
  110loPI   C1A 1751   0.539  16.598   9.888 -0.1253 -0.1649  0.0823
  110loPI   C2A 1752   0.548  16.517   9.440 -0.0513  0.1813  0.0889
  110loPI   C3A 1753   0.776  16.533   9.162  0.3156  0.1032 -0.0133
  110loPI   C4A 1754   0.809  16.523   8.681  0.2970 -0.0597  0.1882
  110loPI   C5A 1755   1.072  16.816   8.412 -0.2830 -0.0475 -0.0873
  110loPI   C6A 1756   1.199  17.084   8.233  0.2206 -0.0037 -0.2030
  110loPI   C1B 1757   0.866  16.897  10.001  0.0447 -0.4712  0.3705
  110loPI   C2B 1758   0.853  16.886   9.591  0.1589 -0.0548  0.0347
  110loPI   C3B 1759   1.035  16.932   9.304  0.0680 -0.1324 -0.0956
  110loPI   C4B 1760   0.925  16.954   8.910  0.2476 -0.1279 -0.1052
  111loPI    C1 1761   9.773   8.483  10.575 -0.0388 -0.0372 -0.2226
  111loPI    C2 1762   9.422   8.486  10.766  0.1914  0.0055  0.2132
  111loPI    C3 1763   9.586   8.830  10.644 -0.0315 -0.0342 -0.2177
  111loPI   PO4 1764   9.754   8.275  10.361  0.2275 -0.0584 -0.0915
  111loPI   GL1 1765   9.677   8.132  10.006  0.0302 -0.1383  0.2804
  111loPI   GL2 1766   9.667   8.384   9.849  0.0219 -0.0452  0.0613
  111loPI   C1A 1767   9.791   7.912   9.590  0.0102 -0.0944 -0.1530
  111loPI   C2A 1768   9.804   7.940   9.129  0.0116 -0.0774 -0.0019
  111loPI   C3A 1769   9.819   7.895   8.742  0.2539 -0.0424 -0.0899
  111loPI   C4A 1770   9.696   7.906   8.369  0.3517 -0.3325  0.1791
  111loPI   C5A 1771   9.637   7.716   7.976 -0.1147 -0.0442  0.0255
  111loPI   C6A 1772   9.414   7.575   7.671  0.4442 -0.4151  0.3618
  111loPI   C1B 1773   9.546   8.425   9.501  0.3540  0.4125  0.1425
  111loPI   C2B 1774   9.552   8.378   9.041 -0.0078  0.0753 -0.1075
  111loPI   C3B 1775   9.533   8.366   8.594  0.0199 -0.1523 -0.2578
  111loPI   C4B 1776   9.505   8.384   8.123 -0.0594  0.1370  0.2227
  112loPI    C1 1777   9.412   6.754  10.649 -0.1619  0.3805 -0.1640
  112loPI    C2 1778   9.285   6.691  11.023  0.1188 -0.0749 -0.1376
  112loPI    C3 1779   9.595   6.935  10.955 -0.0258  0.1248 -0.0921
  112loPI   PO4 1780   9.120   6.814  10.520  0.1666  0.0643  0.0081
  112loPI   GL1 1781   8.972   6.921  10.136 -0.2440  0.1732 -0.1014
  112loPI   GL2 1782   8.725   7.040  10.128  0.0076 -0.2290 -0.2871
  112loPI   C1A 1783   8.978   6.633   9.856  0.0903  0.4120 -0.0568
  112loPI   C2A 1784   8.861   6.623   9.378  0.0077 -0.3130  0.2181
  112loPI   C3A 1785   8.943   6.673   8.978 -0.1530  0.0190 -0.0850
  112loPI   C4A 1786   8.827   6.570   8.575 -0.0159 -0.1336 -0.1949
  112loPI   C5A 1787   8.758   6.719   8.187  0.0144  0.2686  0.2665
  112loPI   C6A 1788   8.835   6.782   7.708 -0.0563 -0.1654 -0.1009
  112loPI   C1B 1789   8.770   7.116   9.651 -0.0744 -0.2440 -0.0465
  112loPI   C2B 1790   8.755   7.093   9.098 -0.1090 -0.1018  0.0645
  112loPI   C3B 1791   8.702   7.110   8.718  0.1645  0.0176  0.1013
  112loPI   C4B 1792   8.447   6.931   8.511 -0.3079  0.0786  0.0946
  113loPI    C1 1793   1.133  17.107  10.969  0.0183  0.0896  0.1027
  113loPI    C2 1794   0.914  17.197  11.291 -0.0496 -0.1233  0.1176
  113loPI    C3 1795   1.049  16.824  11.239 -0.1895 -0.1343 -0.1894
  113loPI   PO4 1796   1.015  17.179  10.670  0.0449 -0.0799  0.2419
  113loPI   GL1 1797   1.052  17.257  10.226  0.0332  0.2389 -0.0541
  113loPI   GL2 1798   1.361  17.121  10.208  0.1438  0.0685 -0.1055
  113loPI   C1A 1799   0.781  17.347   9.809  0.1590 -0.0336 -0.1937
  113loPI   C2A 1800   0.759  17.336   9.366 -0.1651 -0.2629 -0.1702
  113loPI   C3A 1801   0.717  17.437   8.940 -0.2522 -0.1084 -0.1301
  113loPI   C4A 1802   0.731  17.800   8.613 -0.3147  0.1963 -0.0921
  113loPI   C5A 1803   1.019  18.032   8.269  0.1780 -0.2871 -0.0932
  113loPI   C6A 1804   1.430  18.165   8.226  0.3912 -0.2444  0.0657
  113loPI   C1B 1805   1.410  16.884   9.785  0.4457  0.0636 -0.4491
  113loPI   C2B 1806   1.522  17.005   9.350 -0.0080  0.3202  0.2032
  113loPI   C3B 1807   1.538  16.942   8.942  0.0338 -0.3225 -0.1192
  113loPI   C4B 1808   1.587  16.858   8.492 -0.3902  0.0331  0.0363
  114loPI    C1 1809  11.882   7.056  10.791  0.0119  0.0721  0.0400
  114loPI    C2 1810  11.860   7.361  11.049 -0.1373  0.0288  0.0794
  114loPI    C3 1811  11.847   6.984  11.183  0.2602  0.0004  0.0509
  114loPI   PO4 1812  11.768   7.074  10.657 -0.1334  0.2298  0.3562
  114loPI   GL1 1813  11.901   7.023  10.178 -0.1253 -0.3326  0.0134
  114loPI   GL2 1814  11.856   6.742  10.092 -0.1892  0.2520 -0.0419
  114loPI   C1A 1815  11.886   7.250   9.778 -0.0112 -0.0075  0.1252
  114loPI   C2A 1816  12.007   7.342   9.296  0.1226  0.0169  0.2841
  114loPI   C3A 1817  12.024   7.420   8.779  0.0630  0.2173 -0.1047
  114loPI   C4A 1818  11.941   7.414   8.336 -0.1435 -0.2068  0.2142
  114loPI   C5A 1819  12.173   7.252   8.035 -0.2001 -0.1202 -0.0811
  114loPI   C6A 1820  12.202   7.263   7.535 -0.0586  0.0341 -0.5201
  114loPI   C1B 1821  11.722   6.559   9.808 -0.1781 -0.1538 -0.1095
  114loPI   C2B 1822  11.664   6.171   9.622  0.1284 -0.1464  0.0467
  114loPI   C3B 1823  11.633   6.183   9.166 -0.2426 -0.0059 -0.0284
  114loPI   C4B 1824  11.500   6.436   8.761 -0.0876 -0.0119  0.0748
  115loPI    C1 1825   6.208  11.663  10.551  0.3513 -0.2864  0.2726
  115loPI    C2 1826   6.420  11.949  10.368 -0.1780 -0.0099  0.0706
  115loPI    C3 1827   6.482  11.871  10.755  0.4455 -0.0995 -0.0376
  115loPI   PO4 1828   6.236  11.487  10.477 -0.1418  0.2015 -0.0021
  115loPI   GL1 1829   6.321  11.388  10.090  0.0655 -0.2528  0.1138
  115loPI   GL2 1830   6.397  11.658   9.947 -0.2334 -0.0351 -0.2077
  115loPI   C1A 1831   6.169  11.180   9.719  0.1525  0.1216  0.0470
  115loPI   C2A 1832   6.125  11.206   9.289 -0.0582 -0.1588  0.0891
  115loPI   C3A 1833   6.103  11.114   8.921 -0.0603  0.1389  0.2457
  115loPI   C4A 1834   6.006  11.202   8.517 -0.0909 -0.1524 -0.0591
  115loPI   C5A 1835   5.975  10.998   8.121 -0.0423 -0.0447  0.0678
  115loPI   C6A 1836   5.791  10.949   7.660 -0.0424 -0.0866 -0.1505
  115loPI   C1B 1837   6.480  11.735   9.524 -0.0430  0.1509 -0.1801
  115loPI   C2B 1838   6.423  11.637   9.044 -0.1430 -0.1669  0.1356
  115loPI   C3B 1839   6.284  11.685   8.639  0.3671 -0.2289  0.2212
  115loPI   C4B 1840   6.464  11.737   8.340 -0.1099 -0.0583  0.1993
  116loPI    C1 1841  12.780  10.439  10.744 -0.0248 -0.0632  0.0947
  116loPI    C2 1842  12.771  10.424  11.143 -0.0261 -0.0276  0.0961
  116loPI    C3 1843  12.935  10.125  10.935  0.0292 -0.0180  0.1255
  116loPI   PO4 1844  12.759  10.658  10.653 -0.1320 -0.1529  0.0261
  116loPI   GL1 1845  13.087  10.887  10.568  0.1636 -0.1864 -0.0353
  116loPI   GL2 1846  13.388  10.806  10.437 -0.0593 -0.0529  0.0817
  116loPI   C1A 1847  13.096  11.162  10.298  0.2105 -0.2534  0.2535
  116loPI   C2A 1848  13.347  11.255   9.918  0.0521  0.3166  0.0115
  116loPI   C3A 1849  13.234  11.275   9.481  0.0321  0.4387 -0.3534
  116loPI   C4A 1850  13.306  11.318   9.093  0.0387 -0.1969 -0.0506
  116loPI   C5A 1851  13.360  11.266   8.672 -0.2951  0.0028 -0.3222
  116loPI   C6A 1852  13.463  10.997   8.493  0.1313 -0.3127 -0.1714
  116loPI   C1B 1853  13.433  10.733  10.029 -0.1076 -0.2707 -0.0504
  116loPI   C2B 1854  13.468  10.862   9.641  0.0373  0.1723 -0.1403
  116loPI   C3B 1855  13.355  10.773   9.328 -0.1587  0.0958  0.2951
  116loPI   C4B 1856  13.505  10.823   8.940 -0.1431 -0.1755  0.3189
  117loPI    C1 1857  14.112   2.290  11.008  0.0588  0.0245  0.3772
  117loPI    C2 1858  13.852   2.428  11.280 -0.3961 -0.0241 -0.0201
  117loPI    C3 1859  13.805   2.062  11.125 -0.0580 -0.0531 -0.0621
  117loPI   PO4 1860  14.135   2.478  10.795  0.1653 -0.2290  0.0322
  117loPI   GL1 1861  13.963   2.537  10.415  0.3145 -0.0677  0.0976
  117loPI   GL2 1862  13.629   2.483  10.256  0.2883  0.0903 -0.0248
  117loPI   C1A 1863  14.031   2.708  10.040  0.2961  0.0939  0.0156
  117loPI   C2A 1864  14.045   2.706   9.551 -0.1906  0.2139 -0.1173
  117loPI   C3A 1865  13.968   2.728   9.127 -0.1337  0.2391 -0.0634
  117loPI   C4A 1866  13.968   2.675   8.765 -0.0737 -0.0286 -0.0383
  117loPI   C5A 1867  13.903   2.636   8.316  0.1231  0.0782 -0.2023
  117loPI   C6A 1868  13.950   2.800   7.984  0.0165 -0.3154 -0.0436
  117loPI   C1B 1869  13.523   2.567   9.842 -0.2061  0.2069 -0.1178
  117loPI   C2B 1870  13.557   2.561   9.382  0.0273  0.0958  0.0004
  117loPI   C3B 1871  13.483   2.592   8.911 -0.4213  0.1381 -0.3506
  117loPI   C4B 1872  13.441   2.521   8.509  0.0695 -0.1385  0.2502
  118loPI    C1 1873   2.631   5.981  10.526  0.0391  0.2107 -0.0607
  118loPI    C2 1874   2.468   6.061  10.883 -0.0714  0.0043 -0.0635
  118loPI    C3 1875   2.606   5.694  10.803  0.0737  0.0845 -0.1872
  118loPI   PO4 1876   2.354   6.079  10.357 -0.1804 -0.0322  0.0549
  118loPI   GL1 1877   2.257   6.014   9.935 -0.1798  0.0401  0.0441
  118loPI   GL2 1878   2.451   5.748   9.990  0.2324 -0.3303  0.1874
  118loPI   C1A 1879   2.273   5.951   9.529 -0.0470  0.1708 -0.1899
  118loPI   C2A 1880   2.235   5.992   9.119  0.1495 -0.3302  0.0409
  118loPI   C3A 1881   2.262   5.997   8.683 -0.0168  0.1221 -0.0414
  118loPI   C4A 1882   2.251   6.118   8.217  0.2512 -0.0475 -0.2290
  118loPI   C5A 1883   1.992   6.285   7.848  0.2491  0.2796  0.0181
  118loPI   C6A 1884   2.099   6.602   7.633 -0.1176  0.0199  0.3139
  118loPI   C1B 1885   2.406   5.504   9.556 -0.0145 -0.0569  0.1216
  118loPI   C2B 1886   2.491   5.514   9.146 -0.2580  0.1669 -0.5667
  118loPI   C3B 1887   2.504   5.590   8.749  0.2267 -0.2338  0.1448
  118loPI   C4B 1888   2.458   5.534   8.360 -0.0325 -0.1523 -0.2015
  119loPI    C1 1889   1.856  15.974  10.829 -0.0492 -0.1455 -0.0463
  119loPI    C2 1890   1.788  15.987  11.223  0.2237  0.0636 -0.0037
  119loPI    C3 1891   2.021  15.701  11.069  0.2292  0.0633  0.0052
  119loPI   PO4 1892   1.942  16.212  10.779 -0.2148  0.1285 -0.1484
  119loPI   GL1 1893   2.084  16.298  10.339  0.0576 -0.1924  0.2054
  119loPI   GL2 1894   2.350  16.445  10.188 -0.2186  0.1146 -0.2026
  119loPI   C1A 1895   1.899  16.027  10.108 -0.0348 -0.1591  0.0464
  119loPI   C2A 1896   1.887  16.049   9.657  0.2056 -0.0666 -0.1234
  119loPI   C3A 1897   1.935  15.973   9.304  0.0103  0.1051  0.3114
  119loPI   C4A 1898   2.020  16.009   8.835 -0.1494 -0.0973 -0.2607
  119loPI   C5A 1899   2.076  16.004   8.427  0.0376 -0.3287 -0.3242
  119loPI   C6A 1900   2.124  16.032   7.974  0.1788 -0.0244  0.1720
  119loPI   C1B 1901   2.163  16.496   9.837 -0.2220 -0.3322  0.1116
  119loPI   C2B 1902   2.208  16.487   9.431  0.1755  0.0159  0.0503
  119loPI   C3B 1903   2.270  16.430   8.956  0.2529 -0.2067  0.3334
  119loPI   C4B 1904   2.402  16.345   8.546  0.0044  0.2228 -0.1871
  120loPI    C1 1905   7.956  17.258  11.041 -0.1509 -0.0851 -0.0837
  120loPI    C2 1906   8.135  17.464  11.334 -0.1046  0.2263 -0.3259
  120loPI    C3 1907   7.867  17.181  11.424  0.1721  0.0680  0.0259
  120loPI   PO4 1908   8.142  17.178  10.867 -0.0440 -0.1673  0.3968
  120loPI   GL1 1909   8.448  17.334  10.617 -0.0773 -0.1552 -0.0903
  120loPI   GL2 1910   8.584  17.562  10.475  0.0703 -0.1034 -0.1502
  120loPI   C1A 1911   8.229  17.231  10.264 -0.1209 -0.1411  0.0542
  120loPI   C2A 1912   8.001  17.208   9.872 -0.0304 -0.1378  0.0737
  120loPI   C3A 1913   7.980  17.095   9.497 -0.1352  0.1124 -0.1549
  120loPI   C4A 1914   7.935  16.771   9.192  0.0617  0.2004  0.0729
  120loPI   C5A 1915   7.782  16.589   8.841 -0.1251  0.0584  0.1641
  120loPI   C6A 1916   8.055  16.571   8.410  0.0023  0.2062 -0.0831
  120loPI   C1B 1917   8.886  17.707  10.110 -0.1198 -0.1557 -0.1519
  120loPI   C2B 1918   9.027  17.551   9.633 -0.0338  0.1220  0.1546
  120loPI   C3B 1919   8.955  17.534   9.226  0.2547  0.1567  0.3190
  120loPI   C4B 1920   9.146  17.425   8.897 -0.0205  0.1210  0.1477
  121loPI    C1 1921   9.839   2.573  11.182 -0.0326 -0.0887 -0.0807
  121loPI    C2 1922   9.921   2.940  11.046 -0.0611 -0.0527 -0.0017
  121loPI    C3 1923   9.798   2.890  11.423  0.1310 -0.1637  0.0477
  121loPI   PO4 1924   9.999   2.417  11.005  0.1307 -0.2352  0.1449
  121loPI   GL1 1925  10.220   2.550  10.614  0.4249  0.1472  0.1427
  121loPI   GL2 1926  10.430   2.421  10.394  0.0394 -0.2091 -0.2704
  121loPI   C1A 1927  10.203   2.810  10.191  0.1110 -0.0817 -0.4254
  121loPI   C2A 1928   9.978   2.824   9.759 -0.0749  0.1365 -0.2230
  121loPI   C3A 1929   9.929   2.775   9.332  0.0885 -0.0735  0.2129
  121loPI   C4A 1930   9.786   2.909   8.894 -0.2609 -0.0311  0.1404
  121loPI   C5A 1931   9.775   2.591   8.487  0.2266  0.0450  0.2410
  121loPI   C6A 1932  10.012   2.251   8.321  0.0512 -0.3054  0.0067
  121loPI   C1B 1933  10.657   2.560  10.024  0.2324 -0.0487  0.1131
  121loPI   C2B 1934  10.683   2.681   9.603  0.0866 -0.0863  0.2287
  121loPI   C3B 1935  10.707   2.695   9.128 -0.0860 -0.3639 -0.0268
  121loPI   C4B 1936  10.789   2.784   8.671  0.0813  0.2369  0.2779
  122loPI    C1 1937  13.270   3.989  11.038  0.1788  0.0338 -0.0315
  122loPI    C2 1938  13.316   3.842  11.407 -0.1284  0.0150  0.0019
  122loPI    C3 1939  13.230   4.229  11.356 -0.1068  0.0130 -0.0497
  122loPI   PO4 1940  13.516   3.999  10.952  0.0563  0.0397 -0.2276
  122loPI   GL1 1941  13.434   3.943  10.519  0.1594  0.2507  0.1574
  122loPI   GL2 1942  13.391   3.769  10.317 -0.0780 -0.3563  0.1775
  122loPI   C1A 1943  13.782   3.995  10.098  0.1737 -0.2113  0.4526
  122loPI   C2A 1944  13.831   4.019   9.648 -0.0187  0.0277 -0.1018
  122loPI   C3A 1945  13.826   4.024   9.216  0.0841  0.0340 -0.0277
  122loPI   C4A 1946  13.752   4.009   8.823  0.1904 -0.1886 -0.0762
  122loPI   C5A 1947  13.793   4.129   8.366  0.2037  0.1344  0.1368
  122loPI   C6A 1948  14.024   3.913   7.999 -0.0923 -0.2185 -0.1721
  122loPI   C1B 1949  13.339   3.907   9.936 -0.1128 -0.0005  0.3567
  122loPI   C2B 1950  13.339   3.911   9.452 -0.0486  0.1673 -0.0243
  122loPI   C3B 1951  13.225   3.984   9.021 -0.2092  0.0571  0.1893
  122loPI   C4B 1952  13.257   3.913   8.571 -0.1441 -0.0270 -0.2048
  123loPI    C1 1953  12.473   5.368  10.717  0.0947 -0.1537  0.2017
  123loPI    C2 1954  12.327   5.486  11.070 -0.1861  0.0156  0.0326
  123loPI    C3 1955  12.108   5.251  10.832  0.0522 -0.2002  0.0222
  123loPI   PO4 1956  12.526   5.584  10.608  0.1018  0.0691 -0.1151
  123loPI   GL1 1957  12.350   5.878  10.270 -0.1482  0.0356  0.0547
  123loPI   GL2 1958  12.630   5.981  10.274  0.0812 -0.2332 -0.1466
  123loPI   C1A 1959  12.377   5.582   9.903  0.3878  0.1575 -0.2834
  123loPI   C2A 1960  12.348   5.438   9.530  0.0752  0.0312  0.2929
  123loPI   C3A 1961  12.389   5.477   9.114  0.0884 -0.0337  0.3191
  123loPI   C4A 1962  12.242   5.564   8.673  0.3204  0.1594 -0.3858
  123loPI   C5A 1963  12.026   5.712   8.287 -0.1371 -0.3832  0.0351
  123loPI   C6A 1964  12.090   6.220   8.104 -0.0156 -0.1246 -0.3505
  123loPI   C1B 1965  12.612   6.015   9.870 -0.1614 -0.2218 -0.1617
  123loPI   C2B 1966  12.532   5.910   9.372 -0.4347 -0.2250  0.3008
  123loPI   C3B 1967  12.418   5.942   8.960 -0.0919  0.1718 -0.0424
  123loPI   C4B 1968  12.290   6.086   8.622  0.0617 -0.1208 -0.3372
  124loPI    C1 1969   3.879  13.753  10.563 -0.2031 -0.1089  0.1077
  124loPI    C2 1970   3.649  13.878  10.865 -0.3879 -0.5074  0.1390
  124loPI    C3 1971   4.036  13.799  10.928 -0.3088 -0.1293  0.1561
  124loPI   PO4 1972   3.674  13.756  10.311 -0.1249 -0.0781 -0.3484
  124loPI   GL1 1973   3.353  13.631   9.932 -0.1196  0.1873 -0.1447
  124loPI   GL2 1974   3.554  13.414   9.901 -0.3769 -0.0569 -0.0634
  124loPI   C1A 1975   2.958  13.537   9.709  0.1591 -0.2359 -0.1204
  124loPI   C2A 1976   2.871  13.570   9.335 -0.0159  0.1386  0.0955
  124loPI   C3A 1977   2.972  13.628   8.896  0.0320  0.1919 -0.1822
  124loPI   C4A 1978   3.102  13.538   8.416 -0.0446  0.0484 -0.0228
  124loPI   C5A 1979   3.069  13.614   8.089  0.3319  0.0597  0.2937
  124loPI   C6A 1980   3.377  13.357   7.823  0.1466  0.0253 -0.0473
  124loPI   C1B 1981   3.386  13.377   9.452 -0.0337 -0.0038 -0.2757
  124loPI   C2B 1982   3.208  13.180   9.036  0.2187  0.0388 -0.0280
  124loPI   C3B 1983   3.279  13.094   8.628  0.0919  0.0816 -0.0684
  124loPI   C4B 1984   3.441  13.208   8.257 -0.0210  0.4077 -0.3414
  125loPI    C1 1985  10.914  15.619  10.454 -0.0174  0.0986 -0.0858
  125loPI    C2 1986  10.864  15.427  10.801 -0.2378  0.3834  0.0437
  125loPI    C3 1987  10.551  15.489  10.560 -0.1326  0.4136 -0.0863
  125loPI   PO4 1988  11.094  15.511  10.326 -0.4572 -0.0547 -0.4041
  125loPI   GL1 1989  11.200  15.409   9.959 -0.1159  0.1968 -0.0251
  125loPI   GL2 1990  11.501  15.491   9.998  0.3268  0.1167  0.1742
  125loPI   C1A 1991  11.125  15.339   9.608  0.3998  0.2406 -0.0943
  125loPI   C2A 1992  11.060  15.136   9.253 -0.2311 -0.1132  0.2566
  125loPI   C3A 1993  10.732  14.987   9.067 -0.0804  0.1378 -0.1608
  125loPI   C4A 1994  10.613  14.825   8.736  0.2618  0.2976  0.0160
  125loPI   C5A 1995  10.681  14.539   8.357  0.0392 -0.3013 -0.0373
  125loPI   C6A 1996  10.343  14.500   8.026  0.1987 -0.0357 -0.2556
  125loPI   C1B 1997  11.590  15.183   9.604 -0.2178  0.3135 -0.3350
  125loPI   C2B 1998  11.500  14.947   9.180  0.0455 -0.1139  0.2869
  125loPI   C3B 1999  11.166  14.855   8.816  0.0517  0.0656  0.1999
  125loPI   C4B 2000  11.118  14.759   8.303  0.3905  0.0203  0.1953
  126loPI    C1 2001  11.936   4.077  10.909  0.2263 -0.1706 -0.0100
  126loPI    C2 2002  11.842   4.383  11.148  0.2478  0.0183 -0.2402
  126loPI    C3 2003  12.030   4.064  11.298  0.0355  0.0228  0.0446
  126loPI   PO4 2004  12.031   4.224  10.670 -0.2487  0.1329  0.1680
  126loPI   GL1 2005  12.067   4.180  10.239  0.0651 -0.0534  0.3021
  126loPI   GL2 2006  12.080   4.527  10.240 -0.0286 -0.0702 -0.0998
  126loPI   C1A 2007  12.000   3.965   9.840  0.0809  0.3517  0.2628
  126loPI   C2A 2008  12.041   3.903   9.351 -0.3385 -0.0797 -0.1457
  126loPI   C3A 2009  11.964   3.944   8.951  0.4362  0.3067 -0.2521
  126loPI   C4A 2010  11.910   3.940   8.488 -0.2711  0.0029 -0.0961
  126loPI   C5A 2011  11.873   4.289   8.200  0.1180 -0.1604 -0.0779
  126loPI   C6A 2012  11.926   4.218   7.744 -0.1907 -0.0079  0.0571
  126loPI   C1B 2013  12.181   4.440   9.802  0.0224 -0.1162 -0.1016
  126loPI   C2B 2014  12.078   4.443   9.433 -0.1349 -0.2009  0.0292
  126loPI   C3B 2015  12.076   4.498   8.969 -0.0832  0.1595  0.0630
  126loPI   C4B 2016  12.126   4.583   8.507  0.4126 -0.0114 -0.0955
  127loPI    C1 2017  10.752   3.183  11.099  0.2080 -0.0548 -0.0908
  127loPI    C2 2018  10.597   3.406  10.805  0.4457  0.0063 -0.1720
  127loPI    C3 2019  10.567   3.528  11.184 -0.0249 -0.1635 -0.1477
  127loPI   PO4 2020  11.018   3.161  10.962 -0.0440  0.0822  0.1141
  127loPI   GL1 2021  11.017   3.358  10.521  0.0828 -0.0843  0.1058
  127loPI   GL2 2022  11.308   3.448  10.591  0.0170 -0.0378 -0.2122
  127loPI   C1A 2023  10.959   3.255  10.073  0.1161 -0.3230  0.2273
  127loPI   C2A 2024  10.867   3.199   9.644  0.1569  0.0224 -0.2135
  127loPI   C3A 2025  10.875   3.164   9.256  0.2129  0.2026 -0.0523
  127loPI   C4A 2026  10.840   3.246   8.986  0.3264  0.0077  0.2281
  127loPI   C5A 2027  10.879   3.238   8.501 -0.0240  0.2291 -0.2911
  127loPI   C6A 2028  10.728   2.989   8.157  0.2070 -0.2511  0.0357
  127loPI   C1B 2029  11.418   3.435  10.214 -0.0281 -0.1184 -0.0200
  127loPI   C2B 2030  11.373   3.308   9.724  0.1012 -0.0688 -0.1243
  127loPI   C3B 2031  11.402   3.292   9.342 -0.0468 -0.1027  0.1467
  127loPI   C4B 2032  11.361   3.338   8.910  0.1593 -0.0378 -0.0121
  128loPI    C1 2033  11.708  14.676  10.618  0.0456  0.0601 -0.0809
  128loPI    C2 2034  11.600  14.684  11.003 -0.0567  0.0825 -0.1098
  128loPI    C3 2035  11.988  14.684  10.904 -0.0232 -0.3172  0.0017
  128loPI   PO4 2036  11.431  14.738  10.549  0.0863  0.0096  0.1561
  128loPI   GL1 2037  11.211  14.882  10.088  0.4479 -0.2638 -0.2469
  128loPI   GL2 2038  11.577  14.924  10.004 -0.1618  0.2630 -0.0058
  128loPI   C1A 2039  11.164  14.864   9.730  0.2850 -0.1402  0.0104
  128loPI   C2A 2040  11.174  14.609   9.335 -0.1227 -0.2712 -0.2911
  128loPI   C3A 2041  11.364  14.375   9.057  0.1421 -0.0729 -0.1066
  128loPI   C4A 2042  11.605  14.139   8.879  0.0904 -0.4414 -0.2764
  128loPI   C5A 2043  11.668  14.012   8.420 -0.2784 -0.0887 -0.0101
  128loPI   C6A 2044  12.028  14.014   8.131 -0.1279  0.2408 -0.1369
  128loPI   C1B 2045  11.633  14.696   9.665 -0.0071  0.0050  0.1093
  128loPI   C2B 2046  11.873  14.560   9.237 -0.2160  0.0242 -0.1327
  128loPI   C3B 2047  11.981  14.515   8.797  0.0532  0.1183  0.1379
  128loPI   C4B 2048  11.940  14.449   8.403  0.0302 -0.3232  0.0213
  129loPI    C1 2049   4.867  12.763  10.350 -0.2085  0.1833 -0.0615
  129loPI    C2 2050   5.145  13.002  10.510  0.0197 -0.0534 -0.0977
  129loPI    C3 2051   4.961  12.729  10.737 -0.0443 -0.0275 -0.1182
  129loPI   PO4 2052   4.943  12.761  10.088 -0.1692  0.1170  0.0576
  129loPI   GL1 2053   4.766  12.619   9.709  0.1928  0.0891  0.3516
  129loPI   GL2 2054   5.034  12.728   9.578  0.0088 -0.0890  0.0062
  129loPI   C1A 2055   4.673  12.608   9.302  0.0902 -0.1337  0.1697
  129loPI   C2A 2056   4.853  12.653   8.970 -0.2331  0.1608  0.0604
  129loPI   C3A 2057   4.947  12.727   8.612  0.1178  0.2147 -0.0033
  129loPI   C4A 2058   4.882  12.557   8.217  0.0147  0.0280  0.2076
  129loPI   C5A 2059   5.056  12.596   7.858  0.0741 -0.0658 -0.0201
  129loPI   C6A 2060   5.391  12.830   7.636 -0.0080 -0.2349 -0.3039
  129loPI   C1B 2061   4.986  13.072   9.364  0.1365  0.0021 -0.0807
  129loPI   C2B 2062   5.118  13.142   8.948 -0.0613  0.1727 -0.2652
  129loPI   C3B 2063   5.274  13.195   8.556  0.1336 -0.1072  0.1611
  129loPI   C4B 2064   5.485  13.372   8.378 -0.2175  0.3068  0.0645
  130loPI    C1 2065  15.738   6.093  10.652 -0.1864  0.1420  0.0647
  130loPI    C2 2066  15.790   5.786  10.401 -0.2716  0.1359  0.0542
  130loPI    C3 2067  15.658   5.720  10.772  0.0082  0.1278  0.1549
  130loPI   PO4 2068  15.787   6.247  10.493  0.2134 -0.0312 -0.0740
  130loPI   GL1 2069  15.675   6.196  10.096  0.0086  0.2067 -0.1665
  130loPI   GL2 2070  15.333   6.308  10.105  0.0623  0.2120  0.0375
  130loPI   C1A 2071  15.737   5.888   9.825  0.0196 -0.2674 -0.3315
  130loPI   C2A 2072  15.662   5.907   9.413 -0.1008  0.0709  0.0615
  130loPI   C3A 2073  15.659   5.860   8.931  0.1203 -0.0458 -0.2343
  130loPI   C4A 2074  15.894   6.007   8.505  0.1799 -0.1090  0.0644
  130loPI   C5A 2075  16.070   6.179   8.158 -0.1224 -0.3302 -0.1280
  130loPI   C6A 2076  16.416   6.177   7.866  0.0540  0.2674 -0.0141
  130loPI   C1B 2077  15.365   6.337   9.611 -0.0567 -0.2183 -0.1839
  130loPI   C2B 2078  15.318   6.217   9.225  0.1346 -0.0567 -0.2326
  130loPI   C3B 2079  15.327   6.198   8.836  0.0943  0.0663  0.0394
  130loPI   C4B 2080  15.339   6.211   8.414  0.0799 -0.1660  0.2102
  131loPI    C1 2081   9.886  17.754  11.066  0.0650  0.1330 -0.1736
  131loPI    C2 2082  10.110  17.598  11.359 -0.1129 -0.1716 -0.1946
  131loPI    C3 2083   9.766  17.783  11.446  0.0005  0.0391 -0.1863
  131loPI   PO4 2084   9.927  17.510  10.869  0.1581  0.1883 -0.0998
  131loPI   GL1 2085   9.959  17.592  10.434 -0.1217  0.1580  0.0951
  131loPI   GL2 2086   9.973  17.285  10.374  0.0336  0.1006 -0.0499
  131loPI   C1A 2087   9.981  17.747  10.027 -0.2374 -0.0802  0.0841
  131loPI   C2A 2088   9.829  17.798   9.696  0.0006  0.1172  0.1028
  131loPI   C3A 2089   9.938  17.689   9.240 -0.1384  0.2310  0.0955
  131loPI   C4A 2090  10.095  17.459   8.860  0.0819 -0.0379  0.0764
  131loPI   C5A 2091  10.494  17.546   8.546  0.0143  0.2684 -0.2474
  131loPI   C6A 2092  10.855  17.605   8.347  0.0508  0.1419 -0.1579
  131loPI   C1B 2093   9.802  17.214   9.986  0.3169  0.1835 -0.0808
  131loPI   C2B 2094   9.756  17.298   9.678  0.2393 -0.0805 -0.2681
  131loPI   C3B 2095   9.486  17.528   9.447  0.1834 -0.1208 -0.1443
  131loPI   C4B 2096   9.322  17.858   9.267  0.2410  0.1216  0.1267
  132loPI    C1 2097   0.630  12.187  10.585 -0.1033  0.1665 -0.1153
  132loPI    C2 2098   0.331  12.030  10.800 -0.0381  0.2311  0.0237
  132loPI    C3 2099   0.602  12.266  10.976  0.2154  0.0049 -0.0564
  132loPI   PO4 2100   0.543  12.292  10.424 -0.0763 -0.1458  0.1364
  132loPI   GL1 2101   0.317  12.351  10.163  0.1274  0.0416  0.2586
  132loPI   GL2 2102   0.017  12.367  10.068 -0.0562 -0.2994  0.2359
  132loPI   C1A 2103   0.462  12.448   9.699  0.1523  0.0862  0.4816
  132loPI   C2A 2104   0.443  12.411   9.232 -0.0704  0.0709 -0.1317
  132loPI   C3A 2105   0.460  12.355   8.787  0.0279  0.2700 -0.0841
  132loPI   C4A 2106   0.484  12.354   8.322 -0.1294  0.0419 -0.3452
  132loPI   C5A 2107   0.756  12.499   7.882  0.1842 -0.0604 -0.0436
  132loPI   C6A 2108   0.966  12.526   7.440 -0.0481 -0.0341  0.0001
  132loPI   C1B 2109  -0.064  12.465   9.637 -0.1012 -0.2371  0.0783
  132loPI   C2B 2110  -0.048  12.542   9.256  0.1590 -0.4166 -0.0480
  132loPI   C3B 2111  -0.018  12.486   8.864  0.4436 -0.0346  0.2697
  132loPI   C4B 2112   0.096  12.642   8.404 -0.0389 -0.3720 -0.2071
  133loPI    C1 2113   5.750   0.270  10.743 -0.0093 -0.0918 -0.0302
  133loPI    C2 2114   5.566   0.566  10.939 -0.0965 -0.1175 -0.0727
  133loPI    C3 2115   5.965   0.567  10.904 -0.0770 -0.1304  0.1337
  133loPI   PO4 2116   5.622   0.244  10.508 -0.1115 -0.1779  0.2083
  133loPI   GL1 2117   5.203   0.175  10.246 -0.2303 -0.1857  0.0733
  133loPI   GL2 2118   5.132  -0.114  10.185 -0.2447  0.2148  0.2009
  133loPI   C1A 2119   5.111   0.510   9.869 -0.0589 -0.0767 -0.0952
  133loPI   C2A 2120   5.229   0.456   9.476 -0.2661 -0.2350  0.0846
  133loPI   C3A 2121   5.386   0.686   9.128 -0.3935  0.1645 -0.1253
  133loPI   C4A 2122   5.440   0.922   8.783 -0.1354  0.0245 -0.4321
  133loPI   C5A 2123   5.515   0.939   8.385 -0.1132  0.0966 -0.0020
  133loPI   C6A 2124   5.712   1.007   7.943 -0.0706 -0.2660 -0.2375
  133loPI   C1B 2125   4.986   0.003   9.815  0.2751 -0.0518 -0.2601
  133loPI   C2B 2126   4.880   0.000   9.362 -0.1417  0.1090  0.2982
  133loPI   C3B 2127   5.045   0.249   8.915  0.1213  0.0703  0.0322
  133loPI   C4B 2128   5.097   0.049   8.539  0.1650 -0.0609  0.0992
  134loPI    C1 2129   9.306   9.786  10.366  0.0008  0.1109  0.0229
  134loPI    C2 2130   9.325   9.697  10.756  0.0318  0.0400  0.0055
  134loPI    C3 2131   9.504  10.026  10.617  0.2405 -0.0698  0.0110
  134loPI   PO4 2132   9.370   9.556  10.261 -0.1460 -0.1243 -0.0689
  134loPI   GL1 2133   9.369   9.397   9.867 -0.3091 -0.4018 -0.1460
  134loPI   GL2 2134   9.416   9.706   9.743  0.1576 -0.1272 -0.2695
  134loPI   C1A 2135   9.647   9.335   9.517  0.0367 -0.1254 -0.0128
  134loPI   C2A 2136   9.652   9.250   9.056 -0.0187  0.1252 -0.2009
  134loPI   C3A 2137   9.546   9.323   8.643 -0.0288 -0.2683  0.0340
  134loPI   C4A 2138   9.611   9.344   8.210  0.1174 -0.0114 -0.0816
  134loPI   C5A 2139   9.707   9.376   7.812 -0.1371 -0.1004  0.2149
  134loPI   C6A 2140   9.695   9.238   7.419  0.0679  0.0467  0.1154
  134loPI   C1B 2141   9.377   9.643   9.226 -0.0291 -0.2967  0.0916
  134loPI   C2B 2142   9.344   9.722   8.822  0.0426 -0.0569  0.0238
  134loPI   C3B 2143   9.242   9.702   8.414 -0.1656  0.2040  0.0163
  134loPI   C4B 2144   9.338   9.680   7.967 -0.1184 -0.2014  0.0910
  135loPI    C1 2145  16.528   4.521  10.693 -0.2154 -0.2592 -0.0273
  135loPI    C2 2146  16.548   4.803  10.976 -0.3121  0.0013 -0.2761
  135loPI    C3 2147  16.456   4.427  11.076  0.3117 -0.0583  0.1297
  135loPI   PO4 2148  16.466   4.564  10.466 -0.1731  0.1174  0.1262
  135loPI   GL1 2149  16.227   4.627  10.049 -0.1388 -0.1407  0.0200
  135loPI   GL2 2150  16.381   4.433   9.901 -0.0997  0.2127  0.0475
  135loPI   C1A 2151  16.250   4.695   9.546  0.3519 -0.1629  0.0183
  135loPI   C2A 2152  16.453   4.642   9.079  0.0268 -0.0158  0.0223
  135loPI   C3A 2153  16.389   4.839   8.709  0.1473  0.0207  0.0115
  135loPI   C4A 2154  16.189   4.876   8.281 -0.0355 -0.0668  0.0447
  135loPI   C5A 2155  15.862   4.975   8.023 -0.0423  0.0865 -0.1033
  135loPI   C6A 2156  15.414   4.800   7.986  0.1035  0.2596  0.1069
  135loPI   C1B 2157  16.359   4.251   9.455  0.2045  0.0274  0.4281
  135loPI   C2B 2158  16.208   3.949   9.145  0.2442 -0.0595 -0.0239
  135loPI   C3B 2159  16.067   3.980   8.794 -0.0386 -0.0514  0.0567
  135loPI   C4B 2160  15.907   3.810   8.439 -0.0489  0.0908 -0.1045
  136loPI    C1 2161   6.968   3.462  10.945 -0.1529  0.0725  0.0075
  136loPI    C2 2162   7.225   3.763  11.002 -0.1771  0.0548  0.2184
  136loPI    C3 2163   7.274   3.418  11.197 -0.1884 -0.0558  0.0286
  136loPI   PO4 2164   6.982   3.387  10.680  0.0384  0.0120  0.1176
  136loPI   GL1 2165   6.675   3.567  10.387  0.1732 -0.1879 -0.2307
  136loPI   GL2 2166   6.515   3.577  10.238  0.2350  0.1618 -0.0066
  136loPI   C1A 2167   6.971   3.575  10.021  0.1368 -0.1823 -0.0437
  136loPI   C2A 2168   7.103   3.560   9.640  0.1788 -0.1090  0.1223
  136loPI   C3A 2169   7.134   3.586   9.179 -0.1250  0.0437 -0.1215
  136loPI   C4A 2170   7.131   3.520   8.706  0.1288  0.0133  0.1540
  136loPI   C5A 2171   7.521   3.598   8.377 -0.0629 -0.1420  0.1479
  136loPI   C6A 2172   7.883   3.610   8.156 -0.1666  0.3142 -0.1045
  136loPI   C1B 2173   6.500   3.655   9.823  0.0381 -0.2643  0.0455
  136loPI   C2B 2174   6.592   3.612   9.435 -0.0090 -0.2364  0.2207
  136loPI   C3B 2175   6.553   3.578   9.013  0.1243  0.0041 -0.0164
  136loPI   C4B 2176   6.608   3.591   8.631 -0.3288 -0.1810  0.1222
  137loPI    C1 2177  13.167   2.173  10.930 -0.1180 -0.1990 -0.0516
  137loPI    C2 2178  12.921   2.487  10.961  0.0757 -0.0362 -0.1463
  137loPI    C3 2179  12.970   2.240  11.272  0.0882  0.1519  0.0027
  137loPI   PO4 2180  13.122   2.019  10.654 -0.2491 -0.0048  0.2635
  137loPI   GL1 2181  13.353   1.966  10.404  0.0971 -0.1493 -0.6291
  137loPI   GL2 2182  13.389   1.689  10.248 -0.1210  0.4964 -0.1989
  137loPI   C1A 2183  13.476   2.073   9.973 -0.1236 -0.1461 -0.0308
  137loPI   C2A 2184  13.482   2.112   9.566 -0.0712  0.0462  0.1733
  137loPI   C3A 2185  13.452   2.129   9.106  0.0072  0.0444 -0.0660
  137loPI   C4A 2186  13.329   1.943   8.753 -0.0768  0.2786  0.1074
  137loPI   C5A 2187  13.457   2.001   8.337 -0.1013  0.2681 -0.2222
  137loPI   C6A 2188  13.588   2.356   8.050  0.1290  0.3041  0.1805
  137loPI   C1B 2189  13.322   1.589   9.789  0.0626  0.1135  0.1301
  137loPI   C2B 2190  13.261   1.564   9.330 -0.0427  0.4370 -0.1134
  137loPI   C3B 2191  13.246   1.488   8.934 -0.1082  0.2603 -0.2222
  137loPI   C4B 2192  13.156   1.571   8.405 -0.0842 -0.2324 -0.1013
  138loPI    C1 2193  16.534  14.972  11.058 -0.1802 -0.1753 -0.1943
  138loPI    C2 2194  16.307  15.276  10.934  0.0376  0.0480 -0.0547
  138loPI    C3 2195  16.480  15.290  11.295  0.0231 -0.2571 -0.0339
  138loPI   PO4 2196  16.601  14.844  10.818  0.0535 -0.2199 -0.0646
  138loPI   GL1 2197  16.525  14.669  10.361  0.2405 -0.0206  0.1694
  138loPI   GL2 2198  16.702  14.556  10.185  0.2725  0.2091  0.1669
  138loPI   C1A 2199  16.484  14.953  10.025  0.3353  0.1817 -0.1401
  138loPI   C2A 2200  16.770  15.024   9.758 -0.2449  0.1072 -0.2869
  138loPI   C3A 2201  16.708  14.986   9.342 -0.0072  0.1549 -0.1241
  138loPI   C4A 2202  16.551  14.950   8.971  0.0796 -0.1450  0.0866
  138loPI   C5A 2203  16.424  14.878   8.492 -0.1400 -0.2158 -0.0075
  138loPI   C6A 2204  16.234  15.284   8.300  0.3291 -0.0640 -0.0511
  138loPI   C1B 2205  16.815  14.516   9.790 -0.1722  0.0760  0.0728
  138loPI   C2B 2206  17.280  14.393   9.624  0.0960 -0.1469  0.0181
  138loPI   C3B 2207  17.360  14.408   9.180  0.0726  0.3138 -0.0783
  138loPI   C4B 2208  17.355  14.373   8.820  0.0495  0.1469  0.0087
  139loPI    C1 2209   3.858  17.308  11.268 -0.1768  0.0457  0.0026
  139loPI    C2 2210   3.947  17.678  11.390 -0.1442 -0.0870  0.3974
  139loPI    C3 2211   4.115  17.363  11.570  0.2350 -0.2884 -0.2745
  139loPI   PO4 2212   3.895  17.222  10.951 -0.1531  0.2341  0.0064
  139loPI   GL1 2213   4.029  17.213  10.513 -0.1098 -0.0438 -0.1363
  139loPI   GL2 2214   3.779  17.406  10.482 -0.1201 -0.0533 -0.1418
  139loPI   C1A 2215   3.971  17.178  10.102 -0.1292  0.1433 -0.1017
  139loPI   C2A 2216   3.929  17.284   9.651 -0.0671  0.0161 -0.1538
  139loPI   C3A 2217   3.850  17.242   9.156 -0.0828  0.0312  0.0950
  139loPI   C4A 2218   3.844  17.242   8.717  0.0429  0.2716 -0.0409
  139loPI   C5A 2219   3.919  17.458   8.385  0.2642  0.2344  0.0824
  139loPI   C6A 2220   4.058  17.526   7.988  0.0690 -0.1188 -0.5173
  139loPI   C1B 2221   3.596  17.536  10.136  0.1195  0.1705  0.0558
  139loPI   C2B 2222   3.632  17.673   9.743  0.1309 -0.0794 -0.1860
  139loPI   C3B 2223   3.666  17.732   9.314 -0.5066  0.1449  0.2099
  139loPI   C4B 2224   3.625  17.693   8.910 -0.1215  0.1534  0.3265
  140loPI    C1 2225  11.101  10.634  10.765  0.1246  0.3598 -0.1234
  140loPI    C2 2226  11.147  10.686  11.159  0.0609  0.2376 -0.0993
  140loPI    C3 2227  10.788  10.593  11.010  0.0908  0.2556 -0.1834
  140loPI   PO4 2228  11.331  10.516  10.678  0.0225 -0.1884  0.2105
  140loPI   GL1 2229  11.333  10.366  10.238 -0.0696  0.0300 -0.2904
  140loPI   GL2 2230  11.224  10.606  10.168  0.0610 -0.0233 -0.1376
  140loPI   C1A 2231  11.273  10.165   9.843 -0.2435 -0.0712 -0.3514
  140loPI   C2A 2232  11.245  10.172   9.400  0.1676  0.1349 -0.1415
  140loPI   C3A 2233  11.145  10.147   8.999 -0.0510  0.0903 -0.1489
  140loPI   C4A 2234  11.301  10.143   8.702  0.1905  0.4147 -0.4797
  140loPI   C5A 2235  11.440  10.322   8.301  0.1809 -0.1343  0.0064
  140loPI   C6A 2236  11.505  10.564   7.907  0.1225  0.1148  0.0752
  140loPI   C1B 2237  11.040  10.637   9.719  0.0209 -0.1904  0.0222
  140loPI   C2B 2238  11.038  10.659   9.262  0.0972 -0.0958  0.2502
  140loPI   C3B 2239  11.010  10.575   8.913 -0.0937  0.2278  0.0713
  140loPI   C4B 2240  10.900  10.399   8.561  0.1492 -0.0943  0.1651
  141loPI    C1 2241   5.177   0.990  10.743 -0.0356  0.0738 -0.0666
  141loPI    C2 2242   5.355   1.037  11.098  0.0155 -0.2894 -0.0405
  141loPI    C3 2243   5.085   0.747  11.046 -0.3116  0.0313 -0.1811
  141loPI   PO4 2244   5.438   1.019  10.578  0.0694  0.3016 -0.2380
  141loPI   GL1 2245   5.364   1.064  10.196 -0.1750 -0.1878  0.0364
  141loPI   GL2 2246   5.474   0.831  10.065 -0.1873  0.1031  0.0665
  141loPI   C1A 2247   5.193   1.322   9.911  0.0224  0.0956  0.1402
  141loPI   C2A 2248   5.228   1.416   9.506  0.2349 -0.0877  0.0670
  141loPI   C3A 2249   5.154   1.444   9.046  0.3138 -0.0767  0.1442
  141loPI   C4A 2250   5.065   1.319   8.679 -0.1795 -0.1357  0.0265
  141loPI   C5A 2251   5.221   1.380   8.279 -0.0257  0.1569  0.0012
  141loPI   C6A 2252   5.341   1.786   7.994  0.0411 -0.1798 -0.0523
  141loPI   C1B 2253   5.467   0.932   9.578  0.0887  0.1295 -0.0933
  141loPI   C2B 2254   5.610   1.223   9.172 -0.0238 -0.0653 -0.0011
  141loPI   C3B 2255   5.608   1.427   8.786 -0.1620 -0.0638  0.1847
  141loPI   C4B 2256   5.483   1.778   8.529 -0.1779  0.2077  0.1367
  142loPI    C1 2257  16.384  11.366  10.737 -0.0975  0.0197  0.0917
  142loPI    C2 2258  16.500  11.606  11.035 -0.3317  0.0233  0.1821
  142loPI    C3 2259  16.512  11.209  11.082  0.0270  0.0138  0.0434
  142loPI   PO4 2260  16.389  11.463  10.509 -0.1383 -0.1809 -0.0035
  142loPI   GL1 2261  16.602  11.285  10.273 -0.0360  0.2772  0.0534
  142loPI   GL2 2262  16.827  11.136  10.154  0.0219 -0.1398 -0.1147
  142loPI   C1A 2263  16.659  11.301   9.714  0.1433 -0.3282 -0.0739
  142loPI   C2A 2264  16.670  11.356   9.248 -0.1860 -0.0658 -0.1716
  142loPI   C3A 2265  16.664  11.281   8.846  0.2458 -0.1428 -0.1942
  142loPI   C4A 2266  16.689  11.232   8.414  0.1421 -0.5343  0.3499
  142loPI   C5A 2267  16.913  11.402   8.137 -0.0229 -0.0280  0.1127
  142loPI   C6A 2268  17.120  11.351   7.822 -0.1331 -0.2091  0.1816
  142loPI   C1B 2269  16.924  10.789   9.813 -0.1870 -0.0103  0.0600
  142loPI   C2B 2270  16.802  10.850   9.366  0.1856  0.2425  0.1508
  142loPI   C3B 2271  16.807  10.802   8.979 -0.1767  0.0589 -0.0188
  142loPI   C4B 2272  16.849  10.712   8.520 -0.0102  0.1790 -0.0284
  143loPI    C1 2273   5.971   6.740  10.580  0.1188  0.1772  0.1208
  143loPI    C2 2274   5.808   7.100  10.641  0.0761  0.1658  0.0748
  143loPI    C3 2275   5.906   6.870  10.953 -0.0042  0.1690  0.1026
  143loPI   PO4 2276   5.849   6.667  10.360  0.0674 -0.0757  0.2237
  143loPI   GL1 2277   5.624   6.345  10.267 -0.0482 -0.0858 -0.0934
  143loPI   GL2 2278   5.374   6.497  10.273 -0.0791 -0.0263 -0.0517
  143loPI   C1A 2279   5.551   6.303   9.785 -0.2135  0.1722  0.3534
  143loPI   C2A 2280   5.608   6.382   9.231 -0.1344  0.0429  0.2272
  143loPI   C3A 2281   5.539   6.344   8.794  0.3926  0.1377 -0.1771
  143loPI   C4A 2282   5.565   6.300   8.308 -0.1520 -0.2103  0.1019
  143loPI   C5A 2283   5.348   6.151   7.991  0.1432  0.1379  0.1512
  143loPI   C6A 2284   5.290   6.253   7.515 -0.1130 -0.3272  0.0195
  143loPI   C1B 2285   5.262   6.723   9.883  0.0249 -0.2149  0.0471
  143loPI   C2B 2286   5.290   6.764   9.403 -0.0825 -0.0056  0.1240
  143loPI   C3B 2287   5.327   6.844   8.967 -0.2540  0.3077  0.0703
  143loPI   C4B 2288   5.362   6.874   8.541  0.2212 -0.3745 -0.1374
  144loPI    C1 2289   9.722   6.444  11.176 -0.2571  0.0212  0.1510
  144loPI    C2 2290  10.065   6.420  11.381 -0.0842  0.3319 -0.0941
  144loPI    C3 2291   9.759   6.181  11.475  0.1507  0.1469  0.2176
  144loPI   PO4 2292   9.800   6.482  10.959 -0.0477 -0.2084 -0.0274
  144loPI   GL1 2293   9.863   6.479  10.459  0.2002 -0.0876 -0.1511
  144loPI   GL2 2294   9.619   6.486  10.226 -0.0802  0.0969 -0.1201
  144loPI   C1A 2295   9.999   6.803  10.094  0.1163 -0.0563 -0.2791
  144loPI   C2A 2296   9.991   7.187   9.931  0.0579 -0.1093  0.0696
  144loPI   C3A 2297  10.065   7.395   9.609 -0.1974  0.2587 -0.0714
  144loPI   C4A 2298  10.129   7.418   9.106  0.2878 -0.1375  0.0737
  144loPI   C5A 2299  10.027   7.444   8.619 -0.3117 -0.0659 -0.1966
  144loPI   C6A 2300   9.891   7.384   8.308  0.0725  0.1723 -0.3592
  144loPI   C1B 2301   9.473   6.505   9.859 -0.0360 -0.0954 -0.2093
  144loPI   C2B 2302   9.437   6.630   9.447 -0.2154  0.2413 -0.1505
  144loPI   C3B 2303   9.449   6.756   9.119 -0.3220  0.2284 -0.0224
  144loPI   C4B 2304   9.403   6.591   8.714  0.3845  0.2298  0.3258
  145loPI    C1 2305   1.036  11.394  10.714  0.2570  0.0562 -0.2095
  145loPI    C2 2306   1.372  11.225  10.851 -0.0147 -0.2180  0.1371
  145loPI    C3 2307   1.183  11.502  11.070 -0.0109 -0.0562 -0.0616
  145loPI   PO4 2308   0.925  11.192  10.597  0.0276 -0.0326  0.1222
  145loPI   GL1 2309   0.541  11.160  10.341  0.0607  0.2434 -0.0180
  145loPI   GL2 2310   0.256  11.336  10.343 -0.0490 -0.1300  0.0382
  145loPI   C1A 2311   0.599  11.049   9.858  0.0876 -0.0501  0.2115
  145loPI   C2A 2312   0.644  11.113   9.461 -0.1969 -0.2969  0.0266
  145loPI   C3A 2313   0.671  11.062   9.017 -0.1730  0.3143 -0.1240
  145loPI   C4A 2314   0.594  11.121   8.660 -0.1522 -0.2750  0.2703
  145loPI   C5A 2315   0.508  11.180   8.283  0.0057  0.0293 -0.1505
  145loPI   C6A 2316   0.187  11.443   8.072 -0.2219 -0.1558 -0.4308
  145loPI   C1B 2317   0.372  11.492   9.929  0.2897 -0.0341  0.1707
  145loPI   C2B 2318   0.473  11.598   9.494 -0.2142  0.1577 -0.0729
  145loPI   C3B 2319   0.498  11.559   9.077  0.2642  0.0119 -0.1662
  145loPI   C4B 2320   0.298  11.538   8.649 -0.1059 -0.2654  0.1650
  146loPI    C1 2321   1.714   5.568  10.640  0.0149  0.0120  0.1766
  146loPI    C2 2322   1.518   5.460  10.972  0.0426  0.0438  0.2034
  146loPI    C3 2323   1.889   5.608  10.998  0.0602  0.0085  0.1549
  146loPI   PO4 2324   1.701   5.378  10.524 -0.0218  0.0003  0.0435
  146loPI   GL1 2325   1.660   5.394  10.093  0.1822  0.1993 -0.0258
  146loPI   GL2 2326   1.401   5.587  10.153 -0.3309 -0.0583  0.0983
  146loPI   C1A 2327   1.727   5.181   9.696 -0.0997 -0.1207 -0.0095
  146loPI   C2A 2328   1.652   5.148   9.223  0.2336  0.1415  0.0548
  146loPI   C3A 2329   1.668   5.106   8.789 -0.2562 -0.1290  0.1490
  146loPI   C4A 2330   1.748   5.330   8.412 -0.0316 -0.1946 -0.4503
  146loPI   C5A 2331   1.712   5.281   7.931 -0.1666  0.0035 -0.0092
  146loPI   C6A 2332   1.610   4.884   7.784 -0.0083  0.1303 -0.0094
  146loPI   C1B 2333   1.409   5.617   9.736 -0.0105 -0.1108 -0.3731
  146loPI   C2B 2334   1.398   5.616   9.339 -0.1154  0.0300 -0.3625
  146loPI   C3B 2335   1.351   5.669   8.851 -0.2289  0.1359  0.2406
  146loPI   C4B 2336   1.492   5.709   8.422 -0.0055 -0.3395 -0.1650
  147loPI    C1 2337  14.179   4.602  10.816  0.3103 -0.0417  0.2026
  147loPI    C2 2338  13.789   4.512  10.812  0.2404  0.2553  0.0044
  147loPI    C3 2339  14.027   4.357  11.093 -0.0195  0.0724  0.1278
  147loPI   PO4 2340  14.280   4.472  10.542  0.1658  0.1786  0.1493
  147loPI   GL1 2341  14.275   4.272  10.159  0.0731  0.0328 -0.3271
  147loPI   GL2 2342  14.238   3.904  10.230 -0.2519 -0.0372  0.1058
  147loPI   C1A 2343  14.411   4.629   9.813 -0.2380  0.1879 -0.1097
  147loPI   C2A 2344  14.400   4.708   9.347  0.0566  0.2463 -0.1544
  147loPI   C3A 2345  14.464   4.746   8.927  0.0790  0.0721  0.0232
  147loPI   C4A 2346  14.458   4.645   8.488 -0.1298 -0.3603  0.1626
  147loPI   C5A 2347  14.470   4.952   8.053  0.2131  0.2105  0.2027
  147loPI   C6A 2348  14.212   5.212   7.939  0.1640 -0.0839  0.0610
  147loPI   C1B 2349  14.191   3.725   9.817 -0.3081 -0.1209 -0.2532
  147loPI   C2B 2350  14.177   3.691   9.377  0.0567 -0.0300 -0.0569
  147loPI   C3B 2351  14.142   3.753   8.922 -0.0107 -0.3177  0.3009
  147loPI   C4B 2352  14.173   3.735   8.434 -0.0932  0.1566 -0.3006
  148loPI    C1 2353   9.268   0.008  10.787  0.0208 -0.1307  0.0990
  148loPI    C2 2354   9.558  -0.029  11.059  0.0978  0.0245  0.0391
  148loPI    C3 2355   9.540  -0.283  10.751  0.3038  0.1498 -0.0785
  148loPI   PO4 2356   9.250   0.235  10.672 -0.0726  0.0016 -0.0897
  148loPI   GL1 2357   9.085   0.408  10.331  0.1028 -0.1826  0.0372
  148loPI   GL2 2358   8.874   0.568  10.250  0.1103 -0.1594  0.1731
  148loPI   C1A 2359   9.207   0.278   9.847  0.1483  0.0723 -0.0127
  148loPI   C2A 2360   9.276   0.224   9.300 -0.1012 -0.0238  0.2458
  148loPI   C3A 2361   9.181   0.331   8.748 -0.1263  0.2161  0.0357
  148loPI   C4A 2362   9.135   0.179   8.307  0.1243  0.0060 -0.2135
  148loPI   C5A 2363   9.160   0.308   7.912 -0.0935 -0.5040  0.0996
  148loPI   C6A 2364   8.868   0.157   7.548  0.1762 -0.0183 -0.0507
  148loPI   C1B 2365   8.614   0.425  10.003 -0.0224 -0.4755 -0.2850
  148loPI   C2B 2366   8.395   0.345   9.720  0.1136 -0.2658 -0.0797
  148loPI   C3B 2367   8.404   0.024   9.429  0.1581 -0.2354  0.2948
  148loPI   C4B 2368   8.239  -0.504   9.373 -0.1782 -0.2250 -0.3423
  149loPI    C1 2369  16.540  13.487  10.321 -0.0423 -0.0707 -0.0245
  149loPI    C2 2370  16.591  13.203  10.597 -0.0285 -0.0464 -0.0020
  149loPI    C3 2371  16.245  13.403  10.579 -0.0570 -0.0998 -0.0506
  149loPI   PO4 2372  16.824  13.607  10.365 -0.1156  0.0800 -0.0261
  149loPI   GL1 2373  16.950  13.528   9.968 -0.1923 -0.1195 -0.0047
  149loPI   GL2 2374  16.988  13.858   9.950  0.1867  0.2696 -0.0003
  149loPI   C1A 2375  17.206  13.430   9.591  0.1557  0.1535  0.0580
  149loPI   C2A 2376  17.246  13.486   9.167  0.1697 -0.0739  0.1276
  149loPI   C3A 2377  17.152  13.473   8.666  0.2336 -0.0742  0.2356
  149loPI   C4A 2378  16.766  13.573   8.441  0.0419  0.3535  0.0109
  149loPI   C5A 2379  16.564  13.318   8.213 -0.1188 -0.1863 -0.0911
  149loPI   C6A 2380  16.633  13.056   7.823  0.2633  0.2439  0.0861
  149loPI   C1B 2381  16.986  13.969   9.546  0.2382  0.0560 -0.0344
  149loPI   C2B 2382  17.040  13.981   9.102  0.1402  0.1387  0.0748
  149loPI   C3B 2383  17.013  14.046   8.703  0.1616  0.0881  0.1861
  149loPI   C4B 2384  16.821  14.065   8.375 -0.4560 -0.0101 -0.0641
  150loPI    C1 2385  16.932  14.088  10.568 -0.2082 -0.1371  0.2330
  150loPI    C2 2386  16.804  14.431  10.729 -0.0460 -0.1013  0.2880
  150loPI    C3 2387  17.001  14.166  10.955 -0.1148 -0.2023  0.2299
  150loPI   PO4 2388  17.023  14.131  10.342 -0.3786  0.2254 -0.0768
  150loPI   GL1 2389  17.176  14.391  10.091  0.3107 -0.2128 -0.1666
  150loPI   GL2 2390  17.469  14.312  10.101 -0.3774 -0.2700  0.0611
  150loPI   C1A 2391  17.161  14.826   9.954 -0.1167 -0.0775 -0.0949
  150loPI   C2A 2392  17.227  14.867   9.534  0.0494  0.3147  0.3902
  150loPI   C3A 2393  17.196  14.898   9.092  0.0605 -0.1730 -0.0380
  150loPI   C4A 2394  17.028  14.754   8.687 -0.2230  0.1732 -0.0871
  150loPI   C5A 2395  16.850  14.731   8.284  0.0028  0.1014 -0.0159
  150loPI   C6A 2396  16.918  14.384   7.998  0.0275 -0.3674 -0.0329
  150loPI   C1B 2397  17.545  14.004   9.899 -0.1023  0.0290 -0.1491
  150loPI   C2B 2398  17.497  13.944   9.429  0.0627  0.0013  0.2124
  150loPI   C3B 2399  17.569  13.901   9.119  0.1202 -0.0574 -0.4331
  150loPI   C4B 2400  17.483  13.920   8.680  0.0554  0.0632 -0.1005
  151loPI    C1 2401   2.496   6.957  10.734  0.1967  0.1059  0.1362
  151loPI    C2 2402   2.175   7.179  10.823  0.0437 -0.0465 -0.0275
  151loPI    C3 2403   2.257   6.851  11.037 -0.0919 -0.1845 -0.1846
  151loPI   PO4 2404   2.510   6.943  10.510 -0.0552 -0.1366  0.0908
  151loPI   GL1 2405   2.253   6.993  10.123  0.2154  0.1593  0.1289
  151loPI   GL2 2406   2.281   6.645  10.144 -0.2125  0.0831  0.1368
  151loPI   C1A 2407   2.317   6.879   9.655 -0.0964 -0.0516 -0.1047
  151loPI   C2A 2408   2.266   6.820   9.219  0.1702 -0.2724  0.0565
  151loPI   C3A 2409   2.205   6.849   8.756 -0.0398  0.0220  0.2404
  151loPI   C4A 2410   2.179   6.794   8.295 -0.2110  0.2584 -0.0958
  151loPI   C5A 2411   2.385   6.578   8.011 -0.0015 -0.0371 -0.0861
  151loPI   C6A 2412   2.751   6.234   8.091  0.2142  0.0664  0.0908
  151loPI   C1B 2413   2.469   6.424   9.852 -0.2884 -0.1879 -0.1179
  151loPI   C2B 2414   2.487   6.422   9.456  0.0340 -0.1816  0.2340
  151loPI   C3B 2415   2.489   6.432   9.013  0.2043 -0.1358 -0.0257
  151loPI   C4B 2416   2.473   6.410   8.526 -0.0474 -0.1663  0.0820
  152loPI    C1 2417  16.523  12.289  10.589 -0.5994 -0.0956  0.2378
  152loPI    C2 2418  16.568  11.903  10.682  0.2979 -0.0260  0.1718
  152loPI    C3 2419  16.595  12.181  10.967  0.1742  0.0205  0.1387
  152loPI   PO4 2420  16.655  12.348  10.340 -0.1259  0.0341 -0.4794
  152loPI   GL1 2421  16.344  12.347  10.089 -0.0142  0.0117 -0.1288
  152loPI   GL2 2422  16.612  12.591   9.894 -0.1327 -0.2085  0.1334
  152loPI   C1A 2423  16.225  12.249   9.698  0.0546 -0.0508 -0.0459
  152loPI   C2A 2424  16.284  12.345   9.271  0.0477  0.2502 -0.0727
  152loPI   C3A 2425  16.278  12.208   8.930 -0.2838  0.1815 -0.1178
  152loPI   C4A 2426  16.442  12.212   8.501  0.1659 -0.0493 -0.2358
  152loPI   C5A 2427  16.347  12.436   8.187  0.1505  0.0559 -0.3474
  152loPI   C6A 2428  16.399  12.840   8.216 -0.0600 -0.1087 -0.0253
  152loPI   C1B 2429  16.660  12.644   9.452 -0.3248  0.2128 -0.1905
  152loPI   C2B 2430  16.559  12.630   8.958 -0.2554  0.3470 -0.0009
  152loPI   C3B 2431  16.702  12.626   8.564 -0.0904  0.0920  0.0152
  152loPI   C4B 2432  16.880  12.645   8.216 -0.0290 -0.3480  0.2651
  153loPI    C1 2433   4.288  13.487  10.618  0.1918  0.1700 -0.1176
  153loPI    C2 2434   4.524  13.582  10.926  0.2837 -0.1834 -0.0738
  153loPI    C3 2435   4.205  13.347  10.983  0.0008  0.1695 -0.1597
  153loPI   PO4 2436   4.297  13.377  10.469 -0.2909  0.2881 -0.0429
  153loPI   GL1 2437   4.505  13.399  10.134 -0.1776 -0.0084  0.0111
  153loPI   GL2 2438   4.554  13.097  10.116 -0.1165  0.3197  0.0756
  153loPI   C1A 2439   4.146  13.255   9.844 -0.2076 -0.0700 -0.1151
  153loPI   C2A 2440   3.957  13.220   9.479 -0.0297  0.2791 -0.2147
  153loPI   C3A 2441   3.719  13.141   9.135  0.1685  0.2110  0.0081
  153loPI   C4A 2442   3.766  13.104   8.705  0.1088 -0.0418  0.0248
  153loPI   C5A 2443   3.940  13.182   8.303 -0.0320 -0.0375  0.0533
  153loPI   C6A 2444   4.209  13.032   7.971  0.0322  0.0819  0.4011
  153loPI   C1B 2445   4.702  13.230   9.724 -0.0028 -0.0051  0.3123
  153loPI   C2B 2446   4.685  13.427   9.236  0.1953 -0.1095  0.0521
  153loPI   C3B 2447   4.608  13.792   9.048  0.2018  0.1170  0.0210
  153loPI   C4B 2448   4.476  14.173   9.116 -0.0694 -0.1171  0.2604
  154loPI    C1 2449   8.938   8.236  10.577 -0.2174  0.0697  0.0413
  154loPI    C2 2450   8.818   8.411  10.916 -0.0358  0.0376  0.1233
  154loPI    C3 2451   9.105   8.133  10.925 -0.0875 -0.0225 -0.0474
  154loPI   PO4 2452   8.927   8.463  10.439  0.1133 -0.3804  0.1243
  154loPI   GL1 2453   8.936   8.628   9.957  0.1593 -0.2164 -0.0562
  154loPI   GL2 2454   9.159   8.511   9.840 -0.0315 -0.2005 -0.0356
  154loPI   C1A 2455   8.856   8.816   9.567  0.1440  0.0651 -0.1619
  154loPI   C2A 2456   8.769   8.845   9.139  0.1588  0.2611 -0.1343
  154loPI   C3A 2457   8.761   8.889   8.721  0.0211 -0.1017 -0.0279
  154loPI   C4A 2458   8.689   8.824   8.324 -0.0130 -0.1177 -0.0691
  154loPI   C5A 2459   8.745   8.981   7.921 -0.2649  0.2581 -0.0745
  154loPI   C6A 2460   8.820   8.781   7.547 -0.0408 -0.1977 -0.1464
  154loPI   C1B 2461   9.065   8.412   9.385 -0.1351  0.0596  0.0923
  154loPI   C2B 2462   8.981   8.425   9.004 -0.1341  0.0019  0.1402
  154loPI   C3B 2463   9.018   8.432   8.589  0.1531  0.0645 -0.0720
  154loPI   C4B 2464   9.064   8.526   8.191 -0.3269 -0.0192 -0.1773
  155loPI    C1 2465  14.568   3.606  10.507  0.0027  0.2121  0.1376
  155loPI    C2 2466  14.415   3.548  10.871 -0.0924  0.0505  0.0730
  155loPI    C3 2467  14.767   3.733  10.830 -0.0239 -0.0361  0.2539
  155loPI   PO4 2468  14.551   3.415  10.395  0.1398  0.2481 -0.1274
  155loPI   GL1 2469  14.421   3.095  10.120 -0.1785  0.0617 -0.2354
  155loPI   GL2 2470  14.535   3.367   9.911  0.3753  0.0680 -0.0821
  155loPI   C1A 2471  14.510   2.890   9.738 -0.1307  0.0638  0.1545
  155loPI   C2A 2472  14.441   2.873   9.294 -0.2654  0.3535  0.1907
  155loPI   C3A 2473  14.456   2.888   8.894  0.0511 -0.1525  0.1477
  155loPI   C4A 2474  14.416   2.797   8.401 -0.0412 -0.2769  0.0595
  155loPI   C5A 2475  14.447   2.881   7.945 -0.0425  0.1964 -0.0629
  155loPI   C6A 2476  14.334   3.070   7.641 -0.3007  0.1036 -0.0289
  155loPI   C1B 2477  14.600   3.332   9.481 -0.0012 -0.2694 -0.1980
  155loPI   C2B 2478  14.470   3.385   9.104 -0.1055  0.1600 -0.0002
  155loPI   C3B 2479  14.460   3.371   8.758  0.1511  0.0434  0.1177
  155loPI   C4B 2480  14.519   3.359   8.296 -0.3726  0.2239  0.0013
  156loPI    C1 2481  14.309  18.032  10.490 -0.4060 -0.0025  0.0562
  156loPI    C2 2482  14.447  18.298  10.226 -0.0790  0.2428  0.4613
  156loPI    C3 2483  14.053  18.244  10.268 -0.1361  0.1622 -0.1027
  156loPI   PO4 2484  14.477  17.817  10.412 -0.0312  0.3711 -0.0594
  156loPI   GL1 2485  14.365  17.623  10.086 -0.1100 -0.2770 -0.0232
  156loPI   GL2 2486  14.229  17.886   9.930  0.3229  0.0188  0.4185
  156loPI   C1A 2487  14.531  17.339   9.813  0.1017 -0.0157  0.3444
  156loPI   C2A 2488  14.549  17.334   9.335 -0.0211  0.2852  0.2696
  156loPI   C3A 2489  14.579  17.388   8.892 -0.1323 -0.0886 -0.0368
  156loPI   C4A 2490  14.496  17.224   8.504  0.0221 -0.0448  0.2309
  156loPI   C5A 2491  14.346  16.869   8.391 -0.0910  0.0732 -0.0154
  156loPI   C6A 2492  14.151  16.632   7.972 -0.3785 -0.1812 -0.1438
  156loPI   C1B 2493  14.092  18.065   9.565 -0.1175 -0.0391 -0.0689
  156loPI   C2B 2494  13.992  18.071   9.164  0.0306 -0.3678 -0.2823
  156loPI   C3B 2495  13.707  17.955   8.836 -0.0808 -0.0645  0.2512
  156loPI   C4B 2496  13.634  17.917   8.391  0.0780  0.1018  0.0201
  157loPI    C1 2497   2.380   0.792  11.003 -0.2157 -0.1336  0.2021
  157loPI    C2 2498   2.260   0.492  11.238  0.0935 -0.1541  0.3388
  157loPI    C3 2499   2.435   0.813  11.398  0.1963 -0.1131  0.1478
  157loPI   PO4 2500   2.230   0.944  10.872  0.2127  0.1099  0.0336
  157loPI   GL1 2501   2.037   0.888  10.564  0.1205  0.0260 -0.0569
  157loPI   GL2 2502   1.763   0.679  10.436  0.2423 -0.3641 -0.1392
  157loPI   C1A 2503   2.113   0.631  10.126  0.0696 -0.2209  0.2572
  157loPI   C2A 2504   2.045   0.620   9.689  0.1892  0.0989  0.1240
  157loPI   C3A 2505   2.135   0.645   9.302 -0.0457 -0.1085  0.1810
  157loPI   C4A 2506   2.086   0.549   8.896 -0.4544  0.1249 -0.2531
  157loPI   C5A 2507   2.062   0.422   8.554  0.2229  0.3137  0.4303
  157loPI   C6A 2508   1.860   0.020   8.511 -0.1866 -0.1683 -0.1028
  157loPI   C1B 2509   1.555   0.777  10.024  0.1472  0.2315 -0.3853
  157loPI   C2B 2510   1.555   0.610   9.606 -0.1542  0.3674 -0.0268
  157loPI   C3B 2511   1.634   0.596   9.187  0.2812  0.0198 -0.1808
  157loPI   C4B 2512   1.654   0.456   8.756  0.1843 -0.0579 -0.0957
  158loPI    C1 2513   3.209   8.554  10.648  0.0542  0.1828  0.1200
  158loPI    C2 2514   2.927   8.607  10.927 -0.0914 -0.0859  0.0281
  158loPI    C3 2515   3.313   8.618  11.029 -0.1389  0.0276  0.2013
  158loPI   PO4 2516   3.108   8.366  10.522 -0.1308 -0.2622  0.0421
  158loPI   GL1 2517   2.863   8.320  10.215 -0.0769 -0.1271  0.0525
  158loPI   GL2 2518   3.035   8.627  10.076  0.3626  0.1790  0.1247
  158loPI   C1A 2519   2.695   8.433   9.786  0.2868 -0.0657 -0.0274
  158loPI   C2A 2520   2.662   8.607   9.352  0.1105  0.0777  0.0058
  158loPI   C3A 2521   2.701   8.527   8.958  0.5073  0.1162  0.1396
  158loPI   C4A 2522   3.111   8.589   8.702 -0.2374 -0.0103 -0.4326
  158loPI   C5A 2523   3.414   8.420   8.848 -0.0652 -0.0596  0.3323
  158loPI   C6A 2524   3.550   8.030   9.004 -0.0499  0.2463 -0.2551
  158loPI   C1B 2525   3.025   8.856   9.632  0.1443 -0.0717 -0.3004
  158loPI   C2B 2526   3.295   9.263   9.403  0.2954  0.1675 -0.1259
  158loPI   C3B 2527   3.390   9.454   8.976  0.0631 -0.1963  0.3329
  158loPI   C4B 2528   3.410   9.578   8.583  0.0226 -0.1419 -0.1812
  159loPI    C1 2529  10.664   9.678  10.435 -0.1095 -0.0367  0.1172
  159loPI    C2 2530  10.311   9.866  10.438  0.0770  0.3211  0.1700
  159loPI    C3 2531  10.459   9.713  10.777  0.0470  0.3134  0.1796
  159loPI   PO4 2532  10.631   9.484  10.276 -0.2528  0.0959 -0.0133
  159loPI   GL1 2533  10.917   9.299  10.016  0.1018  0.0213 -0.0265
  159loPI   GL2 2534  11.208   9.214   9.814  0.2539 -0.2198  0.2420
  159loPI   C1A 2535  10.741   9.237   9.628 -0.1896  0.0458  0.1529
  159loPI   C2A 2536  10.642   9.261   9.226  0.2653 -0.1933 -0.3339
  159loPI   C3A 2537  10.560   9.378   8.806 -0.2890 -0.1726  0.0887
  159loPI   C4A 2538  10.509   9.135   8.398 -0.0568 -0.0763 -0.1052
  159loPI   C5A 2539  10.810   8.882   8.292 -0.0866 -0.1742  0.1677
  159loPI   C6A 2540  11.195   8.848   7.988  0.1314 -0.0975 -0.0864
  159loPI   C1B 2541  11.204   9.200   9.417  0.0644 -0.0732 -0.0556
  159loPI   C2B 2542  11.096   9.271   9.007 -0.1167  0.1302 -0.0665
  159loPI   C3B 2543  11.058   9.296   8.526  0.1382  0.2548 -0.1335
  159loPI   C4B 2544  11.070   9.296   8.103  0.1342 -0.0684  0.0332
  160loPI    C1 2545  17.867   7.592  10.962 -0.4554 -0.0008 -0.1077
  160loPI    C2 2546  17.711   7.224  10.982  0.0037 -0.1904  0.1134
  160loPI    C3 2547  17.868   7.394  11.309 -0.0427  0.1317 -0.0278
  160loPI   PO4 2548  17.937   7.625  10.751  0.0415  0.0035 -0.1130
  160loPI   GL1 2549  17.934   7.635  10.347 -0.1641  0.2847 -0.1095
  160loPI   GL2 2550  17.808   7.932  10.309 -0.0276  0.0864 -0.0309
  160loPI   C1A 2551  17.992   7.725   9.851 -0.0278 -0.0484  0.3865
  160loPI   C2A 2552  17.829   7.673   9.405 -0.3409 -0.1687  0.0092
  160loPI   C3A 2553  17.875   7.688   8.903  0.0525 -0.0701  0.0842
  160loPI   C4A 2554  17.949   7.947   8.595  0.4008 -0.2000  0.0890
  160loPI   C5A 2555  18.266   7.900   8.301 -0.3243  0.0298 -0.0703
  160loPI   C6A 2556  18.516   7.936   7.927  0.1982  0.1738 -0.1943
  160loPI   C1B 2557  17.590   8.080   9.931 -0.2073 -0.2710 -0.0256
  160loPI   C2B 2558  17.492   8.108   9.525 -0.0003  0.0812 -0.0425
  160loPI   C3B 2559  17.668   8.049   9.121 -0.0582  0.1321  0.1803
  160loPI   C4B 2560  18.065   8.022   9.141 -0.1944 -0.0296 -0.2138
  161loPI    C1 2561   8.047   7.975  10.802 -0.0028 -0.0644 -0.0863
  161loPI    C2 2562   7.780   8.068  11.086 -0.0226 -0.0020 -0.1252
  161loPI    C3 2563   8.159   7.988  11.186  0.0509  0.3462 -0.1111
  161loPI   PO4 2564   7.832   7.843  10.586  0.0957  0.3190  0.0434
  161loPI   GL1 2565   7.868   7.827  10.257 -0.2801 -0.2058  0.2554
  161loPI   GL2 2566   7.641   8.102  10.188 -0.1434 -0.1633  0.1696
  161loPI   C1A 2567   7.950   7.669   9.823  0.1729  0.1268  0.1077
  161loPI   C2A 2568   7.941   7.622   9.416  0.1627 -0.1793  0.1248
  161loPI   C3A 2569   7.933   7.562   8.975  0.0338 -0.0229 -0.0677
  161loPI   C4A 2570   7.977   7.578   8.518 -0.1705 -0.0566 -0.0479
  161loPI   C5A 2571   8.097   7.218   8.189  0.1700 -0.1904 -0.0144
  161loPI   C6A 2572   8.392   6.970   7.995 -0.1786 -0.4129 -0.2289
  161loPI   C1B 2573   7.658   8.117   9.735  0.2274 -0.0998 -0.1771
  161loPI   C2B 2574   7.718   8.049   9.287  0.0103 -0.4080  0.0925
  161loPI   C3B 2575   7.701   8.030   8.811 -0.2238  0.1955 -0.1083
  161loPI   C4B 2576   7.664   8.022   8.367 -0.4121  0.0276  0.1118
  162loPI    C1 2577  14.880  15.276  10.950 -0.2861  0.0280 -0.1565
  162loPI    C2 2578  14.668  15.495  11.209 -0.2034 -0.0753  0.0008
  162loPI    C3 2579  14.764  15.118  11.299  0.1673  0.0132 -0.0051
  162loPI   PO4 2580  14.802  15.289  10.780 -0.0712 -0.0126  0.0097
  162loPI   GL1 2581  14.877  15.351  10.385  0.1916  0.0659 -0.1758
  162loPI   GL2 2582  15.021  15.613  10.317  0.1223 -0.1662  0.0123
  162loPI   C1A 2583  14.785  15.347   9.871  0.2491  0.0404 -0.1157
  162loPI   C2A 2584  14.746  15.545   9.467 -0.3123  0.0494 -0.2958
  162loPI   C3A 2585  14.843  15.564   8.954 -0.0905 -0.1391 -0.0178
  162loPI   C4A 2586  15.032  15.578   8.621  0.2168  0.2498  0.1531
  162loPI   C5A 2587  15.445  15.464   8.434  0.1542 -0.2888 -0.1861
  162loPI   C6A 2588  15.660  15.082   8.442 -0.0073  0.1925 -0.0455
  162loPI   C1B 2589  15.199  15.708   9.943  0.0885 -0.2508 -0.0084
  162loPI   C2B 2590  15.059  16.003   9.595 -0.2197 -0.2764  0.1201
  162loPI   C3B 2591  15.181  15.922   9.174 -0.1689 -0.0754  0.1284
  162loPI   C4B 2592  15.162  16.029   8.795  0.1836  0.0713 -0.2067
  163loPI    C1 2593  14.799  14.458  10.713 -0.1134 -0.0728  0.2038
  163loPI    C2 2594  14.689  14.748  10.967 -0.0967  0.1051  0.0107
  163loPI    C3 2595  14.678  14.365  11.082 -0.2137  0.1751  0.2354
  163loPI   PO4 2596  14.593  14.488  10.512  0.0151 -0.0102 -0.1319
  163loPI   GL1 2597  14.427  14.627  10.205  0.0660 -0.0339  0.1649
  163loPI   GL2 2598  14.393  14.243  10.078 -0.0732  0.2018  0.1199
  163loPI   C1A 2599  14.249  14.704   9.737 -0.0135 -0.0073 -0.1353
  163loPI   C2A 2600  14.220  14.734   9.331  0.0001 -0.1043 -0.3903
  163loPI   C3A 2601  14.210  14.710   8.908  0.0631  0.0117 -0.0840
  163loPI   C4A 2602  14.082  14.626   8.430  0.0098 -0.1216  0.1330
  163loPI   C5A 2603  13.803  14.593   8.122 -0.1464 -0.1184  0.0039
  163loPI   C6A 2604  13.519  14.259   7.963 -0.0025  0.1817 -0.1982
  163loPI   C1B 2605  14.427  14.203   9.668  0.1656  0.1019 -0.1679
  163loPI   C2B 2606  14.468  14.218   9.312  0.0602  0.2748 -0.1055
  163loPI   C3B 2607  14.455  14.282   8.957  0.2044 -0.0290 -0.0391
  163loPI   C4B 2608  14.435  14.172   8.489 -0.0173 -0.0193  0.2945
  164loPI    C1 2609   0.823  12.715  10.832 -0.0530 -0.4145  0.1925
  164loPI    C2 2610   0.494  12.797  11.043 -0.0535  0.0318  0.0293
  164loPI    C3 2611   0.853  12.815  11.218 -0.0796  0.0426  0.0820
  164loPI   PO4 2612   0.852  12.869  10.597  0.1008  0.2473 -0.1264
  164loPI   GL1 2613   0.994  13.063  10.240 -0.1022  0.2255  0.0841
  164loPI   GL2 2614   0.700  13.177  10.192 -0.1385  0.0982 -0.1182
  164loPI   C1A 2615   1.251  12.901   9.975 -0.2254 -0.1009  0.3449
  164loPI   C2A 2616   1.405  12.735   9.552  0.0028 -0.1344  0.0780
  164loPI   C3A 2617   1.339  12.910   9.170  0.0270 -0.0264 -0.3677
  164loPI   C4A 2618   1.224  12.877   8.726  0.1008  0.0200 -0.1038
  164loPI   C5A 2619   1.329  12.892   8.295  0.0933 -0.1990 -0.0231
  164loPI   C6A 2620   1.507  13.198   8.089 -0.0177  0.0586  0.1000
  164loPI   C1B 2621   0.515  13.158   9.754 -0.1507  0.0391 -0.1305
  164loPI   C2B 2622   0.540  13.290   9.252 -0.2199  0.1540 -0.1498
  164loPI   C3B 2623   0.778  13.307   8.869  0.0200  0.0200 -0.0542
  164loPI   C4B 2624   0.760  13.247   8.425 -0.0838  0.0858  0.0696
  165loPI    C1 2625  13.989   5.418  10.532 -0.0093  0.0968  0.0707
  165loPI    C2 2626  13.853   5.079  10.696  0.2009 -0.0081  0.0310
  165loPI    C3 2627  14.037   5.352  10.924 -0.1499  0.1746  0.1016
  165loPI   PO4 2628  13.961   5.412  10.306  0.3295  0.1947 -0.0325
  165loPI   GL1 2629  13.858   5.328   9.896  0.2595 -0.0307 -0.1856
  165loPI   GL2 2630  14.195   5.375   9.857  0.0482 -0.0705 -0.1520
  165loPI   C1A 2631  13.667   5.288   9.502  0.0118 -0.0613  0.0102
  165loPI   C2A 2632  13.700   5.347   9.017  0.0213  0.0457 -0.0740
  165loPI   C3A 2633  13.775   5.346   8.637 -0.1478 -0.0202  0.2031
  165loPI   C4A 2634  13.733   5.300   8.216  0.2372 -0.1639  0.1204
  165loPI   C5A 2635  13.404   5.384   7.936 -0.0891 -0.1990 -0.0142
  165loPI   C6A 2636  13.165   5.676   7.955  0.1549  0.3300 -0.1146
  165loPI   C1B 2637  14.254   5.443   9.526  0.5107 -0.0041 -0.1135
  165loPI   C2B 2638  14.188   5.511   9.170  0.0677 -0.1981  0.0513
  165loPI   C3B 2639  14.213   5.577   8.724  0.0481 -0.0943 -0.1648
  165loPI   C4B 2640  14.107   5.653   8.323 -0.0247  0.0547  0.2455
  166loPI    C1 2641   5.195  10.574  10.532  0.1078  0.1630 -0.1471
  166loPI    C2 2642   5.405  10.477  10.859 -0.2447  0.1413  0.0790
  166loPI    C3 2643   5.088  10.719  10.890 -0.2684  0.1572 -0.2531
  166loPI   PO4 2644   5.218  10.408  10.344  0.0768 -0.0676 -0.1611
  166loPI   GL1 2645   4.918  10.437   9.989 -0.0488  0.1969 -0.1545
  166loPI   GL2 2646   4.480  10.469   9.971  0.2905 -0.3673 -0.1883
  166loPI   C1A 2647   5.030  10.416   9.537  0.3287 -0.0877 -0.2774
  166loPI   C2A 2648   4.987  10.347   9.172 -0.0486 -0.1472  0.0425
  166loPI   C3A 2649   5.014  10.376   8.853  0.0901 -0.1317  0.2543
  166loPI   C4A 2650   4.923  10.100   8.444 -0.1755  0.0585  0.2790
  166loPI   C5A 2651   4.651   9.878   8.138 -0.0712 -0.0271 -0.2772
  166loPI   C6A 2652   4.294   9.590   8.218  0.2045 -0.2690 -0.2483
  166loPI   C1B 2653   4.483  10.455   9.546 -0.1092  0.2231  0.1368
  166loPI   C2B 2654   4.499  10.300   9.118  0.0089  0.1377 -0.0032
  166loPI   C3B 2655   4.555  10.349   8.703  0.2324 -0.2174  0.2729
  166loPI   C4B 2656   4.551  10.428   8.202 -0.2508  0.2962  0.1229
  167loPI    C1 2657  17.346  13.755  10.354  0.2554 -0.2038  0.1792
  167loPI    C2 2658  17.702  13.934  10.385  0.1157  0.0571  0.3187
  167loPI    C3 2659  17.409  14.028  10.639 -0.1916  0.1743 -0.0694
  167loPI   PO4 2660  17.402  13.553  10.218 -0.0801  0.0142 -0.2107
  167loPI   GL1 2661  17.758  13.451   9.962 -0.0717 -0.1557 -0.0313
  167loPI   GL2 2662  17.967  13.651  10.071 -0.2810 -0.2271  0.0614
  167loPI   C1A 2663  17.721  13.384   9.536  0.2137 -0.1913  0.0054
  167loPI   C2A 2664  17.756  13.465   9.095 -0.1016 -0.3678  0.0575
  167loPI   C3A 2665  17.642  13.439   8.656 -0.0625 -0.0566 -0.1283
  167loPI   C4A 2666  17.465  13.495   8.265  0.0025  0.0397 -0.0851
  167loPI   C5A 2667  17.299  13.861   8.141 -0.4373 -0.0002  0.1687
  167loPI   C6A 2668  17.222  14.105   7.785 -0.0447  0.2373 -0.2701
  167loPI   C1B 2669  18.001  13.853   9.612 -0.3925 -0.2118  0.0542
  167loPI   C2B 2670  18.057  13.862   9.189 -0.2337 -0.1215 -0.0512
  167loPI   C3B 2671  17.976  13.811   8.737 -0.0382 -0.1846 -0.0707
  167loPI   C4B 2672  17.863  13.915   8.370  0.0001  0.1398 -0.3294
  168loPI    C1 2673  13.386  12.320  10.789 -0.1193  0.2016 -0.2228
  168loPI    C2 2674  13.683  12.533  10.627  0.2123  0.0116  0.1176
  168loPI    C3 2675  13.640  12.520  11.024 -0.2202 -0.0135  0.0750
  168loPI   PO4 2676  13.141  12.389  10.631 -0.2198  0.2472  0.1495
  168loPI   GL1 2677  13.164  12.462  10.228 -0.0712  0.0945 -0.1860
  168loPI   GL2 2678  12.900  12.593  10.207  0.0880 -0.0793 -0.0874
  168loPI   C1A 2679  13.575  12.543  10.153  0.1094  0.0744 -0.0575
  168loPI   C2A 2680  13.688  12.463   9.718  0.0713  0.0299 -0.2291
  168loPI   C3A 2681  13.730  12.525   9.283  0.0715 -0.1829  0.2699
  168loPI   C4A 2682  13.726  12.558   8.813 -0.2389 -0.1827  0.2016
  168loPI   C5A 2683  13.427  12.632   8.492  0.1514 -0.0249 -0.1459
  168loPI   C6A 2684  13.067  12.459   8.329  0.3763  0.1325 -0.0125
  168loPI   C1B 2685  12.689  12.729   9.812  0.0117  0.0082 -0.1746
  168loPI   C2B 2686  12.367  12.989   9.537  0.1406 -0.0665 -0.0090
  168loPI   C3B 2687  12.473  13.175   9.106  0.4830 -0.0093 -0.0157
  168loPI   C4B 2688  12.486  13.069   8.660 -0.3702  0.0490 -0.0253
  169loPI    C1 2689   4.225  12.404  10.528 -0.1340  0.0807  0.0627
  169loPI    C2 2690   4.525  12.560  10.742 -0.0627  0.2821 -0.1792
  169loPI    C3 2691   4.371  12.765  10.435 -0.2742  0.0671 -0.2195
  169loPI   PO4 2692   4.324  12.186  10.476 -0.0169  0.1759 -0.0901
  169loPI   GL1 2693   4.391  11.990  10.090 -0.2318  0.1146  0.0833
  169loPI   GL2 2694   4.202  11.827   9.953 -0.1501  0.0048  0.0151
  169loPI   C1A 2695   4.463  12.124   9.644 -0.2269  0.0553 -0.3233
  169loPI   C2A 2696   4.515  12.133   9.110  0.0171 -0.0845  0.2773
  169loPI   C3A 2697   4.616  12.302   8.685 -0.1924  0.0087 -0.1431
  169loPI   C4A 2698   4.414  12.361   8.254  0.2536 -0.3630 -0.1965
  169loPI   C5A 2699   4.035  12.624   8.220  0.1259 -0.1621 -0.0844
  169loPI   C6A 2700   3.661  12.670   8.380  0.0971 -0.2996  0.1304
  169loPI   C1B 2701   4.294  11.669   9.500  0.2511  0.1367 -0.1208
  169loPI   C2B 2702   4.324  11.648   8.990 -0.1017 -0.1544 -0.4532
  169loPI   C3B 2703   4.321  11.902   8.700  0.0552  0.3179 -0.0970
  169loPI   C4B 2704   4.180  11.707   8.352  0.1409 -0.0261 -0.0713
  170loPI    C1 2705  17.251  13.267  10.791 -0.1190  0.2341 -0.0624
  170loPI    C2 2706  17.130  13.648  10.801  0.0778  0.3034 -0.2562
  170loPI    C3 2707  17.521  13.562  10.798  0.0397  0.0876  0.1690
  170loPI   PO4 2708  17.127  13.206  10.579 -0.0967  0.0118 -0.1570
  170loPI   GL1 2709  17.114  13.009  10.187  0.0829 -0.4306 -0.1408
  170loPI   GL2 2710  16.829  13.022  10.141 -0.2570 -0.0981  0.2029
  170loPI   C1A 2711  17.437  12.954   9.850 -0.1373 -0.1657  0.0082
  170loPI   C2A 2712  17.346  12.966   9.389  0.0617  0.0122 -0.1320
  170loPI   C3A 2713  17.520  13.070   8.981  0.6442  0.0986 -0.2721
  170loPI   C4A 2714  17.365  12.998   8.630  0.1259 -0.3252  0.0869
  170loPI   C5A 2715  17.281  13.034   8.244  0.1034  0.0171  0.0559
  170loPI   C6A 2716  17.528  13.044   7.839 -0.1472  0.1277  0.0972
  170loPI   C1B 2717  16.824  13.096   9.649 -0.0336  0.1204 -0.0630
  170loPI   C2B 2718  16.838  13.046   9.284  0.1315 -0.2567 -0.0667
  170loPI   C3B 2719  16.997  12.849   8.961 -0.2486  0.1504 -0.3599
  170loPI   C4B 2720  17.198  12.574   8.762 -0.0277  0.2131  0.0614
  171loPI    C1 2721  11.863   6.540  10.582  0.1036 -0.2202  0.1181
  171loPI    C2 2722  11.640   6.640  10.898  0.0172  0.1666 -0.0589
  171loPI    C3 2723  12.036   6.594  10.939  0.0004  0.1665  0.1137
  171loPI   PO4 2724  11.767   6.324  10.456  0.1905 -0.0242 -0.2705
  171loPI   GL1 2725  11.821   6.000  10.109  0.3387 -0.1387 -0.1004
  171loPI   GL2 2726  12.089   6.327  10.063 -0.5066  0.0623  0.0847
  171loPI   C1A 2727  12.022   5.872   9.740 -0.0842 -0.1729 -0.4448
  171loPI   C2A 2728  11.974   5.768   9.345 -0.2532  0.2592 -0.0830
  171loPI   C3A 2729  11.890   5.851   8.921 -0.0105  0.0315 -0.1466
  171loPI   C4A 2730  11.670   6.058   8.493 -0.3890  0.0331 -0.2887
  171loPI   C5A 2731  11.639   6.454   8.223 -0.1042 -0.3134  0.0109
  171loPI   C6A 2732  11.322   6.608   7.881  0.2528 -0.1299  0.0244
  171loPI   C1B 2733  12.224   6.303   9.668  0.0694  0.0007  0.2565
  171loPI   C2B 2734  12.172   6.229   9.330 -0.3649  0.0518  0.1333
  171loPI   C3B 2735  12.046   6.463   8.911  0.0631 -0.2347 -0.1012
  171loPI   C4B 2736  11.969   6.494   8.578 -0.0289  0.0677  0.0875
  172loPI    C1 2737  12.501  12.388  10.965 -0.0916 -0.1354  0.3139
  172loPI    C2 2738  12.265  12.618  11.191 -0.0117  0.1306  0.1316
  172loPI    C3 2739  12.659  12.610  11.257 -0.0157  0.0364  0.1445
  172loPI   PO4 2740  12.365  12.440  10.605  0.1361 -0.0417  0.1442
  172loPI   GL1 2741  12.229  12.190  10.296  0.1150 -0.2896 -0.0285
  172loPI   GL2 2742  12.362  11.932  10.311 -0.1714  0.1951 -0.3751
  172loPI   C1A 2743  12.436  12.196   9.916  0.1549 -0.0428  0.0011
  172loPI   C2A 2744  12.435  12.138   9.512  0.1265 -0.1327  0.1156
  172loPI   C3A 2745  12.494  11.903   9.130  0.1998 -0.2059  0.0012
  172loPI   C4A 2746  12.655  11.742   8.710  0.5627  0.1325  0.1139
  172loPI   C5A 2747  12.972  11.780   8.499  0.1869 -0.1661  0.0054
  172loPI   C6A 2748  13.204  11.977   8.107  0.3036  0.4014  0.0150
  172loPI   C1B 2749  12.496  11.704   9.900  0.0131  0.0782 -0.0996
  172loPI   C2B 2750  12.638  11.400   9.550 -0.0334 -0.0689  0.2176
  172loPI   C3B 2751  12.733  11.384   9.154 -0.0281 -0.0739  0.0084
  172loPI   C4B 2752  12.879  11.281   8.702 -0.2978  0.1043 -0.0295
  173loPI    C1 2753   7.793  13.496  10.513  0.1543 -0.0941  0.3658
  173loPI    C2 2754   8.028  13.784  10.366 -0.0920 -0.0574  0.0321
  173loPI    C3 2755   8.027  13.708  10.759  0.2809  0.1146  0.0707
  173loPI   PO4 2756   7.550  13.519  10.280  0.2174 -0.2095  0.0483
  173loPI   GL1 2757   7.533  13.543   9.872  0.2587 -0.2162  0.1215
  173loPI   GL2 2758   7.324  13.313   9.798  0.1978  0.2396  0.0272
  173loPI   C1A 2759   7.492  13.948   9.678  0.1198 -0.2472 -0.1662
  173loPI   C2A 2760   7.383  13.959   9.328 -0.1355 -0.0834 -0.5009
  173loPI   C3A 2761   7.365  13.996   8.881  0.2012 -0.0602 -0.0170
  173loPI   C4A 2762   7.380  14.045   8.477  0.0432 -0.0731 -0.1620
  173loPI   C5A 2763   7.642  14.104   8.185  0.0799 -0.0240  0.4878
  173loPI   C6A 2764   7.997  13.985   8.015 -0.1087 -0.2581 -0.2359
  173loPI   C1B 2765   7.097  13.450   9.418 -0.2663 -0.2034 -0.0814
  173loPI   C2B 2766   7.126  13.508   9.033  0.3399 -0.0009  0.1622
  173loPI   C3B 2767   7.115  13.634   8.628 -0.0754  0.0203 -0.0927
  173loPI   C4B 2768   7.141  13.788   8.189  0.0136  0.0572  0.0720
  174loPI    C1 2769   6.308   0.852  10.604  0.1616 -0.3218  0.1733
  174loPI    C2 2770   6.410   1.210  10.749  0.2981 -0.1358 -0.3567
  174loPI    C3 2771   6.295   0.918  10.998  0.0978  0.2976  0.0768
  174loPI   PO4 2772   6.258   0.853  10.398 -0.1445 -0.0594  0.1611
  174loPI   GL1 2773   6.532   0.828  10.095  0.1234  0.1069  0.0430
  174loPI   GL2 2774   6.916   0.717  10.100 -0.2602 -0.1417  0.0324
  174loPI   C1A 2775   6.365   0.722   9.822  0.1004 -0.2279  0.1328
  174loPI   C2A 2776   6.447   0.801   9.401  0.2421  0.0008 -0.0775
  174loPI   C3A 2777   6.454   0.821   8.995  0.2498 -0.1287  0.0049
  174loPI   C4A 2778   6.406   0.702   8.574 -0.3210 -0.0427 -0.3271
  174loPI   C5A 2779   6.486   0.887   8.226  0.2509 -0.1223  0.0450
  174loPI   C6A 2780   6.530   0.926   7.851  0.0645  0.0519 -0.4449
  174loPI   C1B 2781   6.856   0.906   9.725 -0.1993 -0.0641  0.1697
  174loPI   C2B 2782   6.942   0.902   9.303  0.3808  0.1143 -0.0793
  174loPI   C3B 2783   6.937   0.778   8.974  0.0080 -0.0452 -0.4140
  174loPI   C4B 2784   6.878   0.909   8.543  0.0235  0.1891 -0.0654
  175loPI    C1 2785   1.953   6.874  10.522  0.0822 -0.0943  0.0923
  175loPI    C2 2786   1.726   6.997  10.828  0.0356  0.2174 -0.0632
  175loPI    C3 2787   1.555   6.871  10.489  0.0908  0.0879 -0.0437
  175loPI   PO4 2788   2.054   6.634  10.580 -0.0501 -0.0581  0.1137
  175loPI   GL1 2789   1.913   6.340  10.259  0.0360 -0.1503 -0.1740
  175loPI   GL2 2790   1.581   6.456  10.183  0.1155 -0.0134 -0.1693
  175loPI   C1A 2791   1.954   6.521   9.778  0.1897 -0.0727 -0.0736
  175loPI   C2A 2792   1.891   6.525   9.414  0.0547  0.1339  0.0497
  175loPI   C3A 2793   1.962   6.396   9.010 -0.1629 -0.4687  0.1459
  175loPI   C4A 2794   1.954   6.374   8.598  0.0653  0.1363 -0.1432
  175loPI   C5A 2795   1.651   6.187   8.335 -0.2000  0.0643 -0.0601
  175loPI   C6A 2796   1.418   6.235   7.923  0.2252  0.0865 -0.1118
  175loPI   C1B 2797   1.461   6.506   9.755 -0.1536  0.0853  0.0195
  175loPI   C2B 2798   1.431   6.597   9.344 -0.1306 -0.1326  0.1284
  175loPI   C3B 2799   1.314   6.927   9.210  0.2289  0.2260 -0.0367
  175loPI   C4B 2800   1.190   7.411   9.340  0.2418  0.1242 -0.0298
  176loPI    C1 2801  17.398  12.746  10.712  0.0238 -0.0139  0.1405
  176loPI    C2 2802  17.537  12.690  11.082  0.1880  0.1755  0.1094
  176loPI    C3 2803  17.169  12.837  11.027  0.0807 -0.0559  0.1940
  176loPI   PO4 2804  17.370  12.562  10.589  0.1094  0.2446  0.0562
  176loPI   GL1 2805  17.425  12.440  10.239 -0.1669 -0.0084  0.1173
  176loPI   GL2 2806  17.088  12.565  10.146  0.2616 -0.1626 -0.0873
  176loPI   C1A 2807  17.491  12.393   9.829 -0.0750 -0.2110 -0.2112
  176loPI   C2A 2808  17.671  12.565   9.523  0.0833  0.0050 -0.0460
  176loPI   C3A 2809  17.673  12.569   9.060 -0.4557  0.0258  0.1171
  176loPI   C4A 2810  17.671  12.568   8.628  0.0317 -0.1348 -0.2359
  176loPI   C5A 2811  17.407  12.537   8.285 -0.1980  0.0096  0.1527
  176loPI   C6A 2812  17.251  12.619   7.878 -0.0099  0.2240  0.2638
  176loPI   C1B 2813  17.094  12.627   9.687  0.5016  0.0315  0.0958
  176loPI   C2B 2814  17.152  12.450   9.342 -0.1261  0.0888 -0.0288
  176loPI   C3B 2815  17.254  12.135   9.136 -0.0698  0.1763  0.2178
  176loPI   C4B 2816  17.364  12.078   8.755 -0.1992 -0.1958 -0.2141
  177loPI    C1 2817   3.926   6.009  10.720  0.0416 -0.0003  0.1859
  177loPI    C2 2818   4.120   6.346  10.817  0.2229 -0.0634  0.0465
  177loPI    C3 2819   4.034   6.076  11.100 -0.0496  0.1633  0.1839
  177loPI   PO4 2820   3.663   6.127  10.534  0.0561  0.1590  0.1473
  177loPI   GL1 2821   3.553   6.061  10.070 -0.0573 -0.1576  0.0451
  177loPI   GL2 2822   3.865   6.033  10.095  0.1077 -0.0886  0.1141
  177loPI   C1A 2823   3.255   6.019   9.682 -0.1512  0.1460  0.0282
  177loPI   C2A 2824   3.230   5.946   9.253 -0.1880  0.1946  0.0131
  177loPI   C3A 2825   3.237   5.978   8.826 -0.1457 -0.0829  0.1986
  177loPI   C4A 2826   3.285   5.826   8.517  0.2175 -0.1396  0.0761
  177loPI   C5A 2827   3.091   5.745   8.165 -0.2392  0.1182  0.1999
  177loPI   C6A 2828   3.207   5.564   7.793 -0.0823  0.2253 -0.2378
  177loPI   C1B 2829   3.780   6.032   9.602 -0.1075 -0.2152 -0.4483
  177loPI   C2B 2830   3.697   5.998   9.173 -0.2140  0.1867  0.0560
  177loPI   C3B 2831   3.792   5.915   8.794 -0.0141  0.4664 -0.3071
  177loPI   C4B 2832   3.836   5.894   8.343 -0.1271  0.3197  0.1403
  178loPI    C1 2833  18.161   3.583  10.140  0.0403  0.0293  0.0364
  178loPI    C2 2834  18.449   3.415  10.361  0.0876  0.1152  0.0406
  178loPI    C3 2835  18.543   3.689  10.086  0.0115  0.1309  0.0301
  178loPI   PO4 2836  17.953   3.390  10.182 -0.1984 -0.0837  0.0203
  178loPI   GL1 2837  17.913   3.263   9.776 -0.5344 -0.0961 -0.1861
  178loPI   GL2 2838  17.548   3.319   9.765 -0.2827 -0.0400  0.0078
  178loPI   C1A 2839  17.761   3.366   9.379  0.1703 -0.1820 -0.0972
  178loPI   C2A 2840  17.649   3.357   8.896 -0.1560  0.1787  0.1351
  178loPI   C3A 2841  17.287   3.369   8.595 -0.1208 -0.0421 -0.2701
  178loPI   C4A 2842  17.027   3.601   8.362  0.0765 -0.0187  0.0736
  178loPI   C5A 2843  16.718   3.565   7.997  0.1689  0.0722  0.1573
  178loPI   C6A 2844  16.281   3.517   7.803  0.2625 -0.2284 -0.0389
  178loPI   C1B 2845  17.278   3.167   9.503 -0.0948 -0.0498  0.2166
  178loPI   C2B 2846  17.155   3.011   9.065  0.2033 -0.0606  0.0165
  178loPI   C3B 2847  17.142   2.713   8.748 -0.0830 -0.0564 -0.3620
  178loPI   C4B 2848  17.297   2.701   8.452 -0.2644  0.0558  0.0570
  179loPI    C1 2849   3.348   9.506  10.437  0.0741 -0.0466  0.0490
  179loPI    C2 2850   3.667   9.732  10.520 -0.0165  0.0364  0.1743
  179loPI    C3 2851   3.661   9.347  10.629  0.1104 -0.0107  0.0198
  179loPI   PO4 2852   3.274   9.672  10.232  0.0409 -0.1268  0.1008
  179loPI   GL1 2853   3.236   9.806   9.853 -0.4192 -0.0138 -0.1290
  179loPI   GL2 2854   3.464   9.619   9.688 -0.1781  0.0947 -0.1005
  179loPI   C1A 2855   3.065   9.889   9.467  0.2633 -0.1550 -0.1328
  179loPI   C2A 2856   3.266   9.937   9.116 -0.1492  0.2634 -0.3754
  179loPI   C3A 2857   3.641   9.930   8.927  0.0576 -0.1405  0.0353
  179loPI   C4A 2858   3.934   9.743   8.638 -0.1611 -0.1077  0.0237
  179loPI   C5A 2859   4.324   9.402   8.649  0.1032  0.0584  0.0548
  179loPI   C6A 2860   4.602   9.078   8.767  0.1158 -0.2695 -0.3394
  179loPI   C1B 2861   3.661   9.983   9.439 -0.3150  0.2942 -0.0796
  179loPI   C2B 2862   3.963  10.244   9.152  0.0319 -0.2616 -0.1275
  179loPI   C3B 2863   3.967  10.381   8.692  0.0106 -0.1834  0.2123
  179loPI   C4B 2864   3.937  10.403   8.242  0.0792 -0.2675  0.2408
  180loPI    C1 2865  11.755   0.310  10.925 -0.1041  0.1002 -0.0067
  180loPI    C2 2866  11.443   0.561  10.918 -0.0842  0.1235 -0.0691
  180loPI    C3 2867  11.756   0.637  11.156 -0.0918  0.1413 -0.0647
  180loPI   PO4 2868  11.776   0.207  10.677  0.0782 -0.1567 -0.1438
  180loPI   GL1 2869  12.020  -0.047  10.424 -0.0500  0.0826 -0.1406
  180loPI   GL2 2870  11.962  -0.464  10.459 -0.2058  0.0834  0.0128
  180loPI   C1A 2871  11.863   0.050   9.967 -0.2407 -0.0585 -0.1882
  180loPI   C2A 2872  11.575  -0.062   9.611 -0.3881  0.1836 -0.0482
  180loPI   C3A 2873  11.341  -0.004   9.252  0.2085 -0.0822 -0.0628
  180loPI   C4A 2874  11.373   0.134   8.800 -0.2181  0.3328  0.0118
  180loPI   C5A 2875  11.399   0.189   8.358 -0.1312 -0.0168  0.3478
  180loPI   C6A 2876  11.448   0.559   8.141  0.1496 -0.0931 -0.3453
  180loPI   C1B 2877  11.997  -0.466   9.955 -0.0456  0.4848  0.0935
  180loPI   C2B 2878  11.987  -0.606   9.550 -0.2078 -0.2034 -0.1753
  180loPI   C3B 2879  11.815  -0.304   9.161 -0.2183  0.1389 -0.0641
  180loPI   C4B 2880  11.720  -0.321   8.728  0.2170 -0.0205 -0.1658
  181loPI    C1 2881   4.207   4.550  11.103 -0.0592  0.0128 -0.0569
  181loPI    C2 2882   4.515   4.767  11.238 -0.0567  0.0953 -0.1922
  181loPI    C3 2883   4.212   4.675  11.483  0.1406 -0.1066 -0.0190
  181loPI   PO4 2884   4.129   4.632  10.874  0.2468 -0.2895  0.2079
  181loPI   GL1 2885   4.197   4.562  10.488 -0.1294  0.1972 -0.0559
  181loPI   GL2 2886   4.402   4.822  10.289  0.2171 -0.0973 -0.0281
  181loPI   C1A 2887   3.994   4.581  10.102  0.2652  0.0944  0.1541
  181loPI   C2A 2888   3.934   4.583   9.621 -0.2576  0.3156  0.1473
  181loPI   C3A 2889   4.025   4.635   9.239  0.0745  0.0640  0.1608
  181loPI   C4A 2890   3.939   4.602   8.831  0.0952  0.1986  0.1149
  181loPI   C5A 2891   3.974   4.663   8.378  0.3435  0.0965  0.1919
  181loPI   C6A 2892   3.926   5.011   8.096  0.0959 -0.0574  0.1207
  181loPI   C1B 2893   4.323   4.907   9.825 -0.0356  0.0869 -0.4681
  181loPI   C2B 2894   4.245   5.070   9.460  0.1001 -0.2126  0.1781
  181loPI   C3B 2895   4.310   5.034   8.961 -0.0122 -0.0201 -0.0271
  181loPI   C4B 2896   4.314   5.000   8.518  0.1106 -0.2197  0.0205
  182loPI    C1 2897  13.279  10.025  11.346  0.0213 -0.1341 -0.1062
  182loPI    C2 2898  13.497   9.758  11.550 -0.0881 -0.1389  0.0058
  182loPI    C3 2899  13.102   9.783  11.610 -0.0577  0.1457  0.1024
  182loPI   PO4 2900  13.401   9.991  11.021 -0.0068  0.2962  0.2611
  182loPI   GL1 2901  13.393  10.155  10.579 -0.0302 -0.2803 -0.1676
  182loPI   GL2 2902  13.202   9.892  10.533 -0.1434 -0.3614 -0.3379
  182loPI   C1A 2903  13.122  10.306  10.192  0.1122 -0.2675 -0.1345
  182loPI   C2A 2904  13.087  10.437   9.767 -0.2231 -0.1138  0.2405
  182loPI   C3A 2905  13.119  10.377   9.395 -0.2000  0.3768  0.0251
  182loPI   C4A 2906  13.221  10.372   8.956  0.2208 -0.0969 -0.1317
  182loPI   C5A 2907  13.319  10.466   8.463  0.0380  0.2505  0.1083
  182loPI   C6A 2908  13.264  10.486   8.007  0.0793 -0.1436  0.1445
  182loPI   C1B 2909  13.323   9.882  10.045 -0.2620  0.1552  0.1463
  182loPI   C2B 2910  13.356   9.968   9.620  0.2008  0.1385  0.0103
  182loPI   C3B 2911  13.364   9.915   9.152  0.1316 -0.0313  0.1902
  182loPI   C4B 2912  13.420   9.973   8.706 -0.0112  0.0707 -0.1337
  183loPI    C1 2913   1.035  16.457  10.889 -0.1958 -0.1257  0.0506
  183loPI    C2 2914   1.382  16.262  10.850 -0.1315  0.0262 -0.1561
  183loPI    C3 2915   1.082  16.097  11.056  0.0337 -0.1433 -0.0479
  183loPI   PO4 2916   1.067  16.674  10.710 -0.0107 -0.0840  0.0052
  183loPI   GL1 2917   1.203  16.638  10.338 -0.1321 -0.0264  0.2633
  183loPI   GL2 2918   1.454  16.493  10.356 -0.0307 -0.2105  0.0081
  183loPI   C1A 2919   1.058  16.482   9.929  0.0452 -0.0582  0.4260
  183loPI   C2A 2920   1.195  16.515   9.446 -0.2122 -0.3241  0.0144
  183loPI   C3A 2921   1.291  16.453   8.976 -0.0787 -0.2120 -0.0703
  183loPI   C4A 2922   1.303  16.399   8.562  0.0829 -0.0669  0.0513
  183loPI   C5A 2923   1.358  16.552   8.136 -0.0831 -0.2924 -0.0122
  183loPI   C6A 2924   1.781  16.554   8.057  0.2292 -0.0624  0.1572
  183loPI   C1B 2925   1.653  16.519  10.020  0.2033  0.0686  0.2773
  183loPI   C2B 2926   1.715  16.567   9.519  0.0602  0.0698  0.0244
  183loPI   C3B 2927   1.791  16.519   9.071 -0.1034 -0.0397 -0.4074
  183loPI   C4B 2928   1.799  16.403   8.662 -0.0671  0.1397  0.0617
  184loPI    C1 2929  17.623   6.008  10.627 -0.0682  0.2193  0.1227
  184loPI    C2 2930  17.538   5.620  10.676 -0.1247  0.1913 -0.1748
  184loPI    C3 2931  17.429   5.886  10.955  0.0535 -0.0241  0.1069
  184loPI   PO4 2932  17.556   6.007  10.333  0.1079  0.0995  0.3488
  184loPI   GL1 2933  17.871   6.128   9.979  0.1308 -0.4727  0.0583
  184loPI   GL2 2934  18.319   6.117  10.055 -0.1097  0.0598 -0.0077
  184loPI   C1A 2935  17.871   6.295   9.549 -0.2662  0.2622  0.4154
  184loPI   C2A 2936  17.892   6.265   9.126 -0.3253 -0.0751  0.2986
  184loPI   C3A 2937  17.866   6.326   8.727 -0.1245  0.0633  0.0508
  184loPI   C4A 2938  17.983   6.444   8.372  0.1093  0.3055  0.2536
  184loPI   C5A 2939  18.077   6.558   8.033  0.1097  0.0807  0.0039
  184loPI   C6A 2940  18.227   6.434   7.625  0.0975 -0.0647 -0.0720
  184loPI   C1B 2941  18.343   6.141   9.659  0.2485  0.0808 -0.1994
  184loPI   C2B 2942  18.331   6.069   9.174 -0.2536  0.2067  0.0368
  184loPI   C3B 2943  18.360   6.197   8.775 -0.1665 -0.1919  0.1131
  184loPI   C4B 2944  18.484   6.280   8.396  0.2094 -0.0192  0.0457
  185loPI    C1 2945   3.966   3.789  10.699 -0.0649 -0.1385 -0.0168
  185loPI    C2 2946   3.939   3.906  11.081  0.0343  0.0797 -0.0753
  185loPI    C3 2947   3.957   4.179  10.788 -0.0050 -0.0859 -0.2340
  185loPI   PO4 2948   3.816   3.549  10.613  0.5268  0.0322  0.0073
  185loPI   GL1 2949   3.484   3.685  10.265 -0.0787 -0.0816 -0.0832
  185loPI   GL2 2950   3.786   3.681  10.147  0.2130 -0.0685 -0.1528
  185loPI   C1A 2951   3.328   3.837   9.939  0.0851 -0.0004  0.0969
  185loPI   C2A 2952   3.400   3.725   9.592 -0.1541  0.1338  0.1439
  185loPI   C3A 2953   3.512   3.714   9.142 -0.2736 -0.0568  0.1392
  185loPI   C4A 2954   3.452   3.746   8.811  0.3271 -0.0081  0.4039
  185loPI   C5A 2955   3.524   3.622   8.378  0.0673  0.0388  0.0668
  185loPI   C6A 2956   3.866   3.479   7.977  0.3033  0.2368 -0.0232
  185loPI   C1B 2957   3.850   3.765   9.737  0.0258  0.0423 -0.1799
  185loPI   C2B 2958   4.022   3.615   9.324 -0.3768  0.1559 -0.3497
  185loPI   C3B 2959   3.974   3.660   8.858  0.2965 -0.0751 -0.1249
  185loPI   C4B 2960   4.048   3.719   8.373  0.5277 -0.1455 -0.0069
  186loPI    C1 2961  10.265  16.031  10.439  0.0309  0.0294 -0.1361
  186loPI    C2 2962  10.233  16.430  10.451 -0.1240  0.0185 -0.1668
  186loPI    C3 2963   9.982  16.203  10.663  0.1507 -0.0569  0.0851
  186loPI   PO4 2964  10.511  15.962  10.487  0.0657 -0.3719 -0.2007
  186loPI   GL1 2965  10.718  15.916  10.109  0.1695 -0.0194 -0.0574
  186loPI   GL2 2966  10.389  16.050   9.941  0.2486 -0.2097 -0.4039
  186loPI   C1A 2967  10.805  15.758   9.782  0.1084  0.1892 -0.2497
  186loPI   C2A 2968  10.847  15.668   9.345  0.3047  0.0824 -0.2523
  186loPI   C3A 2969  10.605  15.635   8.980  0.0037  0.0384  0.0851
  186loPI   C4A 2970  10.570  15.563   8.593 -0.2977 -0.1046  0.0525
  186loPI   C5A 2971  10.444  15.214   8.336  0.0617  0.1712  0.0063
  186loPI   C6A 2972  10.336  15.058   8.067  0.0934 -0.0178 -0.1277
  186loPI   C1B 2973  10.423  16.421   9.713 -0.4068  0.0127  0.0745
  186loPI   C2B 2974  10.287  16.613   9.352 -0.2083  0.2055  0.0140
  186loPI   C3B 2975  10.113  16.905   8.979  0.0234  0.1501 -0.1476
  186loPI   C4B 2976  10.155  17.013   8.514  0.1424 -0.0184 -0.1563
  187loPI    C1 2977   6.291   0.264  10.599  0.0723 -0.3078  0.2878
  187loPI    C2 2978   6.643   0.448  10.558 -0.1341  0.0481  0.0560
  187loPI    C3 2979   6.463   0.438  10.915  0.1221 -0.1654  0.1831
  187loPI   PO4 2980   6.119   0.316  10.424  0.1988 -0.0850  0.2427
  187loPI   GL1 2981   5.994   0.460  10.077  0.0340 -0.0746 -0.0028
  187loPI   GL2 2982   5.746   0.390   9.998  0.0750  0.1596  0.0855
  187loPI   C1A 2983   6.200   0.284   9.783  0.0126  0.0934 -0.0671
  187loPI   C2A 2984   6.108   0.382   9.343 -0.1007 -0.3679 -0.0384
  187loPI   C3A 2985   6.217   0.324   8.909 -0.0384 -0.3993  0.0105
  187loPI   C4A 2986   6.168   0.192   8.511  0.2063  0.0086 -0.0352
  187loPI   C5A 2987   6.073  -0.194   8.251  0.1358 -0.4197  0.0581
  187loPI   C6A 2988   6.134  -0.619   8.138  0.1405 -0.0246  0.2281
  187loPI   C1B 2989   5.706   0.361   9.610  0.1042 -0.3101  0.1360
  187loPI   C2B 2990   5.667   0.296   9.129  0.0777 -0.1524 -0.2068
  187loPI   C3B 2991   5.526   0.377   8.749  0.0196  0.1713 -0.1113
  187loPI   C4B 2992   5.247   0.534   8.560  0.0456  0.1523  0.1842
  188loPI    C1 2993   5.460  17.038  11.011  0.2835 -0.0895 -0.0740
  188loPI    C2 2994   5.384  16.809  11.330 -0.3099  0.1218 -0.0508
  188loPI    C3 2995   5.628  17.124  11.364 -0.1608 -0.0104  0.1255
  188loPI   PO4 2996   5.467  16.863  10.797 -0.0913 -0.1403 -0.0512
  188loPI   GL1 2997   5.266  16.785  10.461  0.0212  0.0046  0.0699
  188loPI   GL2 2998   5.191  16.440  10.506 -0.2788 -0.3784 -0.0235
  188loPI   C1A 2999   5.131  16.727  10.073 -0.2957  0.0959 -0.0222
  188loPI   C2A 3000   4.976  16.482   9.626  0.1545  0.1229  0.1206
  188loPI   C3A 3001   4.878  16.462   9.185  0.0117  0.2032 -0.0299
  188loPI   C4A 3002   4.837  16.345   8.749 -0.1366 -0.0671 -0.0702
  188loPI   C5A 3003   4.748  16.241   8.337  0.0259 -0.1035 -0.2690
  188loPI   C6A 3004   4.436  16.049   8.187  0.1165  0.0309  0.1614
  188loPI   C1B 3005   5.407  16.383  10.213 -0.0130  0.1148 -0.0309
  188loPI   C2B 3006   5.405  16.273   9.768  0.0875 -0.3404 -0.1351
  188loPI   C3B 3007   5.326  16.228   9.309  0.1737 -0.0370 -0.0264
  188loPI   C4B 3008   5.120  16.041   9.044  0.2915  0.1656 -0.0698
  189loPI    C1 3009   4.781  17.709  10.842 -0.0528 -0.0588  0.0728
  189loPI    C2 3010   4.587  18.055  10.794 -0.2007 -0.1739 -0.1821
  189loPI    C3 3011   4.811  17.995  11.120 -0.2452  0.1259 -0.0927
  189loPI   PO4 3012   4.808  17.701  10.506  0.0935  0.0188  0.3517
  189loPI   GL1 3013   4.602  17.439  10.156 -0.1928  0.1525  0.0496
  189loPI   GL2 3014   4.808  17.659  10.025  0.1328  0.0640 -0.1008
  189loPI   C1A 3015   4.461  17.270   9.753 -0.0217 -0.1065  0.1888
  189loPI   C2A 3016   4.362  17.281   9.321  0.2464 -0.0492 -0.0452
  189loPI   C3A 3017   4.371  17.249   8.872  0.1781 -0.0314  0.0591
  189loPI   C4A 3018   4.388  17.192   8.425 -0.0885 -0.2147 -0.0484
  189loPI   C5A 3019   4.375  17.006   8.016 -0.2740  0.1262 -0.0818
  189loPI   C6A 3020   4.621  16.840   7.778  0.1525 -0.2130  0.1689
  189loPI   C1B 3021   4.714  17.730   9.589 -0.4325  0.2250  0.0984
  189loPI   C2B 3022   4.619  17.695   9.103  0.0832  0.0531 -0.2016
  189loPI   C3B 3023   4.731  18.036   8.848  0.0077 -0.0824 -0.1064
  189loPI   C4B 3024   4.656  18.151   8.310  0.0276 -0.0713  0.0111
  190loPI    C1 3025  12.977   5.958  10.649 -0.0381  0.1580 -0.0558
  190loPI    C2 3026  13.224   5.929  10.963  0.0820 -0.1524 -0.1759
  190loPI    C3 3027  12.956   6.226  10.946  0.2482  0.0166  0.0956
  190loPI   PO4 3028  13.039   5.708  10.516  0.1813 -0.2050 -0.2146
  190loPI   GL1 3029  13.079   5.565  10.172 -0.0033  0.0147  0.2053
  190loPI   GL2 3030  13.328   5.276  10.047  0.3306  0.0509  0.2801
  190loPI   C1A 3031  12.867   5.491   9.789 -0.0171  0.0246 -0.2143
  190loPI   C2A 3032  12.915   5.571   9.459  0.0745  0.3181 -0.0034
  190loPI   C3A 3033  12.914   5.614   9.067  0.2585 -0.0920 -0.0031
  190loPI   C4A 3034  12.896   5.768   8.722 -0.2138  0.1531 -0.0977
  190loPI   C5A 3035  13.089   6.059   8.390  0.0039 -0.0703  0.1912
  190loPI   C6A 3036  13.028   6.438   8.208  0.1955 -0.3103 -0.0491
  190loPI   C1B 3037  13.220   5.147   9.601 -0.2578  0.0686 -0.2599
  190loPI   C2B 3038  13.250   5.234   9.187 -0.4879 -0.0824 -0.0414
  190loPI   C3B 3039  13.181   5.255   8.744  0.0012 -0.1360  0.0358
  190loPI   C4B 3040  13.308   5.447   8.413 -0.1385 -0.1007  0.3699
  191loPI    C1 3041   2.061  12.300  10.616  0.0047  0.1790  0.1145
  191loPI    C2 3042   2.380  12.084  10.724 -0.1523  0.0025  0.2301
  191loPI    C3 3043   2.196  12.317  10.992  0.0844  0.3724  0.0783
  191loPI   PO4 3044   1.949  12.167  10.388  0.3355 -0.0533 -0.0505
  191loPI   GL1 3045   1.776  12.234   9.984  0.1879 -0.1427 -0.1817
  191loPI   GL2 3046   1.687  12.589   9.934 -0.0909 -0.2793 -0.1215
  191loPI   C1A 3047   1.605  12.304   9.543 -0.2288 -0.1666 -0.1151
  191loPI   C2A 3048   1.493  12.302   9.186 -0.1044 -0.2209  0.0711
  191loPI   C3A 3049   1.566  12.499   8.736  0.2844  0.3090  0.2060
  191loPI   C4A 3050   1.775  12.453   8.339  0.1797  0.0330  0.2053
  191loPI   C5A 3051   1.736  12.780   8.029 -0.3324 -0.0543  0.0457
  191loPI   C6A 3052   1.579  12.946   7.631  0.2772  0.0869 -0.0419
  191loPI   C1B 3053   1.904  12.713   9.589  0.1468 -0.2926  0.2521
  191loPI   C2B 3054   1.801  12.685   9.174  0.0235 -0.1888 -0.0412
  191loPI   C3B 3055   1.705  12.999   8.845  0.0592 -0.1909  0.4906
  191loPI   C4B 3056   1.795  13.337   8.535  0.1109  0.1494  0.0809
  192loPI    C1 3057  11.370   6.707  10.497 -0.0110 -0.0173 -0.0116
  192loPI    C2 3058  10.982   6.789  10.449  0.0248  0.1896  0.0472
  192loPI    C3 3059  11.143   6.787  10.816  0.1062  0.2291  0.0119
  192loPI   PO4 3060  11.428   6.929  10.277 -0.3241 -0.2804  0.1925
  192loPI   GL1 3061  11.355   6.894   9.775  0.1748  0.1083  0.0232
  192loPI   GL2 3062  11.143   6.629   9.679  0.2221 -0.3214  0.1079
  192loPI   C1A 3063  11.462   6.981   9.454  0.3247  0.1730  0.2135
  192loPI   C2A 3064  11.175   7.015   9.098  0.1092 -0.0616 -0.2270
  192loPI   C3A 3065  11.241   6.924   8.640 -0.0555  0.0979  0.1918
  192loPI   C4A 3066  11.382   7.158   8.206 -0.1721 -0.2341 -0.0470
  192loPI   C5A 3067  11.667   7.210   7.885 -0.0256  0.0784  0.0312
  192loPI   C6A 3068  11.896   6.879   7.707  0.1691 -0.1641 -0.1281
  192loPI   C1B 3069  11.321   6.523   9.307 -0.1497 -0.0220 -0.0260
  192loPI   C2B 3070  11.013   6.525   8.906  0.5630 -0.1255 -0.0935
  192loPI   C3B 3071  10.991   6.508   8.544  0.4016 -0.0056 -0.1590
  192loPI   C4B 3072  11.033   6.308   8.182 -0.1372 -0.1127  0.0627
  193loPI    C1 3073   2.192  13.093  10.448 -0.0827 -0.1324  0.0585
  193loPI    C2 3074   2.444  13.397  10.385 -0.3093  0.0531  0.0360
  193loPI    C3 3075   2.068  13.417  10.249 -0.2326 -0.3783 -0.2580
  193loPI   PO4 3076   2.265  12.895  10.412  0.0612  0.1142 -0.0945
  193loPI   GL1 3077   2.586  12.963  10.133  0.1684 -0.2557 -0.4282
  193loPI   GL2 3078   2.619  13.175   9.975 -0.2012 -0.1229  0.0335
  193loPI   C1A 3079   2.569  12.675   9.833  0.0229 -0.0396 -0.1359
  193loPI   C2A 3080   2.392  12.853   9.490  0.2214 -0.0655  0.4448
  193loPI   C3A 3081   2.306  12.820   9.083 -0.1894 -0.0321  0.1578
  193loPI   C4A 3082   2.475  12.635   8.722  0.2654  0.0918 -0.3577
  193loPI   C5A 3083   2.745  12.256   8.568 -0.0106  0.1842 -0.1424
  193loPI   C6A 3084   3.183  12.175   8.483  0.2080  0.0020 -0.2416
  193loPI   C1B 3085   2.482  13.352   9.591  0.1144 -0.1590  0.1164
  193loPI   C2B 3086   2.250  13.323   9.252  0.0030  0.3196 -0.2109
  193loPI   C3B 3087   2.266  13.302   8.774  0.0735  0.0017  0.1624
  193loPI   C4B 3088   2.103  12.965   8.484  0.0765  0.0439 -0.2099
  194loPI    C1 3089   8.553   7.929  10.828 -0.0451 -0.1336  0.0767
  194loPI    C2 3090   8.869   7.688  10.783  0.1704  0.1425  0.0860
  194loPI    C3 3091   8.700   7.731  11.143  0.0500 -0.0914  0.0593
  194loPI   PO4 3092   8.431   7.890  10.478 -0.0322 -0.0905  0.3189
  194loPI   GL1 3093   8.280   7.950  10.024 -0.2267  0.1597  0.0648
  194loPI   GL2 3094   8.658   8.108  10.025 -0.0242  0.0086 -0.1402
  194loPI   C1A 3095   8.282   8.059   9.575 -0.3713  0.1634 -0.2955
  194loPI   C2A 3096   8.214   7.977   9.124 -0.0348 -0.0227  0.2193
  194loPI   C3A 3097   8.191   8.002   8.667  0.2158  0.1905 -0.1024
  194loPI   C4A 3098   8.252   7.825   8.151  0.0054  0.1890  0.0902
  194loPI   C5A 3099   8.353   7.536   7.844 -0.1723  0.0047 -0.1040
  194loPI   C6A 3100   8.099   7.268   7.652  0.0190  0.0028  0.0058
  194loPI   C1B 3101   8.603   8.398   9.673 -0.1853  0.1072 -0.1107
  194loPI   C2B 3102   8.520   8.345   9.237 -0.1371 -0.2795 -0.3837
  194loPI   C3B 3103   8.497   8.436   8.771 -0.2040  0.2119 -0.1447
  194loPI   C4B 3104   8.388   8.298   8.325 -0.0735 -0.1122 -0.3229
  195loPI    C1 3105   7.594  17.921  10.803  0.1002  0.0230 -0.1073
  195loPI    C2 3106   7.488  18.215  11.052 -0.0819 -0.0460 -0.1020
  195loPI    C3 3107   7.875  18.141  10.984 -0.0343  0.1846 -0.0923
  195loPI   PO4 3108   7.323  17.830  10.770 -0.0108  0.0463  0.2814
  195loPI   GL1 3109   6.991  17.742  10.468  0.0139 -0.2557 -0.1819
  195loPI   GL2 3110   7.163  17.921  10.331 -0.2473 -0.0311 -0.0838
  195loPI   C1A 3111   6.747  17.684  10.153  0.1745 -0.1590  0.0108
  195loPI   C2A 3112   6.670  17.653   9.746  0.0726  0.3700 -0.4745
  195loPI   C3A 3113   6.763  17.566   9.200 -0.0478  0.0551 -0.2234
  195loPI   C4A 3114   6.711  17.427   8.766 -0.1298 -0.2716 -0.5036
  195loPI   C5A 3115   6.973  17.548   8.459  0.1077 -0.0561  0.0654
  195loPI   C6A 3116   7.319  17.818   8.449  0.1207  0.0933 -0.0560
  195loPI   C1B 3117   6.959  18.045   9.871  0.2938 -0.0843 -0.2625
  195loPI   C2B 3118   6.947  18.114   9.490  0.1369 -0.1684 -0.0883
  195loPI   C3B 3119   6.861  18.038   9.006 -0.3670  0.4083 -0.1804
  195loPI   C4B 3120   6.799  18.028   8.663  0.0262  0.0808 -0.0531
  196loPI    C1 3121   7.221  15.582  11.179 -0.1008 -0.4097  0.0720
  196loPI    C2 3122   6.851  15.734  11.172  0.0629 -0.0071 -0.1033
  196loPI    C3 3123   7.066  15.747  11.509 -0.0145 -0.0737 -0.0513
  196loPI   PO4 3124   7.203  15.543  10.884 -0.4647  0.0497  0.1986
  196loPI   GL1 3125   7.316  15.867  10.491  0.0876 -0.3782  0.0754
  196loPI   GL2 3126   7.068  15.844  10.269 -0.2115  0.1758  0.0068
  196loPI   C1A 3127   7.524  15.637  10.182 -0.1230 -0.1636  0.0837
  196loPI   C2A 3128   7.583  15.440   9.907  0.1400  0.0228  0.1642
  196loPI   C3A 3129   7.623  15.720   9.564  0.1244  0.0869  0.2257
  196loPI   C4A 3130   7.712  15.774   9.182  0.0956  0.0239 -0.1403
  196loPI   C5A 3131   7.805  15.668   8.796 -0.1524  0.0105 -0.1173
  196loPI   C6A 3132   7.949  15.785   8.346 -0.0132 -0.3994 -0.1016
  196loPI   C1B 3133   7.087  15.568   9.850 -0.3217  0.2424  0.1290
  196loPI   C2B 3134   7.096  15.769   9.491  0.0772 -0.2445  0.1840
  196loPI   C3B 3135   7.233  15.731   9.070 -0.0787 -0.0379 -0.1100
  196loPI   C4B 3136   7.343  15.794   8.631 -0.0032 -0.0341  0.0068
  197loPI    C1 3137  13.851   9.428  10.907  0.0863 -0.1848 -0.1492
  197loPI    C2 3138  13.610   9.617  10.650  0.1588  0.0700 -0.0338
  197loPI    C3 3139  13.467   9.490  11.002  0.1856  0.1973  0.0235
  197loPI   PO4 3140  14.011   9.332  10.787 -0.2810 -0.0036  0.0807
  197loPI   GL1 3141  14.377   9.098  10.650 -0.0454  0.1873 -0.1853
  197loPI   GL2 3142  14.402   9.323  10.392  0.0888 -0.2014 -0.0620
  197loPI   C1A 3143  14.754   9.034  10.333 -0.0196  0.1371  0.1420
  197loPI   C2A 3144  14.773   8.796  10.069 -0.2935 -0.1948 -0.1037
  197loPI   C3A 3145  14.720   8.866   9.658  0.1495 -0.1395 -0.1729
  197loPI   C4A 3146  14.797   8.923   9.170 -0.1525  0.2612  0.0574
  197loPI   C5A 3147  14.882   8.923   8.788 -0.0139 -0.3432  0.0277
  197loPI   C6A 3148  14.860   9.024   8.379  0.0101 -0.1029  0.4041
  197loPI   C1B 3149  14.566   9.289   9.940  0.0356  0.2553  0.0799
  197loPI   C2B 3150  14.571   9.384   9.521 -0.4497 -0.2672  0.2692
  197loPI   C3B 3151  14.542   9.329   9.071  0.0411 -0.2368 -0.2801
  197loPI   C4B 3152  14.635   9.334   8.676  0.0578  0.3704 -0.1695
  198loPI    C1 3153  14.838   2.900  10.644  0.0683 -0.0386  0.1180
  198loPI    C2 3154  14.463   2.970  10.765  0.1103  0.0148  0.2184
  198loPI    C3 3155  14.767   3.172  10.928  0.1740  0.0415  0.0683
  198loPI   PO4 3156  14.833   2.941  10.401  0.3171 -0.0235  0.1429
  198loPI   GL1 3157  14.789   2.550  10.046 -0.1337 -0.1173  0.0109
  198loPI   GL2 3158  15.158   2.472   9.947  0.0430  0.1389  0.2061
  198loPI   C1A 3159  14.398   2.364   9.822  0.0152  0.2431 -0.1428
  198loPI   C2A 3160  14.443   2.365   9.387 -0.1219  0.1493 -0.1009
  198loPI   C3A 3161  14.376   2.321   8.864  0.0039 -0.1195  0.1167
  198loPI   C4A 3162  14.305   2.288   8.476  0.2797 -0.1395 -0.0215
  198loPI   C5A 3163  14.209   2.275   8.040  0.3003 -0.3554 -0.1298
  198loPI   C6A 3164  13.946   2.270   7.750 -0.1293  0.0644  0.0237
  198loPI   C1B 3165  15.023   2.395   9.456 -0.1440 -0.1415 -0.1101
  198loPI   C2B 3166  14.834   2.566   9.154  0.0557 -0.1812  0.3571
  198loPI   C3B 3167  14.777   2.525   8.661  0.2616  0.0213  0.0382
  198loPI   C4B 3168  14.745   2.340   8.200 -0.1406  0.1406 -0.1349
  199loPI    C1 3169   5.509  12.750  10.747  0.0824 -0.0977 -0.0160
  199loPI    C2 3170   5.422  13.067  10.974  0.3277 -0.1059  0.0925
  199loPI    C3 3171   5.533  12.723  11.145 -0.2998 -0.3703 -0.0060
  199loPI   PO4 3172   5.663  12.846  10.476 -0.0716 -0.1245 -0.0408
  199loPI   GL1 3173   5.397  12.874  10.053  0.1015  0.2205  0.4585
  199loPI   GL2 3174   5.518  12.727   9.734 -0.0081 -0.0664 -0.0830
  199loPI   C1A 3175   5.362  13.201   9.753 -0.0618 -0.1126  0.0475
  199loPI   C2A 3176   5.149  13.549   9.519  0.1047  0.1373 -0.0180
  199loPI   C3A 3177   5.140  13.702   9.134 -0.0288  0.1179  0.0078
  199loPI   C4A 3178   5.027  13.603   8.656  0.4306 -0.3266  0.2137
  199loPI   C5A 3179   4.868  13.359   8.326 -0.0791  0.2062 -0.0081
  199loPI   C6A 3180   4.507  12.971   8.349  0.0298 -0.0879  0.0349
  199loPI   C1B 3181   5.567  12.919   9.302 -0.0612  0.2097 -0.0531
  199loPI   C2B 3182   5.549  13.349   9.163  0.0091 -0.0537 -0.1900
  199loPI   C3B 3183   5.593  13.708   8.820 -0.0337 -0.2061 -0.0339
  199loPI   C4B 3184   5.585  13.859   8.404 -0.2303  0.4042  0.1364
  200loPI    C1 3185   3.103   6.923  10.992 -0.0421 -0.3035  0.2018
  200loPI    C2 3186   2.760   6.937  11.198  0.0361 -0.1674  0.3250
  200loPI    C3 3187   3.009   7.250  11.202 -0.0377 -0.0961 -0.1114
  200loPI   PO4 3188   2.979   6.772  10.737  0.1753  0.0491 -0.2103
  200loPI   GL1 3189   2.905   6.797  10.258 -0.0570 -0.0559 -0.1292
  200loPI   GL2 3190   2.737   6.977  10.064 -0.1904 -0.0166  0.4541
  200loPI   C1A 3191   3.235   6.822   9.877 -0.2317 -0.0642 -0.2410
  200loPI   C2A 3192   3.271   6.871   9.482 -0.0917  0.1402 -0.0079
  200loPI   C3A 3193   3.276   6.834   9.019  0.0199  0.1895 -0.1770
  200loPI   C4A 3194   3.275   6.805   8.574 -0.0324  0.2579 -0.1746
  200loPI   C5A 3195   3.377   6.826   8.147 -0.3752  0.0820  0.1883
  200loPI   C6A 3196   3.671   6.456   8.061  0.0593 -0.0475 -0.0657
  200loPI   C1B 3197   2.806   6.949   9.660 -0.0902  0.0770 -0.0576
  200loPI   C2B 3198   2.733   6.789   9.191 -0.3202  0.0381 -0.0258
  200loPI   C3B 3199   2.842   6.780   8.785 -0.0113  0.2358 -0.1551
  200loPI   C4B 3200   2.788   6.672   8.314 -0.1012 -0.4205 -0.0316
  201loPI    C1 3201   0.590   0.465  10.944 -0.0899 -0.1400 -0.1832
  201loPI    C2 3202   0.217   0.331  10.889 -0.2304  0.0904  0.1742
  201loPI    C3 3203   0.301   0.717  10.830 -0.0303  0.0260  0.0276
  201loPI   PO4 3204   0.686   0.322  10.712 -0.0147 -0.0736 -0.1916
  201loPI   GL1 3205   0.784   0.472  10.160  0.0548  0.0090 -0.1056
  201loPI   GL2 3206   0.814   0.102  10.273 -0.3410  0.1848  0.3487
  201loPI   C1A 3207   1.133   0.555   9.862  0.0243  0.1234  0.0873
  201loPI   C2A 3208   1.054   0.618   9.393 -0.2762 -0.1467  0.0586
  201loPI   C3A 3209   1.149   0.462   8.935  0.1917 -0.1089 -0.0984
  201loPI   C4A 3210   0.866   0.117   8.894  0.2772  0.2539  0.2881
  201loPI   C5A 3211   0.441   0.222   8.914 -0.2163  0.2487  0.1304
  201loPI   C6A 3212  -0.003   0.250   8.788 -0.0974  0.2018  0.0200
  201loPI   C1B 3213   0.983  -0.064   9.931 -0.1851 -0.0412 -0.0801
  201loPI   C2B 3214   1.200   0.134   9.635 -0.0079 -0.1164 -0.1943
  201loPI   C3B 3215   1.301   0.047   9.205  0.0567  0.1155 -0.1097
  201loPI   C4B 3216   1.405   0.030   8.778  0.1832  0.0802 -0.0095
  202loPI    C1 3217  13.957  13.002  10.651  0.0564 -0.0845  0.0688
  202loPI    C2 3218  13.885  12.940  11.040 -0.1328 -0.0556  0.0393
  202loPI    C3 3219  13.737  13.264  10.858  0.1982  0.0828  0.0097
  202loPI   PO4 3220  14.168  12.821  10.659 -0.1439  0.1273 -0.0874
  202loPI   GL1 3221  14.063  12.522  10.275  0.0550  0.2192 -0.3761
  202loPI   GL2 3222  14.010  12.855  10.172  0.3706  0.1585  0.0052
  202loPI   C1A 3223  14.241  12.423   9.913 -0.1792 -0.0638 -0.3816
  202loPI   C2A 3224  14.139  12.433   9.497 -0.0329 -0.2462 -0.2032
  202loPI   C3A 3225  14.180  12.474   9.038  0.1546 -0.0258 -0.3858
  202loPI   C4A 3226  14.329  12.460   8.647  0.0600 -0.0691 -0.1691
  202loPI   C5A 3227  14.254  12.310   8.311  0.1896  0.0986 -0.0891
  202loPI   C6A 3228  14.140  12.015   8.252 -0.1937 -0.0552  0.0919
  202loPI   C1B 3229  14.032  12.880   9.666  0.0793  0.3169 -0.2473
  202loPI   C2B 3230  14.099  12.933   9.283 -0.2422 -0.1461 -0.0132
  202loPI   C3B 3231  14.042  12.937   8.833 -0.2739  0.3049 -0.1184
  202loPI   C4B 3232  13.948  12.752   8.375 -0.0815 -0.2758 -0.0209
  203loPI    C1 3233  11.813  10.314  10.797 -0.1856 -0.0433 -0.1393
  203loPI    C2 3234  11.726   9.991  11.018  0.0022  0.0081  0.0119
  203loPI    C3 3235  11.675  10.358  11.170  0.0367  0.0454 -0.0657
  203loPI   PO4 3236  11.782  10.183  10.577 -0.1587  0.0792  0.2719
  203loPI   GL1 3237  11.886  10.416  10.127 -0.3725 -0.1637 -0.0868
  203loPI   GL2 3238  12.135  10.589  10.022 -0.1029 -0.1419  0.1610
  203loPI   C1A 3239  11.581  10.614   9.854  0.2235  0.2818 -0.0968
  203loPI   C2A 3240  11.518  10.520   9.481  0.2167  0.0141 -0.3318
  203loPI   C3A 3241  11.570  10.535   9.061 -0.0563 -0.0168  0.4219
  203loPI   C4A 3242  11.604  10.543   8.706 -0.2108  0.0832  0.0058
  203loPI   C5A 3243  11.702  10.768   8.300  0.0145 -0.0022  0.1450
  203loPI   C6A 3244  11.880  10.975   7.996  0.3704  0.2139 -0.2140
  203loPI   C1B 3245  12.052  10.468   9.649 -0.3564 -0.1403  0.0589
  203loPI   C2B 3246  12.128  10.504   9.192 -0.0135 -0.0118 -0.0830
  203loPI   C3B 3247  12.098  10.575   8.821  0.0333 -0.2519  0.1957
  203loPI   C4B 3248  12.168  10.687   8.371  0.0106 -0.1073 -0.1890
  204loPI    C1 3249  17.701   1.015  10.446 -0.0511 -0.0557  0.3217
  204loPI    C2 3250  17.978   0.756  10.574  0.0199 -0.0065  0.2687
  204loPI    C3 3251  17.630   0.621  10.428  0.0546 -0.0716  0.2457
  204loPI   PO4 3252  17.866   1.190  10.263 -0.0793  0.0329  0.0646
  204loPI   GL1 3253  17.755   1.495  10.110 -0.1375  0.0092  0.2236
  204loPI   GL2 3254  17.985   1.825   9.932  0.1371  0.2801  0.1081
  204loPI   C1A 3255  17.577   1.468   9.702  0.1813  0.1378 -0.1775
  204loPI   C2A 3256  17.576   1.570   9.285  0.1668 -0.0183 -0.2118
  204loPI   C3A 3257  17.363   1.671   8.938  0.2194 -0.2153 -0.2021
  204loPI   C4A 3258  17.417   1.713   8.463  0.0177  0.2184 -0.0692
  204loPI   C5A 3259  17.086   1.734   8.272  0.2419 -0.0928  0.1114
  204loPI   C6A 3260  16.825   1.469   8.178  0.1888 -0.0847 -0.0502
  204loPI   C1B 3261  18.110   1.550   9.647 -0.3644  0.1348  0.0729
  204loPI   C2B 3262  18.354   1.423   9.288  0.2002 -0.2032  0.0763
  204loPI   C3B 3263  18.566   1.063   9.195 -0.1893  0.2409  0.0647
  204loPI   C4B 3264  18.760   0.647   9.188 -0.2363  0.1747  0.1109
  205loPI    C1 3265   5.774   3.720  10.663  0.0610 -0.0136  0.0638
  205loPI    C2 3266   6.169   3.718  10.604  0.0729 -0.0601  0.1422
  205loPI    C3 3267   6.004   3.455  10.855 -0.0014 -0.0044  0.1519
  205loPI   PO4 3268   5.743   4.006  10.689  0.2395 -0.0299  0.1683
  205loPI   GL1 3269   5.845   4.177  10.267  0.2688  0.0908  0.0968
  205loPI   GL2 3270   5.899   4.448  10.172 -0.0274  0.1278 -0.1494
  205loPI   C1A 3271   5.731   4.046   9.824  0.1546  0.1539 -0.2383
  205loPI   C2A 3272   5.768   4.052   9.402 -0.1079 -0.0958 -0.0837
  205loPI   C3A 3273   5.789   4.062   8.903 -0.2860 -0.1254 -0.2562
  205loPI   C4A 3274   5.802   4.056   8.473  0.1503  0.3934  0.1635
  205loPI   C5A 3275   5.812   3.832   7.978  0.0071  0.1555  0.1358
  205loPI   C6A 3276   5.562   3.867   7.628 -0.1157  0.5281 -0.3883
  205loPI   C1B 3277   6.041   4.485   9.684  0.0657 -0.1218  0.2845
  205loPI   C2B 3278   6.073   4.398   9.197  0.0356  0.1866 -0.1491
  205loPI   C3B 3279   6.051   4.481   8.741  0.0007  0.1265 -0.0456
  205loPI   C4B 3280   6.039   4.464   8.257  0.1335 -0.1245  0.2806
  206loPI    C1 3281   6.476  15.998  11.019 -0.1153  0.0586 -0.0542
  206loPI    C2 3282   6.252  16.328  11.052  0.0073  0.1415 -0.0480
  206loPI    C3 3283   6.611  16.346  10.876 -0.0224 -0.0063 -0.1251
  206loPI   PO4 3284   6.360  15.818  10.896  0.0970  0.0726  0.0012
  206loPI   GL1 3285   6.134  15.896  10.590 -0.1037 -0.1451 -0.2204
  206loPI   GL2 3286   6.214  16.198  10.503 -0.0382  0.0600  0.0521
  206loPI   C1A 3287   6.028  15.692  10.142  0.3400  0.4645 -0.1815
  206loPI   C2A 3288   6.076  15.762   9.708 -0.3501  0.0239  0.1193
  206loPI   C3A 3289   6.110  15.858   9.256 -0.0503 -0.1430  0.0612
  206loPI   C4A 3290   6.034  16.179   8.988 -0.1043  0.2612 -0.1956
  206loPI   C5A 3291   5.757  16.443   8.775 -0.0519 -0.0796  0.3548
  206loPI   C6A 3292   5.398  16.379   8.737  0.0950  0.1486  0.1990
  206loPI   C1B 3293   6.352  16.117  10.058 -0.0104 -0.0239 -0.0067
  206loPI   C2B 3294   6.333  16.171   9.647  0.0417  0.2538  0.2210
  206loPI   C3B 3295   6.490  16.275   9.159  0.0199 -0.1140 -0.0162
  206loPI   C4B 3296   6.481  16.328   8.745 -0.3082 -0.2183  0.1687
  207loPI    C1 3297  16.446   6.749  10.502 -0.1152 -0.0873  0.0465
  207loPI    C2 3298  16.329   7.084  10.316  0.0975 -0.0621 -0.0454
  207loPI    C3 3299  16.244   7.029  10.704  0.3142  0.2317  0.0470
  207loPI   PO4 3300  16.354   6.464  10.344 -0.1764 -0.0225  0.4235
  207loPI   GL1 3301  16.062   6.470  10.005 -0.1161  0.0560  0.1347
  207loPI   GL2 3302  16.225   6.775   9.900  0.0136 -0.0423 -0.3026
  207loPI   C1A 3303  15.864   6.349   9.663  0.0857  0.0276 -0.0888
  207loPI   C2A 3304  15.776   6.418   9.318 -0.0751  0.2725  0.0190
  207loPI   C3A 3305  15.747   6.378   8.873  0.1404  0.2115 -0.1498
  207loPI   C4A 3306  16.026   6.497   8.583 -0.0026 -0.0001 -0.0893
  207loPI   C5A 3307  16.308   6.657   8.305 -0.0018  0.0906 -0.0044
  207loPI   C6A 3308  16.560   6.910   8.027  0.3641 -0.4097 -0.1995
  207loPI   C1B 3309  16.322   6.549   9.520 -0.1181 -0.1206  0.0214
  207loPI   C2B 3310  16.211   6.326   9.048  0.1347 -0.1576  0.0486
  207loPI   C3B 3311  16.582   6.244   8.711 -0.0815 -0.0639 -0.0043
  207loPI   C4B 3312  16.730   6.273   8.261  0.0406  0.0536  0.2714
  208loPI    C1 3313   4.953  10.922  10.335 -0.0419 -0.0821 -0.1684
  208loPI    C2 3314   5.225  11.149  10.522  0.0065 -0.3697  0.1180
  208loPI    C3 3315   4.835  11.197  10.600 -0.0029 -0.1953 -0.0322
  208loPI   PO4 3316   5.036  10.902  10.100  0.0039 -0.1639 -0.2279
  208loPI   GL1 3317   5.309  10.842   9.775 -0.0489 -0.3426 -0.3927
  208loPI   GL2 3318   5.403  10.533   9.910  0.0725  0.2714 -0.1132
  208loPI   C1A 3319   5.337  10.807   9.315 -0.0349 -0.1485  0.1720
  208loPI   C2A 3320   5.265  10.788   8.913 -0.0558 -0.0739 -0.0356
  208loPI   C3A 3321   5.136  10.828   8.510 -0.0941  0.0458  0.1580
  208loPI   C4A 3322   5.068  10.541   8.195  0.1871  0.2184 -0.0465
  208loPI   C5A 3323   5.227  10.185   7.972 -0.0112 -0.0697 -0.2618
  208loPI   C6A 3324   5.414  10.049   7.619 -0.1757  0.0005 -0.0320
  208loPI   C1B 3325   5.591  10.372   9.499  0.0144 -0.0960  0.1212
  208loPI   C2B 3326   5.540  10.354   9.081  0.0511  0.0174  0.1731
  208loPI   C3B 3327   5.497  10.300   8.631 -0.1193  0.2368 -0.4679
  208loPI   C4B 3328   5.577  10.440   8.194  0.0824 -0.0322  0.0909
  209loPI    C1 3329  17.266   0.967  10.679 -0.0272  0.2887  0.1105
  209loPI    C2 3330  17.142   0.982  11.059 -0.2863  0.1749  0.0327
  209loPI    C3 3331  17.497   1.137  10.958 -0.0489 -0.1216  0.3869
  209loPI   PO4 3332  17.146   0.889  10.513 -0.2397  0.0586 -0.2450
  209loPI   GL1 3333  17.232   0.949  10.059 -0.4352  0.2568  0.3752
  209loPI   GL2 3334  17.626   0.884   9.934  0.1639  0.1121 -0.2451
  209loPI   C1A 3335  17.361   1.073   9.516 -0.0749  0.0987  0.0157
  209loPI   C2A 3336  17.416   1.150   9.038 -0.0937 -0.1740  0.2228
  209loPI   C3A 3337  17.196   1.279   8.611 -0.0776 -0.1555  0.0363
  209loPI   C4A 3338  17.277   1.095   8.252  0.2587  0.0684 -0.0760
  209loPI   C5A 3339  17.745   1.143   8.117 -0.1952 -0.1502  0.3525
  209loPI   C6A 3340  18.068   1.010   7.864 -0.1030  0.0844 -0.0428
  209loPI   C1B 3341  17.856   1.045   9.506 -0.2380 -0.0426 -0.2460
  209loPI   C2B 3342  17.902   1.228   9.151  0.1121  0.0679 -0.1232
  209loPI   C3B 3343  18.206   1.268   8.809  0.1384 -0.0145  0.2543
  209loPI   C4B 3344  18.154   1.137   8.368  0.1266  0.2659 -0.0120
  210loPI    C1 3345  13.003  17.406  10.829 -0.1844 -0.0216  0.0915
  210loPI    C2 3346  12.696  17.576  10.637  0.0222  0.1403 -0.0999
  210loPI    C3 3347  12.964  17.804  10.828 -0.0059 -0.0035  0.1149
  210loPI   PO4 3348  13.059  17.224  10.580  0.0380 -0.0041 -0.0184
  210loPI   GL1 3349  13.079  17.126  10.139 -0.0373 -0.1203  0.1270
  210loPI   GL2 3350  12.830  16.936  10.102  0.1507  0.1259  0.0151
  210loPI   C1A 3351  13.382  17.222   9.886 -0.2546 -0.2652  0.2706
  210loPI   C2A 3352  13.284  17.163   9.416 -0.0637 -0.2465 -0.1849
  210loPI   C3A 3353  13.209  17.209   8.983  0.2104 -0.0417 -0.1979
  210loPI   C4A 3354  13.133  17.311   8.557  0.0659 -0.2892  0.3105
  210loPI   C5A 3355  13.010  17.479   8.240 -0.0984 -0.1831 -0.2150
  210loPI   C6A 3356  12.806  17.656   7.823  0.1060  0.0245  0.1290
  210loPI   C1B 3357  12.853  17.209   9.710  0.0709 -0.1563 -0.0235
  210loPI   C2B 3358  12.752  17.351   9.303  0.1978 -0.2461  0.1261
  210loPI   C3B 3359  12.780  17.663   8.931  0.2116  0.1294 -0.1132
  210loPI   C4B 3360  12.607  17.747   8.488  0.1555 -0.0630 -0.0322
  211loPI    C1 3361   3.373  17.174  10.874  0.1821  0.0059 -0.0976
  211loPI    C2 3362   3.508  16.958  11.183 -0.1704 -0.1605 -0.0548
  211loPI    C3 3363   3.353  17.321  11.246  0.1411 -0.0176 -0.0905
  211loPI   PO4 3364   3.390  16.980  10.716  0.1510  0.3751 -0.0003
  211loPI   GL1 3365   3.524  16.776  10.353  0.0572  0.2463 -0.0785
  211loPI   GL2 3366   3.366  16.517  10.212  0.2420  0.0538  0.1234
  211loPI   C1A 3367   3.700  16.773   9.952 -0.0891  0.2247  0.2011
  211loPI   C2A 3368   3.619  16.761   9.483  0.1166 -0.1903 -0.0665
  211loPI   C3A 3369   3.547  16.805   9.047  0.1751 -0.0464  0.2404
  211loPI   C4A 3370   3.701  16.736   8.617 -0.0400 -0.0207 -0.0573
  211loPI   C5A 3371   3.828  16.907   8.246 -0.0506 -0.0524 -0.3598
  211loPI   C6A 3372   3.537  17.235   8.076  0.2392  0.1222 -0.0973
  211loPI   C1B 3373   3.184  16.822   9.814 -0.1048 -0.3181  0.2008
  211loPI   C2B 3374   3.056  16.879   9.368 -0.0437  0.0969  0.0812
  211loPI   C3B 3375   3.098  16.926   8.953  0.1564 -0.1234  0.2070
  211loPI   C4B 3376   3.191  16.783   8.541  0.0747 -0.0269  0.1912
  212loPI    C1 3377   6.129  13.994  11.033  0.1167  0.1681  0.0780
  212loPI    C2 3378   6.140  13.718  11.323  0.2203  0.2067  0.1110
  212loPI    C3 3379   6.158  14.107  11.415 -0.0716  0.2309  0.0746
  212loPI   PO4 3380   5.898  13.835  10.827 -0.1072 -0.0870 -0.0412
  212loPI   GL1 3381   5.722  13.838  10.537  0.0237  0.0471  0.0181
  212loPI   GL2 3382   6.014  13.703  10.345  0.0032 -0.2646  0.0828
  212loPI   C1A 3383   5.740  14.132  10.142  0.0034 -0.1136  0.0826
  212loPI   C2A 3384   5.682  14.376   9.802  0.1153 -0.0644 -0.0313
  212loPI   C3A 3385   5.732  14.447   9.385  0.4054 -0.3971  0.0827
  212loPI   C4A 3386   5.691  14.546   8.934 -0.0388 -0.0716  0.2325
  212loPI   C5A 3387   5.708  14.621   8.495  0.1300 -0.0974  0.1585
  212loPI   C6A 3388   5.974  14.680   8.065  0.1209 -0.0657  0.1594
  212loPI   C1B 3389   6.221  13.633   9.959 -0.2189 -0.1236  0.0616
  212loPI   C2B 3390   6.377  13.798   9.532 -0.0203 -0.0550 -0.0477
  212loPI   C3B 3391   6.422  13.939   9.120  0.0053 -0.2037 -0.2115
  212loPI   C4B 3392   6.395  14.031   8.786 -0.0974 -0.0264  0.2495
  213loPI    C1 3393  12.797   2.859  10.679 -0.1305 -0.0422 -0.0762
  213loPI    C2 3394  12.486   2.990  10.894 -0.2043 -0.2191 -0.0738
  213loPI    C3 3395  12.856   3.011  11.045 -0.2416 -0.2256  0.0195
  213loPI   PO4 3396  12.713   2.928  10.440  0.0522 -0.1818  0.0162
  213loPI   GL1 3397  12.784   3.223  10.116  0.1544  0.0009  0.0342
  213loPI   GL2 3398  12.888   3.652  10.153  0.1961  0.2016  0.0700
  213loPI   C1A 3399  12.706   3.211   9.744 -0.2032 -0.0249 -0.1750
  213loPI   C2A 3400  12.717   3.310   9.308  0.0246  0.3804 -0.1577
  213loPI   C3A 3401  12.742   3.264   8.903  0.1790 -0.1228 -0.0414
  213loPI   C4A 3402  12.686   3.170   8.438  0.2085 -0.2360 -0.3547
  213loPI   C5A 3403  12.531   3.186   7.945  0.1018  0.0891 -0.1053
  213loPI   C6A 3404  12.475   3.515   7.615  0.1398  0.0819  0.1898
  213loPI   C1B 3405  12.827   3.688   9.671 -0.1506 -0.0759  0.1394
  213loPI   C2B 3406  12.770   3.804   9.237  0.0899  0.0259  0.2004
  213loPI   C3B 3407  12.775   3.829   8.830  0.0548  0.1620 -0.1374
  213loPI   C4B 3408  12.794   3.674   8.298  0.0224 -0.0677  0.1371
  214loPI    C1 3409   4.049   8.551  10.595 -0.1892 -0.0421 -0.0143
  214loPI    C2 3410   4.061   8.915  10.761  0.2076 -0.1239  0.1479
  214loPI    C3 3411   3.711   8.759  10.646  0.0489  0.3675 -0.0619
  214loPI   PO4 3412   4.260   8.498  10.382  0.2615 -0.0898  0.0192
  214loPI   GL1 3413   4.546   8.594  10.084  0.2071 -0.0200 -0.2329
  214loPI   GL2 3414   4.156   8.556   9.921  0.0220 -0.0631  0.0610
  214loPI   C1A 3415   4.521   8.923   9.771 -0.2258  0.0699  0.0619
  214loPI   C2A 3416   4.518   8.729   9.425  0.0274 -0.2572  0.0749
  214loPI   C3A 3417   4.334   8.453   9.147 -0.0981 -0.2736  0.1592
  214loPI   C4A 3418   4.144   8.134   9.040  0.1705  0.0725 -0.0756
  214loPI   C5A 3419   3.966   8.096   8.686  0.0501 -0.1663  0.3421
  214loPI   C6A 3420   3.609   8.073   8.481 -0.1149 -0.2521 -0.0060
  214loPI   C1B 3421   3.950   8.274   9.622 -0.0528  0.1173 -0.0142
  214loPI   C2B 3422   3.640   8.355   9.333  0.3910 -0.3376 -0.1255
  214loPI   C3B 3423   3.364   8.804   9.299  0.2602 -0.0423  0.2384
  214loPI   C4B 3424   2.980   8.903   9.119  0.1809 -0.0404  0.2960
  215loPI    C1 3425   1.431   0.017  10.951  0.0291 -0.1176  0.2997
  215loPI    C2 3426   1.469   0.141  11.329  0.1415 -0.0238  0.2582
  215loPI    C3 3427   1.171   0.281  11.102  0.1411  0.0066  0.2773
  215loPI   PO4 3428   1.656   0.067  10.837 -0.3388  0.0884  0.2286
  215loPI   GL1 3429   1.861   0.163  10.465  0.0055 -0.2197  0.0841
  215loPI   GL2 3430   1.652  -0.104  10.368 -0.0853  0.0349 -0.2291
  215loPI   C1A 3431   2.192   0.082  10.112 -0.2030  0.1379  0.1368
  215loPI   C2A 3432   2.282   0.145   9.622 -0.0248 -0.0069  0.1128
  215loPI   C3A 3433   2.307   0.174   9.148 -0.1281  0.2224 -0.1981
  215loPI   C4A 3434   2.331   0.060   8.814  0.0578  0.0676  0.1230
  215loPI   C5A 3435   2.342   0.056   8.306 -0.0991  0.2415 -0.3254
  215loPI   C6A 3436   2.054   0.120   8.019 -0.2202 -0.2816  0.1995
  215loPI   C1B 3437   1.577  -0.207   9.918  0.1740 -0.2325  0.3376
  215loPI   C2B 3438   1.608  -0.261   9.519 -0.0621 -0.2404 -0.0875
  215loPI   C3B 3439   1.572  -0.377   9.096 -0.0117 -0.3621  0.1603
  215loPI   C4B 3440   1.742  -0.472   8.684  0.0235  0.0718 -0.0318
  216loPI    C1 3441  10.514   8.192  10.543  0.2361  0.1752  0.1533
  216loPI    C2 3442  10.185   8.332  10.724  0.1615  0.1016  0.0753
  216loPI    C3 3443  10.256   8.420  10.340  0.0156 -0.2278 -0.0315
  216loPI   PO4 3444  10.550   7.926  10.469 -0.1547 -0.0529  0.1078
  216loPI   GL1 3445  10.834   7.726  10.115 -0.0449 -0.3528 -0.3462
  216loPI   GL2 3446  10.675   8.077  10.019 -0.1456 -0.2678  0.3796
  216loPI   C1A 3447  10.936   7.490   9.788  0.0728  0.2192 -0.0075
  216loPI   C2A 3448  11.073   7.454   9.385  0.3462  0.1276  0.0233
  216loPI   C3A 3449  11.084   7.512   8.970 -0.0963  0.0129 -0.1112
  216loPI   C4A 3450  11.076   7.446   8.529 -0.2254  0.0525 -0.0832
  216loPI   C5A 3451  10.936   7.441   8.161  0.0720 -0.0458 -0.1493
  216loPI   C6A 3452  10.807   7.808   7.906 -0.2067 -0.0220 -0.2161
  216loPI   C1B 3453  10.871   7.929   9.657 -0.0210  0.1905  0.0866
  216loPI   C2B 3454  10.756   7.894   9.242  0.1693  0.0096  0.0054
  216loPI   C3B 3455  10.768   7.886   8.829 -0.0040  0.2187 -0.1259
  216loPI   C4B 3456  10.871   7.910   8.430 -0.2491  0.0606  0.0396
  217loPI    C1 3457  11.405  14.259  10.769 -0.1892 -0.2489  0.3191
  217loPI    C2 3458  11.533  13.889  10.852  0.2683 -0.0623  0.4786
  217loPI    C3 3459  11.736  14.206  10.988  0.4240  0.2564 -0.4325
  217loPI   PO4 3460  11.278  14.227  10.521 -0.0762 -0.0646  0.2635
  217loPI   GL1 3461  11.446  14.451  10.172  0.0413 -0.1846  0.2153
  217loPI   GL2 3462  11.735  14.471  10.070  0.3597  0.0235  0.0418
  217loPI   C1A 3463  11.163  14.388   9.823  0.1574 -0.1876 -0.1493
  217loPI   C2A 3464  10.958  14.140   9.543  0.3677  0.0257 -0.0105
  217loPI   C3A 3465  11.003  13.980   9.138 -0.1808  0.1594 -0.0841
  217loPI   C4A 3466  10.811  13.915   8.675  0.2346 -0.0268 -0.1273
  217loPI   C5A 3467  10.936  14.033   8.226 -0.0268  0.0141  0.1391
  217loPI   C6A 3468  11.087  14.336   7.987  0.0269  0.2664 -0.0481
  217loPI   C1B 3469  12.108  14.382   9.649  0.0997  0.1303 -0.1223
  217loPI   C2B 3470  12.354  14.528   9.393 -0.0470  0.0093 -0.2561
  217loPI   C3B 3471  12.419  14.460   9.017  0.4737  0.0173  0.1527
  217loPI   C4B 3472  12.396  14.451   8.583 -0.3386  0.4465  0.2771
  218loPI    C1 3473  15.380   1.174  10.515 -0.0250 -0.1815  0.0191
  218loPI    C2 3474  15.368   0.975  10.861  0.0853  0.1271  0.2050
  218loPI    C3 3475  15.496   1.354  10.853  0.0124  0.1476 -0.1639
  218loPI   PO4 3476  15.106   1.091  10.363  0.0712  0.0422 -0.0776
  218loPI   GL1 3477  14.939   0.816   9.999 -0.2810  0.2612  0.1215
  218loPI   GL2 3478  14.745   0.529   9.944  0.1133  0.0698 -0.0560
  218loPI   C1A 3479  14.981   0.734   9.508 -0.0606 -0.1606 -0.1508
  218loPI   C2A 3480  15.020   0.658   9.044 -0.4686 -0.0533 -0.0639
  218loPI   C3A 3481  14.880   0.589   8.672 -0.0727 -0.0013 -0.0508
  218loPI   C4A 3482  14.773   0.411   8.352 -0.0822  0.0607 -0.0130
  218loPI   C5A 3483  14.434   0.048   8.252 -0.3496 -0.1550  0.0723
  218loPI   C6A 3484  14.038  -0.044   8.273 -0.0385 -0.3173 -0.0698
  218loPI   C1B 3485  14.580   0.547   9.460  0.3155  0.3757 -0.3525
  218loPI   C2B 3486  14.424   0.420   9.020  0.1021  0.1319  0.2243
  218loPI   C3B 3487  14.294   0.359   8.573 -0.2866  0.1107 -0.1305
  218loPI   C4B 3488  14.246   0.438   8.059 -0.0398 -0.1836 -0.2343
  219loPI    C1 3489  12.346   2.023  10.533  0.0779  0.1498  0.0891
  219loPI    C2 3490  12.676   1.800  10.567  0.1405  0.2262 -0.0100
  219loPI    C3 3491  12.566   2.040  10.867 -0.0659 -0.1228  0.2010
  219loPI   PO4 3492  12.332   2.105  10.339 -0.1173  0.2075 -0.0879
  219loPI   GL1 3493  12.006   2.363   9.941  0.0809 -0.1598 -0.1404
  219loPI   GL2 3494  12.109   1.988   9.927  0.0424 -0.0089  0.0401
  219loPI   C1A 3495  12.080   2.617   9.533  0.1144 -0.3505  0.1113
  219loPI   C2A 3496  12.106   2.619   9.006 -0.1944 -0.0318  0.3813
  219loPI   C3A 3497  12.040   2.529   8.620  0.0113 -0.1778  0.1975
  219loPI   C4A 3498  11.838   2.767   8.283 -0.2293  0.0242  0.0234
  219loPI   C5A 3499  11.450   2.974   8.229 -0.0992 -0.0785 -0.2076
  219loPI   C6A 3500  11.311   3.405   8.413 -0.4078 -0.2701  0.4773
  219loPI   C1B 3501  12.022   2.097   9.514 -0.0745  0.0705  0.2918
  219loPI   C2B 3502  11.899   2.092   9.021 -0.0603 -0.0064 -0.0128
  219loPI   C3B 3503  11.903   2.037   8.673  0.0242  0.0798 -0.0775
  219loPI   C4B 3504  11.914   1.818   8.276 -0.2135  0.0877 -0.2046
  220loPI    C1 3505   8.509  15.504  10.820  0.1057  0.0216  0.0910
  220loPI    C2 3506   8.252  15.523  11.127 -0.1178 -0.1332 -0.0829
  220loPI    C3 3507   8.534  15.239  11.118  0.0783  0.0511  0.1196
  220loPI   PO4 3508   8.391  15.581  10.650  0.2260  0.1066  0.1742
  220loPI   GL1 3509   8.256  15.745  10.290 -0.2253  0.1412  0.0263
  220loPI   GL2 3510   8.386  15.958  10.010 -0.2619 -0.0619 -0.2382
  220loPI   C1A 3511   8.035  15.609   9.928  0.1649  0.1284 -0.2785
  220loPI   C2A 3512   7.862  15.297   9.557  0.0153  0.1646  0.1600
  220loPI   C3A 3513   7.849  15.275   9.068 -0.2056 -0.2357 -0.0778
  220loPI   C4A 3514   7.841  15.212   8.661  0.1089 -0.0745 -0.1094
  220loPI   C5A 3515   7.597  15.415   8.463  0.0459  0.0650  0.2368
  220loPI   C6A 3516   7.228  15.482   8.164  0.1082  0.2834 -0.0074
  220loPI   C1B 3517   8.518  15.602   9.773 -0.0287 -0.1037  0.1475
  220loPI   C2B 3518   8.590  15.604   9.350  0.2089  0.0275  0.1824
  220loPI   C3B 3519   8.758  15.584   8.966 -0.3184 -0.2519  0.0333
  220loPI   C4B 3520   8.931  15.473   8.563 -0.2212 -0.0643  0.0186
  221loPI    C1 3521  14.897   5.104  10.331 -0.2504  0.0241 -0.0124
  221loPI    C2 3522  14.818   5.331  10.650 -0.1008 -0.1222  0.1304
  221loPI    C3 3523  15.078   5.029  10.679 -0.3737 -0.3783 -0.0296
  221loPI   PO4 3524  14.947   5.298  10.159 -0.0730  0.2411  0.4357
  221loPI   GL1 3525  14.887   5.488   9.788 -0.0117  0.1503 -0.0494
  221loPI   GL2 3526  14.679   5.644   9.785 -0.0061 -0.0585  0.2527
  221loPI   C1A 3527  15.086   5.247   9.454  0.4002 -0.0456  0.1076
  221loPI   C2A 3528  15.033   5.228   9.044 -0.1182  0.0287 -0.0253
  221loPI   C3A 3529  15.010   5.391   8.572  0.3451  0.0268 -0.1275
  221loPI   C4A 3530  14.994   5.513   8.206  0.2372 -0.1719 -0.0093
  221loPI   C5A 3531  14.761   5.410   7.811 -0.0217 -0.0328  0.1815
  221loPI   C6A 3532  14.338   5.479   7.557  0.0774 -0.2711 -0.1568
  221loPI   C1B 3533  14.685   5.637   9.255 -0.2247 -0.1718 -0.0712
  221loPI   C2B 3534  14.673   5.747   8.770 -0.3521  0.0253  0.0154
  221loPI   C3B 3535  14.948   5.972   8.516 -0.2034 -0.1357  0.0783
  221loPI   C4B 3536  14.959   6.071   8.104  0.2806  0.0681  0.1070
  222loPI    C1 3537  11.507  12.598  10.724  0.0452  0.0301  0.1270
  222loPI    C2 3538  11.242  12.317  10.828  0.2638 -0.2272  0.0013
  222loPI    C3 3539  11.343  12.604  11.088 -0.3164  0.0201 -0.0313
  222loPI   PO4 3540  11.448  12.571  10.408  0.1688  0.1728 -0.0284
  222loPI   GL1 3541  11.567  12.813  10.061 -0.0275 -0.1769  0.0942
  222loPI   GL2 3542  11.542  13.130   9.927  0.1444 -0.2923 -0.0167
  222loPI   C1A 3543  11.828  12.850   9.631  0.2058 -0.2940  0.0752
  222loPI   C2A 3544  11.948  12.991   9.301  0.1336 -0.0987 -0.1045
  222loPI   C3A 3545  12.033  13.127   8.826  0.1036 -0.0923  0.0478
  222loPI   C4A 3546  12.095  13.177   8.411 -0.0724  0.0905 -0.1031
  222loPI   C5A 3547  12.207  13.500   8.095  0.1919 -0.0253 -0.1931
  222loPI   C6A 3548  12.403  13.461   7.644 -0.1808 -0.1464 -0.2218
  222loPI   C1B 3549  11.376  13.190   9.481  0.0908 -0.1282 -0.0353
  222loPI   C2B 3550  11.700  13.454   9.218  0.0289  0.0336 -0.0006
  222loPI   C3B 3551  11.832  13.601   8.704  0.2080 -0.1836 -0.1167
  222loPI   C4B 3552  11.769  13.522   8.303 -0.0508  0.0315  0.1679
  223loPI    C1 3553   7.589   3.059  11.001 -0.1222  0.0990  0.1487
  223loPI    C2 3554   7.373   2.833  11.251  0.1855 -0.1516  0.1938
  223loPI    C3 3555   7.627   3.106  11.397  0.0989 -0.0449  0.1462
  223loPI   PO4 3556   7.347   3.061  10.807  0.1253  0.1762  0.1885
  223loPI   GL1 3557   7.160   2.816  10.524  0.1256  0.3977 -0.0365
  223loPI   GL2 3558   7.231   3.169  10.297 -0.6696 -0.1879 -0.0639
  223loPI   C1A 3559   7.061   2.648  10.198 -0.0088  0.2128  0.0158
  223loPI   C2A 3560   6.946   2.493   9.766  0.1430 -0.1482 -0.1738
  223loPI   C3A 3561   7.072   2.664   9.387  0.0685  0.2538  0.1767
  223loPI   C4A 3562   7.067   2.641   8.879  0.0505 -0.2326 -0.1790
  223loPI   C5A 3563   7.140   2.738   8.396  0.0632  0.2712 -0.0423
  223loPI   C6A 3564   6.957   2.886   8.033 -0.1509  0.1139  0.0460
  223loPI   C1B 3565   7.158   3.093   9.944  0.2643  0.4144  0.0010
  223loPI   C2B 3566   7.288   3.142   9.575  0.1466 -0.0400 -0.0808
  223loPI   C3B 3567   7.354   3.086   9.148 -0.0004 -0.0718  0.0811
  223loPI   C4B 3568   7.387   3.102   8.654  0.0642 -0.0564 -0.2079
  224loPI    C1 3569  13.732  17.559  10.772 -0.0141 -0.4018 -0.0092
  224loPI    C2 3570  13.760  17.675  11.154  0.3761 -0.0246 -0.1446
  224loPI    C3 3571  13.831  17.295  11.055 -0.0749 -0.2069  0.1977
  224loPI   PO4 3572  13.445  17.589  10.739 -0.3964 -0.0096 -0.2932
  224loPI   GL1 3573  13.101  17.662  10.381 -0.3275  0.1669  0.2879
  224loPI   GL2 3574  13.410  17.685  10.183  0.0078  0.0634 -0.2436
  224loPI   C1A 3575  12.832  17.684  10.043 -0.0190 -0.1787  0.0668
  224loPI   C2A 3576  12.759  17.691   9.650 -0.2233  0.0486  0.0593
  224loPI   C3A 3577  12.487  17.805   9.364  0.0893 -0.1036 -0.1773
  224loPI   C4A 3578  12.346  17.948   8.981 -0.2048 -0.2903 -0.0278
  224loPI   C5A 3579  12.222  18.151   8.538  0.3609 -0.1086  0.1847
  224loPI   C6A 3580  12.090  18.443   8.308  0.2476 -0.0547  0.1082
  224loPI   C1B 3581  13.257  17.709   9.790 -0.0218 -0.0296 -0.0613
  224loPI   C2B 3582  13.087  17.677   9.334 -0.1819 -0.0022  0.2339
  224loPI   C3B 3583  13.239  17.853   9.027  0.1902 -0.4710  0.4776
  224loPI   C4B 3584  13.144  17.781   8.615 -0.2503  0.3595  0.2070
  225loPI    C1 3585   0.955   7.539  10.390  0.0938  0.0103 -0.0382
  225loPI    C2 3586   0.651   7.712  10.584  0.1236 -0.1728  0.1776
  225loPI    C3 3587   0.951   7.547  10.790  0.2022 -0.2912 -0.0282
  225loPI   PO4 3588   1.126   7.714  10.212 -0.0342  0.0276 -0.1617
  225loPI   GL1 3589   1.150   7.784   9.787 -0.1321  0.1710 -0.2118
  225loPI   GL2 3590   0.964   7.524   9.814  0.4848 -0.0369 -0.2816
  225loPI   C1A 3591   1.530   7.773   9.555  0.0041 -0.1127  0.1189
  225loPI   C2A 3592   1.690   7.749   9.139  0.0403  0.2217  0.2501
  225loPI   C3A 3593   1.676   7.752   8.732  0.0220 -0.1312 -0.2536
  225loPI   C4A 3594   1.579   7.476   8.308 -0.0951  0.0588  0.0753
  225loPI   C5A 3595   1.773   7.082   8.165  0.4120 -0.0361 -0.0585
  225loPI   C6A 3596   1.734   6.612   8.060 -0.3955 -0.1258  0.3634
  225loPI   C1B 3597   0.741   7.652   9.461  0.0706 -0.1127 -0.2754
  225loPI   C2B 3598   0.739   7.570   9.030 -0.4117 -0.0862 -0.0784
  225loPI   C3B 3599   0.925   7.445   8.586  0.1045  0.2540 -0.3384
  225loPI   C4B 3600   1.099   7.497   8.192  0.1283 -0.0673 -0.2934
  226loPI    C1 3601  13.411   5.458  10.752  0.1758 -0.0247 -0.0497
  226loPI    C2 3602  13.719   5.693  10.851  0.0969 -0.0259  0.2056
  226loPI    C3 3603  13.578   5.427  11.114  0.0643 -0.2300 -0.0145
  226loPI   PO4 3604  13.430   5.362  10.505  0.0106 -0.3037  0.0447
  226loPI   GL1 3605  13.565   5.682  10.067  0.1948 -0.1417  0.0413
  226loPI   GL2 3606  13.553   5.855  10.367  0.3069  0.0062  0.1384
  226loPI   C1A 3607  13.385   5.676   9.675 -0.1360  0.0017  0.1856
  226loPI   C2A 3608  13.383   5.734   9.295  0.1306 -0.0690 -0.0608
  226loPI   C3A 3609  13.365   5.813   8.828  0.0028 -0.2359 -0.1076
  226loPI   C4A 3610  13.390   6.231   8.726  0.0120 -0.3992  0.1403
  226loPI   C5A 3611  13.139   6.538   8.896  0.2759  0.2130  0.1561
  226loPI   C6A 3612  13.074   6.563   9.291  0.1567  0.2323 -0.0272
  226loPI   C1B 3613  13.202   6.094  10.033  0.2041  0.1332 -0.2006
  226loPI   C2B 3614  13.030   6.026   9.606  0.2497  0.3675 -0.1177
  226loPI   C3B 3615  12.985   6.098   9.136  0.1240 -0.4186  0.0501
  226loPI   C4B 3616  12.751   6.241   8.680 -0.2830 -0.1918  0.1554
  227loPI    C1 3617   0.666   1.285  10.791 -0.0577 -0.0476  0.1432
  227loPI    C2 3618   0.980   1.226  10.550 -0.1905  0.0117 -0.0465
  227loPI    C3 3619   1.035   1.266  10.944  0.0095 -0.2780 -0.0418
  227loPI   PO4 3620   0.515   1.500  10.657  0.0484  0.2279  0.2118
  227loPI   GL1 3621   0.523   1.545  10.305  0.0149 -0.1304 -0.0662
  227loPI   GL2 3622   0.693   1.836  10.328  0.1284  0.2484 -0.0489
  227loPI   C1A 3623   0.862   1.454  10.123 -0.2057 -0.0012  0.3787
  227loPI   C2A 3624   1.075   1.475   9.724  0.0612  0.1278  0.2964
  227loPI   C3A 3625   1.233   1.469   9.299  0.0476  0.1677 -0.0568
  227loPI   C4A 3626   1.092   1.506   8.951 -0.1568  0.0207 -0.0611
  227loPI   C5A 3627   1.010   1.356   8.562  0.0233 -0.1923 -0.0995
  227loPI   C6A 3628   1.096   1.138   8.118 -0.0778 -0.0908 -0.5405
  227loPI   C1B 3629   0.787   1.876   9.812 -0.0047  0.1116  0.0395
  227loPI   C2B 3630   0.801   1.999   9.356  0.0223  0.1847  0.2508
  227loPI   C3B 3631   0.866   1.922   8.981  0.0557 -0.0003 -0.1149
  227loPI   C4B 3632   0.809   1.824   8.617 -0.4058  0.1932  0.0676
  228loPI    C1 3633   5.076   1.822  10.678  0.1162 -0.1385 -0.1255
  228loPI    C2 3634   5.227   1.495  10.503  0.1703 -0.1964  0.0281
  228loPI    C3 3635   5.147   1.494  10.895  0.4143  0.0576  0.0819
  228loPI   PO4 3636   4.868   1.877  10.529 -0.0490 -0.2385 -0.2659
  228loPI   GL1 3637   4.634   2.053  10.294 -0.0296 -0.1905 -0.1976
  228loPI   GL2 3638   4.475   1.709  10.284  0.0811 -0.2807  0.0472
  228loPI   C1A 3639   4.778   2.205   9.990 -0.5707 -0.1910  0.2608
  228loPI   C2A 3640   4.771   2.304   9.602 -0.2466 -0.0576  0.3632
  228loPI   C3A 3641   4.727   2.308   9.096  0.2075  0.0880  0.0847
  228loPI   C4A 3642   4.728   2.351   8.639 -0.2459  0.2303  0.0437
  228loPI   C5A 3643   4.954   2.361   8.169  0.2023  0.0256 -0.0954
  228loPI   C6A 3644   5.258   2.273   7.960 -0.1195 -0.0868  0.1967
  228loPI   C1B 3645   4.449   1.814   9.920  0.1615 -0.1633 -0.0258
  228loPI   C2B 3646   4.442   1.880   9.417  0.1095 -0.1568 -0.0307
  228loPI   C3B 3647   4.434   1.818   9.040 -0.1305 -0.0793 -0.1719
  228loPI   C4B 3648   4.494   1.867   8.639 -0.1691  0.0511 -0.0594
  229loPI    C1 3649   3.101  15.314  10.679  0.0626 -0.2219 -0.0082
  229loPI    C2 3650   3.274  15.411  11.026 -0.0236  0.0465 -0.0380
  229loPI    C3 3651   3.356  15.621  10.696 -0.0530 -0.1166 -0.1504
  229loPI   PO4 3652   3.099  15.047  10.617  0.3917  0.2774  0.0183
  229loPI   GL1 3653   3.057  14.825  10.292  0.1396  0.1394  0.0456
  229loPI   GL2 3654   3.203  14.591  10.039  0.2750 -0.1787 -0.2033
  229loPI   C1A 3655   2.957  15.028   9.923  0.0295  0.0073 -0.3116
  229loPI   C2A 3656   2.879  15.063   9.521 -0.1602  0.0020  0.1831
  229loPI   C3A 3657   2.906  15.061   9.131 -0.3202  0.0497  0.0578
  229loPI   C4A 3658   2.863  15.020   8.731  0.0691 -0.1504 -0.0405
  229loPI   C5A 3659   2.844  15.070   8.339 -0.1448 -0.0839  0.0328
  229loPI   C6A 3660   2.893  15.458   8.099 -0.0446  0.1362  0.0673
  229loPI   C1B 3661   3.205  14.541   9.591 -0.2893  0.0218 -0.3787
  229loPI   C2B 3662   3.116  14.620   9.153 -0.0848  0.0749  0.0586
  229loPI   C3B 3663   3.070  14.522   8.701 -0.1033  0.0568 -0.2020
  229loPI   C4B 3664   3.001  14.475   8.263  0.1035  0.2308 -0.0316
  230loPI    C1 3665  16.067  12.018  10.635 -0.2156  0.1244  0.0262
  230loPI    C2 3666  16.029  11.673  10.833  0.3048 -0.1738 -0.3661
  230loPI    C3 3667  16.150  12.002  11.026 -0.0676 -0.2335 -0.0165
  230loPI   PO4 3668  16.228  11.921  10.310  0.2803 -0.0397  0.1137
  230loPI   GL1 3669  16.239  11.748   9.955 -0.1401  0.1324  0.2723
  230loPI   GL2 3670  15.920  11.844   9.859 -0.1130 -0.1239  0.1732
  230loPI   C1A 3671  16.426  11.803   9.564  0.2803  0.0124  0.2293
  230loPI   C2A 3672  16.422  11.778   9.200 -0.1241 -0.0117  0.1020
  230loPI   C3A 3673  16.494  11.790   8.797  0.3336  0.2135  0.0753
  230loPI   C4A 3674  16.572  11.769   8.407  0.0333  0.0352  0.1126
  230loPI   C5A 3675  16.437  11.477   8.045  0.0283  0.0610 -0.0711
  230loPI   C6A 3676  16.610  11.022   7.928 -0.3017  0.0313 -0.0244
  230loPI   C1B 3677  15.972  11.813   9.451 -0.2464  0.0590  0.0710
  230loPI   C2B 3678  15.954  11.835   8.998 -0.2990  0.0691 -0.2132
  230loPI   C3B 3679  16.070  11.894   8.562 -0.1116  0.3346  0.0225
  230loPI   C4B 3680  16.203  12.008   8.094 -0.1584  0.1314 -0.1406
  231loPI    C1 3681   2.126  14.392  10.326  0.0521 -0.0232 -0.0355
  231loPI    C2 3682   2.454  14.164  10.337  0.0603 -0.0152 -0.1127
  231loPI    C3 3683   2.361  14.396  10.649  0.0307 -0.1539 -0.0180
  231loPI   PO4 3684   1.940  14.180  10.341  0.2058 -0.0699  0.0523
  231loPI   GL1 3685   2.005  13.913  10.052  0.1086 -0.0681 -0.0863
  231loPI   GL2 3686   2.165  14.205   9.891 -0.0852  0.1806 -0.0098
  231loPI   C1A 3687   1.636  14.093   9.736 -0.0295  0.2973  0.2293
  231loPI   C2A 3688   1.481  14.191   9.367  0.1523 -0.3047 -0.0030
  231loPI   C3A 3689   1.174  14.178   9.046  0.0555  0.2158 -0.1670
  231loPI   C4A 3690   1.257  14.247   8.646  0.2626  0.0801 -0.1033
  231loPI   C5A 3691   1.352  14.092   8.263 -0.1655  0.2197 -0.3563
  231loPI   C6A 3692   1.518  13.809   8.128 -0.0079 -0.1902 -0.0941
  231loPI   C1B 3693   2.339  14.281   9.461 -0.2402 -0.0341 -0.0108
  231loPI   C2B 3694   2.318  14.280   8.962 -0.1036 -0.0569 -0.1188
  231loPI   C3B 3695   2.256  14.267   8.528  0.2290 -0.1526  0.0872
  231loPI   C4B 3696   2.294  14.064   7.998  0.1069  0.0811 -0.0481
  232loPI    C1 3697   3.786   3.057  10.718 -0.1540 -0.0761  0.0033
  232loPI    C2 3698   3.959   2.812  10.984  0.4234  0.0869 -0.2063
  232loPI    C3 3699   3.695   3.086  11.106  0.1927 -0.2643  0.1039
  232loPI   PO4 3700   3.663   2.833  10.520  0.0853  0.1750 -0.0948
  232loPI   GL1 3701   3.654   2.703  10.161 -0.1098  0.1603  0.2187
  232loPI   GL2 3702   4.052   2.707  10.059 -0.1352  0.1128  0.2806
  232loPI   C1A 3703   3.532   2.837   9.779  0.3584  0.3758  0.0510
  232loPI   C2A 3704   3.345   2.847   9.330  0.0523 -0.1208 -0.0075
  232loPI   C3A 3705   3.429   2.783   8.964  0.1832  0.0979  0.2293
  232loPI   C4A 3706   3.424   2.807   8.523  0.0207 -0.3574  0.3925
  232loPI   C5A 3707   3.564   2.660   8.188 -0.0874 -0.0143 -0.3203
  232loPI   C6A 3708   3.365   2.721   7.730 -0.2573  0.1006  0.0534
  232loPI   C1B 3709   4.064   2.725   9.641 -0.3402  0.0624  0.0056
  232loPI   C2B 3710   3.906   2.688   9.229 -0.1031 -0.1493  0.1153
  232loPI   C3B 3711   3.904   2.752   8.774  0.0669  0.0060 -0.0759
  232loPI   C4B 3712   4.022   2.759   8.380 -0.3120  0.0391  0.0527
  233loPI    C1 3713  10.702   0.217  10.875 -0.2055  0.0577  0.0101
  233loPI    C2 3714  11.019   0.295  11.106 -0.1063 -0.1069 -0.0687
  233loPI    C3 3715  10.698   0.534  11.119 -0.1054 -0.1184  0.2440
  233loPI   PO4 3716  10.757   0.107  10.620 -0.2842  0.2450  0.3639
  233loPI   GL1 3717  10.519   0.241  10.305 -0.0484  0.0969 -0.1869
  233loPI   GL2 3718  10.463  -0.147  10.298 -0.0627  0.1696 -0.1310
  233loPI   C1A 3719  10.539   0.329   9.871  0.1844 -0.0554 -0.1197
  233loPI   C2A 3720  10.525   0.329   9.367 -0.3012 -0.1715 -0.3385
  233loPI   C3A 3721  10.555   0.356   8.934 -0.1539  0.0946 -0.2741
  233loPI   C4A 3722  10.526   0.287   8.492 -0.4278  0.1181 -0.0898
  233loPI   C5A 3723  10.918   0.016   8.265 -0.1872  0.0005 -0.1984
  233loPI   C6A 3724  11.129  -0.268   7.974  0.1219 -0.2750  0.1784
  233loPI   C1B 3725  10.526  -0.252   9.894 -0.2257  0.2883 -0.2398
  233loPI   C2B 3726  10.364  -0.416   9.503  0.1351  0.2745 -0.3766
  233loPI   C3B 3727  10.511  -0.484   9.145  0.0539 -0.0439 -0.1792
  233loPI   C4B 3728  10.862  -0.666   8.974  0.2674 -0.1909  0.2024
  234loPI    C1 3729  17.037  17.453  10.578 -0.0949  0.3023 -0.0196
  234loPI    C2 3730  16.771  17.350  10.857 -0.1426  0.0287 -0.1620
  234loPI    C3 3731  17.148  17.222  10.885 -0.1670 -0.0664 -0.2641
  234loPI   PO4 3732  16.918  17.381  10.330 -0.0087 -0.1206 -0.0578
  234loPI   GL1 3733  16.763  17.681  10.136  0.3469  0.1172 -0.0866
  234loPI   GL2 3734  16.498  17.825  10.156 -0.0289  0.1759  0.1344
  234loPI   C1A 3735  16.749  17.476   9.736  0.0848 -0.0285  0.1940
  234loPI   C2A 3736  16.729  17.491   9.297 -0.1507 -0.3817  0.1986
  234loPI   C3A 3737  17.085  17.352   8.977  0.1138  0.1148  0.3423
  234loPI   C4A 3738  17.244  17.090   8.605  0.0209  0.2477  0.3060
  234loPI   C5A 3739  17.594  17.221   8.386 -0.1376 -0.1333  0.0673
  234loPI   C6A 3740  17.910  16.990   8.072 -0.1071  0.1278 -0.0363
  234loPI   C1B 3741  16.373  17.845   9.883  0.3264  0.1855 -0.1072
  234loPI   C2B 3742  16.245  17.777   9.457  0.0086  0.0449  0.1551
  234loPI   C3B 3743  16.324  17.651   9.108  0.0663  0.0973 -0.1360
  234loPI   C4B 3744  16.568  17.432   8.812  0.1743  0.0749 -0.1179
  235loPI    C1 3745  12.277   3.730  10.922  0.0115 -0.0266  0.0896
  235loPI    C2 3746  12.545   3.453  11.028  0.1189 -0.0283 -0.1796
  235loPI    C3 3747  12.256   3.560  11.283  0.0275 -0.4458 -0.1015
  235loPI   PO4 3748  12.407   3.896  10.790 -0.2015 -0.0783 -0.1143
  235loPI   GL1 3749  12.377   3.812  10.340  0.2650 -0.1924 -0.0225
  235loPI   GL2 3750  12.556   4.021  10.159 -0.0558  0.2021 -0.0068
  235loPI   C1A 3751  12.401   3.598   9.980 -0.1720  0.0865  0.1862
  235loPI   C2A 3752  12.358   3.591   9.576 -0.0057 -0.0424 -0.0797
  235loPI   C3A 3753  12.317   3.566   9.110  0.0534  0.3008 -0.1133
  235loPI   C4A 3754  12.376   3.543   8.695  0.2161 -0.3090  0.2697
  235loPI   C5A 3755  12.274   3.591   8.294 -0.2147 -0.0510 -0.0993
  235loPI   C6A 3756  11.943   3.697   8.098  0.0363  0.0630 -0.4039
  235loPI   C1B 3757  12.474   4.115   9.664 -0.1284 -0.0087 -0.0033
  235loPI   C2B 3758  12.430   4.192   9.225 -0.0883  0.1673  0.1630
  235loPI   C3B 3759  12.373   4.238   8.765  0.0472  0.0824 -0.0259
  235loPI   C4B 3760  12.415   4.088   8.380 -0.1032 -0.0168  0.2593
  236loPI    C1 3761   0.483  18.062  10.861  0.0435  0.0968  0.0476
  236loPI    C2 3762   0.761  18.130  11.141  0.1038  0.1822 -0.0323
  236loPI    C3 3763   0.378  18.216  11.215  0.0746 -0.0771  0.1339
  236loPI   PO4 3764   0.524  17.815  10.804  0.1023 -0.1801  0.1661
  236loPI   GL1 3765   0.714  17.602  10.393 -0.1196 -0.1113 -0.3893
  236loPI   GL2 3766   1.021  17.756  10.296 -0.4127  0.0664  0.0114
  236loPI   C1A 3767   0.582  17.835  10.007  0.2210  0.0174 -0.0772
  236loPI   C2A 3768   0.651  17.902   9.670 -0.2072 -0.0321  0.3616
  236loPI   C3A 3769   1.016  17.837   9.416  0.0354 -0.2774  0.5004
  236loPI   C4A 3770   1.110  17.808   8.937  0.0757  0.0724 -0.1442
  236loPI   C5A 3771   1.304  17.755   8.559  0.0763 -0.0830 -0.0310
  236loPI   C6A 3772   1.446  17.509   8.215  0.0890 -0.0808 -0.1215
  236loPI   C1B 3773   1.175  17.604   9.905 -0.0654  0.3232 -0.0493
  236loPI   C2B 3774   1.262  17.436   9.590 -0.2056 -0.1459  0.1515
  236loPI   C3B 3775   1.318  17.376   9.084  0.0324 -0.4379 -0.0037
  236loPI   C4B 3776   1.137  17.314   8.702 -0.0877 -0.1795  0.3045
  237loPI    C1 3777   9.785  15.918  11.024  0.1692 -0.2148  0.1413
  237loPI    C2 3778   9.525  15.948  10.722  0.2695  0.1265  0.0841
  237loPI    C3 3779   9.396  15.971  11.100  0.1611 -0.1686  0.0681
  237loPI   PO4 3780   9.978  15.668  10.866 -0.0436 -0.0753  0.0066
  237loPI   GL1 3781   9.842  15.629  10.487  0.2841  0.1891 -0.0512
  237loPI   GL2 3782  10.122  15.538  10.363 -0.0631  0.2091 -0.1071
  237loPI   C1A 3783   9.880  15.853  10.061 -0.0705 -0.2504  0.0407
  237loPI   C2A 3784   9.978  15.997   9.669  0.4346  0.2222  0.1443
  237loPI   C3A 3785   9.900  16.156   9.236  0.0499  0.1566  0.0627
  237loPI   C4A 3786   9.831  16.246   8.804 -0.0317 -0.1144 -0.1605
  237loPI   C5A 3787   9.578  16.256   8.495 -0.1576  0.1158  0.0781
  237loPI   C6A 3788   9.377  15.986   8.126 -0.1331 -0.2669 -0.0324
  237loPI   C1B 3789  10.301  15.506  10.039 -0.2790 -0.2342 -0.2678
  237loPI   C2B 3790  10.364  15.599   9.627 -0.3086 -0.0067  0.0005
  237loPI   C3B 3791  10.384  15.854   9.348  0.0323  0.0430  0.0895
  237loPI   C4B 3792  10.316  16.205   9.044 -0.1424  0.1699  0.0765
  238loPI    C1 3793  10.094   0.394  10.555  0.0728 -0.1556 -0.0359
  238loPI    C2 3794  10.226   0.421  10.932  0.0107  0.0667 -0.0282
  238loPI    C3 3795   9.847   0.316  10.860  0.0284  0.0035 -0.0299
  238loPI   PO4 3796  10.143   0.626  10.444 -0.1156  0.0508 -0.0257
  238loPI   GL1 3797  10.061   0.703  10.036 -0.0813  0.0430 -0.1925
  238loPI   GL2 3798   9.798   0.559  10.075  0.0129 -0.0464  0.0618
  238loPI   C1A 3799  10.139   0.565   9.696 -0.2909  0.0210  0.0088
  238loPI   C2A 3800  10.002   0.464   9.283  0.0942  0.1363  0.4086
  238loPI   C3A 3801   9.641   0.511   8.938  0.0631 -0.2342  0.0805
  238loPI   C4A 3802   9.405   0.940   8.817 -0.1500 -0.2291 -0.1876
  238loPI   C5A 3803   9.306   1.185   9.140  0.3740  0.0269  0.1673
  238loPI   C6A 3804   9.260   1.128   9.589  0.1451  0.1471 -0.0218
  238loPI   C1B 3805   9.539   0.634   9.707  0.1915  0.0278  0.0553
  238loPI   C2B 3806   9.346   0.696   9.312  0.0339  0.1502 -0.1366
  238loPI   C3B 3807   8.935   0.742   9.070 -0.1163  0.0741  0.1212
  238loPI   C4B 3808   8.676   0.536   8.715 -0.2475 -0.1017  0.0993
  239loPI    C1 3809  17.102   8.350  11.016  0.0213  0.0685 -0.1269
  239loPI    C2 3810  17.146   8.655  11.272 -0.2098 -0.0553  0.0643
  239loPI    C3 3811  17.374   8.328  11.309 -0.1680 -0.0284  0.0445
  239loPI   PO4 3812  17.063   8.466  10.704 -0.2351 -0.0990 -0.0029
  239loPI   GL1 3813  16.967   8.274  10.262 -0.2037  0.1517 -0.0919
  239loPI   GL2 3814  17.327   8.196  10.294  0.1697  0.0104 -0.0766
  239loPI   C1A 3815  17.088   8.182   9.833  0.0056 -0.1035 -0.3282
  239loPI   C2A 3816  17.024   8.213   9.459 -0.1789  0.0364 -0.1772
  239loPI   C3A 3817  16.994   8.121   9.089  0.0826 -0.1937  0.1821
  239loPI   C4A 3818  16.863   7.978   8.614  0.0499 -0.1508 -0.0741
  239loPI   C5A 3819  16.849   7.934   8.214 -0.0300  0.0110 -0.2324
  239loPI   C6A 3820  17.200   7.853   7.865  0.3367 -0.0052  0.0438
  239loPI   C1B 3821  17.737   8.427  10.230 -0.2028  0.0356  0.0955
  239loPI   C2B 3822  17.905   8.567   9.781 -0.1683 -0.1685  0.2565
  239loPI   C3B 3823  17.768   8.966   9.616 -0.4624  0.0169  0.2256
  239loPI   C4B 3824  17.753   8.952   9.079 -0.0740 -0.0682 -0.0623
  240loPI    C1 3825   7.952   3.792  10.922 -0.2015 -0.1561 -0.0082
  240loPI    C2 3826   7.741   3.552  11.163 -0.0731 -0.1934  0.0680
  240loPI    C3 3827   7.804   3.934  11.266  0.1651 -0.2664  0.2003
  240loPI   PO4 3828   7.912   3.812  10.699  0.1166  0.0138  0.2228
  240loPI   GL1 3829   8.002   3.832  10.347 -0.0826  0.0845 -0.1442
  240loPI   GL2 3830   7.610   3.693  10.248  0.1323  0.3018 -0.1944
  240loPI   C1A 3831   8.072   3.579   9.904  0.2273  0.0376 -0.0281
  240loPI   C2A 3832   8.112   3.578   9.492 -0.5481 -0.0965 -0.0500
  240loPI   C3A 3833   8.299   3.544   9.103 -0.1775  0.0641 -0.4386
  240loPI   C4A 3834   8.408   3.464   8.705 -0.1826 -0.0474 -0.0423
  240loPI   C5A 3835   8.304   3.303   8.251 -0.0236  0.0770 -0.1868
  240loPI   C6A 3836   8.461   2.953   7.995  0.0058 -0.0695 -0.0631
  240loPI   C1B 3837   7.580   3.491   9.800  0.0400 -0.0263 -0.1296
  240loPI   C2B 3838   7.574   3.569   9.419 -0.0327  0.1563  0.0400
  240loPI   C3B 3839   7.603   3.480   8.945 -0.1345 -0.0989 -0.0111
  240loPI   C4B 3840   7.894   3.363   8.601 -0.1091 -0.1662 -0.2686
  241loPI    C1 3841  10.265  14.903  10.531  0.1460  0.0043 -0.0518
  241loPI    C2 3842  10.497  15.042  10.825  0.0975 -0.1355  0.0540
  241loPI    C3 3843  10.140  15.209  10.756  0.0778 -0.1495  0.1217
  241loPI   PO4 3844  10.445  14.850  10.275  0.0828  0.1261  0.3582
  241loPI   GL1 3845  10.676  14.895  10.005 -0.0782  0.0294 -0.0691
  241loPI   GL2 3846  10.711  15.225  10.006  0.0432 -0.0241 -0.1600
  241loPI   C1A 3847  10.716  14.664   9.646  0.2791  0.0345 -0.2336
  241loPI   C2A 3848  10.700  14.479   9.149 -0.1200 -0.2623 -0.0141
  241loPI   C3A 3849  10.855  14.381   8.827 -0.2400  0.2604  0.1218
  241loPI   C4A 3850  11.234  14.249   8.582  0.3634 -0.1487  0.0264
  241loPI   C5A 3851  11.490  14.538   8.527 -0.0047 -0.1621 -0.1329
  241loPI   C6A 3852  11.706  14.891   8.694 -0.2633  0.3011 -0.4715
  241loPI   C1B 3853  10.633  15.122   9.557 -0.3874  0.2760  0.0483
  241loPI   C2B 3854  10.383  15.243   9.221  0.0091 -0.4812  0.1095
  241loPI   C3B 3855  10.215  15.292   8.796 -0.3341 -0.0640  0.2377
  241loPI   C4B 3856   9.944  15.461   8.519 -0.4306  0.2141  0.1380
  242loPI    C1 3857  17.876  10.393  11.138  0.0465 -0.0487  0.0564
  242loPI    C2 3858  17.703  10.067  11.293 -0.0607 -0.1567 -0.2825
  242loPI    C3 3859  18.099  10.118  11.324 -0.1059 -0.0633  0.2201
  242loPI   PO4 3860  17.733  10.461  10.942 -0.0402 -0.0056 -0.2803
  242loPI   GL1 3861  17.524  10.321  10.557 -0.2188  0.1655 -0.1025
  242loPI   GL2 3862  17.127  10.217  10.538  0.1412 -0.1663 -0.1128
  242loPI   C1A 3863  17.886  10.367  10.225  0.0389  0.2603  0.0466
  242loPI   C2A 3864  17.913  10.581   9.846 -0.0311 -0.2648 -0.1868
  242loPI   C3A 3865  17.932  10.667   9.458 -0.0558  0.1601  0.0059
  242loPI   C4A 3866  18.004  10.671   9.080  0.0511  0.1106  0.2633
  242loPI   C5A 3867  18.015  10.641   8.680 -0.2008  0.0383  0.0391
  242loPI   C6A 3868  17.914  10.438   8.355  0.0800 -0.1146  0.0611
  242loPI   C1B 3869  17.124  10.223  10.109  0.1756 -0.1429  0.0989
  242loPI   C2B 3870  17.089  10.341   9.664  0.1575 -0.2589  0.0784
  242loPI   C3B 3871  17.119  10.394   9.183  0.1479  0.0502  0.2560
  242loPI   C4B 3872  17.181  10.447   8.805 -0.0183  0.0717 -0.3298
  243loPI    C1 3873   6.848   1.381  10.775  0.1743 -0.2161 -0.0820
  243loPI    C2 3874   7.041   1.651  10.998 -0.2329  0.1021 -0.1029
  243loPI    C3 3875   7.169   1.272  10.987  0.2294  0.2458  0.0827
  243loPI   PO4 3876   6.814   1.492  10.481  0.3151  0.0812 -0.0052
  243loPI   GL1 3877   6.753   1.742  10.269 -0.3407 -0.0344  0.2394
  243loPI   GL2 3878   6.586   1.770  10.057 -0.4208 -0.0830  0.0603
  243loPI   C1A 3879   7.003   2.080  10.052  0.1907  0.1689  0.0740
  243loPI   C2A 3880   7.328   2.174   9.648  0.0437 -0.0138 -0.0992
  243loPI   C3A 3881   7.265   2.192   9.208 -0.2276 -0.1361  0.2257
  243loPI   C4A 3882   7.364   2.215   8.798 -0.1839  0.4907  0.1327
  243loPI   C5A 3883   7.510   2.380   8.419 -0.0514  0.2571  0.1834
  243loPI   C6A 3884   7.796   2.286   8.205 -0.2505  0.0483  0.1569
  243loPI   C1B 3885   6.528   1.655   9.579  0.1759 -0.3187 -0.0606
  243loPI   C2B 3886   6.505   1.763   9.185  0.3355 -0.1235  0.0972
  243loPI   C3B 3887   6.452   1.667   8.671  0.1608  0.0444 -0.0858
  243loPI   C4B 3888   6.362   1.341   8.326  0.2188  0.0101 -0.0324
  244loPI    C1 3889   9.941   2.091  10.639  0.0588  0.0756 -0.1143
  244loPI    C2 3890  10.324   2.078  10.754  0.0781  0.0604 -0.1792
  244loPI    C3 3891  10.042   1.898  10.974  0.1189  0.0029 -0.1737
  244loPI   PO4 3892   9.963   1.993  10.426  0.3719  0.0250  0.1917
  244loPI   GL1 3893  10.180   2.034  10.107 -0.0481  0.0176  0.0722
  244loPI   GL2 3894  10.063   2.323  10.027 -0.0426  0.2977 -0.1315
  244loPI   C1A 3895  10.082   1.829   9.741  0.0597  0.0187 -0.2853
  244loPI   C2A 3896  10.024   1.460   9.413  0.0089 -0.2144  0.1027
  244loPI   C3A 3897  10.043   1.387   8.953  0.1546  0.4526  0.2122
  244loPI   C4A 3898   9.708   1.378   8.660 -0.0982 -0.3233  0.0304
  244loPI   C5A 3899   9.499   1.153   8.352  0.0572  0.1857  0.0500
  244loPI   C6A 3900   9.313   1.277   7.906 -0.1108 -0.1345  0.1605
  244loPI   C1B 3901  10.319   2.371   9.718 -0.0101 -0.3954 -0.0825
  244loPI   C2B 3902  10.285   2.486   9.308 -0.4505 -0.0813 -0.1383
  244loPI   C3B 3903  10.224   2.459   8.986 -0.3836 -0.1645  0.0946
  244loPI   C4B 3904  10.237   2.725   8.718 -0.4439  0.1374 -0.2715
  245loPI    C1 3905   6.005   5.176  10.699  0.0371 -0.1150 -0.0064
  245loPI    C2 3906   5.869   5.291  11.057 -0.0038 -0.1798 -0.0010
  245loPI    C3 3907   5.640   5.065  10.820 -0.0646  0.0455 -0.1605
  245loPI   PO4 3908   6.018   5.305  10.505 -0.0491  0.0584  0.2290
  245loPI   GL1 3909   5.892   5.406  10.054  0.0493  0.1263  0.0657
  245loPI   GL2 3910   6.146   5.259  10.046 -0.0975 -0.1840  0.2302
  245loPI   C1A 3911   5.596   5.373   9.710  0.0400  0.2381 -0.1596
  245loPI   C2A 3912   5.582   5.355   9.284  0.0700  0.0121 -0.3483
  245loPI   C3A 3913   5.550   5.420   8.936  0.3579  0.1636  0.1415
  245loPI   C4A 3914   5.515   5.443   8.484  0.1077  0.1269 -0.1633
  245loPI   C5A 3915   5.446   5.389   8.081 -0.3022 -0.0183 -0.3516
  245loPI   C6A 3916   5.232   5.572   7.816 -0.2957  0.0833 -0.2153
  245loPI   C1B 3917   6.046   5.253   9.584 -0.1061  0.0560 -0.1677
  245loPI   C2B 3918   6.101   5.439   9.156 -0.0356  0.0182 -0.0709
  245loPI   C3B 3919   5.998   5.452   8.614 -0.0595 -0.0923  0.0156
  245loPI   C4B 3920   5.926   5.343   8.182 -0.0297 -0.1602 -0.2968
  246loPI    C1 3921   4.699   0.290  11.123 -0.0727 -0.1047  0.1136
  246loPI    C2 3922   4.656   0.664  11.256 -0.0051 -0.0869  0.0864
  246loPI    C3 3923   4.936   0.427  11.414 -0.0778 -0.1410  0.1349
  246loPI   PO4 3924   4.799   0.339  10.903 -0.2120 -0.2156 -0.0746
  246loPI   GL1 3925   4.681   0.284  10.491 -0.0020  0.2317 -0.0549
  246loPI   GL2 3926   4.671  -0.027  10.291  0.0289 -0.2979 -0.0675
  246loPI   C1A 3927   4.651   0.388  10.034  0.0715  0.1364 -0.0217
  246loPI   C2A 3928   4.669   0.376   9.652 -0.2726 -0.2414  0.0063
  246loPI   C3A 3929   4.745   0.498   9.255  0.2343 -0.0006  0.3384
  246loPI   C4A 3930   4.580   0.483   8.856  0.0786  0.0027  0.3890
  246loPI   C5A 3931   4.662   0.427   8.387  0.0401  0.0038 -0.1888
  246loPI   C6A 3932   4.976   0.235   8.044  0.1171 -0.1976 -0.0128
  246loPI   C1B 3933   4.424  -0.123   9.918 -0.3110 -0.0949  0.5213
  246loPI   C2B 3934   4.423  -0.067   9.499  0.0969  0.0281  0.0921
  246loPI   C3B 3935   4.391  -0.011   9.143 -0.1195 -0.0046 -0.0816
  246loPI   C4B 3936   4.253  -0.020   8.658 -0.0684  0.2117  0.3572
  247loPI    C1 3937  14.436  16.617  10.909  0.0011 -0.1420 -0.0426
  247loPI    C2 3938  14.125  16.486  11.124 -0.1229  0.0633 -0.0940
  247loPI    C3 3939  14.260  16.859  11.175  0.1936 -0.0628  0.0140
  247loPI   PO4 3940  14.347  16.475  10.685 -0.1660 -0.0254 -0.1385
  247loPI   GL1 3941  14.089  16.361  10.290 -0.1812 -0.0870 -0.0549
  247loPI   GL2 3942  14.163  16.755  10.312  0.0222  0.1203  0.2299
  247loPI   C1A 3943  14.278  16.407   9.905  0.1665 -0.2282 -0.0049
  247loPI   C2A 3944  14.390  16.405   9.397  0.3331 -0.0229 -0.0647
  247loPI   C3A 3945  14.415  16.501   8.965 -0.0595 -0.2525  0.0914
  247loPI   C4A 3946  14.513  16.371   8.567 -0.3519  0.1698 -0.3340
  247loPI   C5A 3947  14.954  16.449   8.416  0.0594 -0.0104  0.0051
  247loPI   C6A 3948  15.385  16.422   8.414  0.1865  0.1414 -0.0844
  247loPI   C1B 3949  14.586  16.792  10.042 -0.1406  0.0692 -0.2797
  247loPI   C2B 3950  14.697  16.863   9.621 -0.1322 -0.2911 -0.2595
  247loPI   C3B 3951  14.688  16.879   9.145  0.2436  0.0290 -0.1895
  247loPI   C4B 3952  14.759  16.863   8.743  0.1765  0.0284 -0.1207
  248loPI    C1 3953   6.848  17.604  10.924  0.0978 -0.2525  0.1848
  248loPI    C2 3954   6.474  17.481  10.999 -0.1601  0.3219 -0.0979
  248loPI    C3 3955   6.673  17.696  11.272 -0.0954  0.1563 -0.0134
  248loPI   PO4 3956   6.931  17.350  10.798  0.1524 -0.0774  0.0556
  248loPI   GL1 3957   6.743  17.258  10.399 -0.0091  0.0449 -0.1175
  248loPI   GL2 3958   6.860  17.035  10.334 -0.1659  0.1737  0.0973
  248loPI   C1A 3959   6.449  17.182  10.029  0.2703 -0.0616 -0.3560
  248loPI   C2A 3960   6.442  17.086   9.583  0.2067 -0.1185  0.1211
  248loPI   C3A 3961   6.408  17.158   9.156  0.0217  0.1109  0.1209
  248loPI   C4A 3962   6.228  17.176   8.788  0.1458 -0.2464  0.1880
  248loPI   C5A 3963   5.906  17.231   8.462  0.1762  0.0607 -0.2681
  248loPI   C6A 3964   5.626  17.107   8.177  0.0451  0.1692  0.1904
  248loPI   C1B 3965   6.869  17.165   9.789 -0.6427  0.1095  0.0431
  248loPI   C2B 3966   7.007  17.105   9.375 -0.2451 -0.1286  0.2099
  248loPI   C3B 3967   7.173  17.172   9.107  0.1042  0.0020  0.1928
  248loPI   C4B 3968   7.222  17.196   8.647 -0.1321 -0.0996 -0.0919
  249loPI    C1 3969   1.211   2.298  10.918  0.1254 -0.1135 -0.0363
  249loPI    C2 3970   0.960   2.489  11.164  0.1871  0.2057 -0.2153
  249loPI    C3 3971   1.308   2.350  11.302  0.0250 -0.0176 -0.0232
  249loPI   PO4 3972   1.009   2.192  10.746  0.2454  0.1360  0.1277
  249loPI   GL1 3973   1.082   2.161  10.303 -0.2699 -0.0073 -0.1401
  249loPI   GL2 3974   1.119   2.474  10.196  0.1185 -0.0276  0.0890
  249loPI   C1A 3975   1.268   1.788  10.012  0.1892 -0.0139 -0.0506
  249loPI   C2A 3976   1.332   1.872   9.619 -0.0169  0.1789 -0.0341
  249loPI   C3A 3977   1.350   1.897   9.109 -0.0601 -0.0603 -0.1355
  249loPI   C4A 3978   1.402   1.766   8.681  0.1246  0.1171  0.2672
  249loPI   C5A 3979   1.302   1.593   8.268  0.3023  0.0757  0.0567
  249loPI   C6A 3980   1.080   1.541   7.788 -0.0916 -0.1292 -0.1460
  249loPI   C1B 3981   1.069   2.300   9.810 -0.1774 -0.0043  0.0076
  249loPI   C2B 3982   1.146   2.362   9.366  0.0200  0.0103 -0.2839
  249loPI   C3B 3983   1.132   2.374   9.000 -0.1807 -0.0165 -0.0361
  249loPI   C4B 3984   1.079   2.257   8.597  0.1700  0.2282 -0.2521
  250loPI    C1 3985   2.643  10.279  10.646 -0.0959 -0.3132 -0.1451
  250loPI    C2 3986   3.026  10.379  10.701 -0.1134 -0.1056 -0.3844
  250loPI    C3 3987   2.766  10.410  11.003  0.0696 -0.3080 -0.2030
  250loPI   PO4 3988   2.536  10.407  10.523  0.2048 -0.1992 -0.1799
  250loPI   GL1 3989   2.585  10.371  10.073  0.1183 -0.0953  0.0280
  250loPI   GL2 3990   2.257  10.414  10.126  0.2455 -0.0707 -0.0403
  250loPI   C1A 3991   2.400  10.336   9.630 -0.0292 -0.2277 -0.0069
  250loPI   C2A 3992   2.386  10.362   9.211  0.0030 -0.0751  0.1082
  250loPI   C3A 3993   2.364  10.419   8.789  0.2312 -0.2355 -0.1117
  250loPI   C4A 3994   2.283  10.375   8.362  0.1614 -0.4119  0.1348
  250loPI   C5A 3995   1.904  10.377   8.122 -0.0243  0.0728 -0.1881
  250loPI   C6A 3996   1.473  10.271   8.018 -0.0693 -0.0397  0.0093
  250loPI   C1B 3997   2.082  10.759   9.757  0.1588 -0.0521 -0.0695
  250loPI   C2B 3998   2.120  10.806   9.329 -0.0709 -0.1348 -0.0432
  250loPI   C3B 3999   2.153  10.875   8.962  0.0556 -0.1308 -0.1442
  250loPI   C4B 4000   2.088  11.023   8.566 -0.1800  0.2261  0.2386
  251loPI    C1 4001  11.399   7.760  10.825 -0.0574  0.1420  0.1256
  251loPI    C2 4002  11.455   7.907  11.193  0.0167  0.0590  0.1480
  251loPI    C3 4003  11.126   7.696  11.110 -0.0069  0.0898  0.1627
  251loPI   PO4 4004  11.632   7.644  10.684  0.0433  0.0418  0.1650
  251loPI   GL1 4005  11.655   7.453  10.263  0.0614  0.1731  0.2373
  251loPI   GL2 4006  11.447   7.365  10.025  0.1853 -0.0240  0.0477
  251loPI   C1A 4007  11.843   7.718   9.892  0.1977  0.2458  0.1919
  251loPI   C2A 4008  11.879   7.807   9.446 -0.2462 -0.1600 -0.0784
  251loPI   C3A 4009  11.777   7.793   9.046  0.0205 -0.2317  0.0185
  251loPI   C4A 4010  11.807   7.850   8.611 -0.0308  0.0662 -0.0826
  251loPI   C5A 4011  11.858   8.092   8.196  0.3742  0.1245 -0.0365
  251loPI   C6A 4012  12.298   8.195   7.998  0.0387 -0.2754 -0.1447
  251loPI   C1B 4013  11.525   7.493   9.547 -0.2690  0.2894  0.1148
  251loPI   C2B 4014  11.522   7.380   9.111 -0.1647 -0.1229 -0.2851
  251loPI   C3B 4015  11.559   7.399   8.638 -0.1645 -0.1054  0.0034
  251loPI   C4B 4016  11.484   7.656   8.223  0.0547 -0.2187 -0.2252
  252loPI    C1 4017   6.964   6.327  10.680 -0.2885 -0.0118 -0.1587
  252loPI    C2 4018   6.855   6.115  11.001 -0.1353 -0.0503 -0.1308
  252loPI    C3 4019   6.845   6.515  11.013  0.0438 -0.0484 -0.0150
  252loPI   PO4 4020   6.866   6.242  10.452 -0.3253  0.0844  0.0756
  252loPI   GL1 4021   6.932   6.048  10.012  0.1435  0.3044 -0.0597
  252loPI   GL2 4022   7.107   6.255   9.952 -0.0920 -0.2715  0.1679
  252loPI   C1A 4023   6.738   5.787   9.656 -0.1736  0.0188  0.1077
  252loPI   C2A 4024   6.866   5.897   9.284  0.4072  0.3894  0.1482
  252loPI   C3A 4025   6.771   5.807   8.896 -0.2559 -0.4777 -0.1286
  252loPI   C4A 4026   7.040   5.973   8.611 -0.2012  0.0358  0.1996
  252loPI   C5A 4027   7.357   6.167   8.432 -0.0803  0.1086  0.1219
  252loPI   C6A 4028   7.596   6.433   8.128  0.1545  0.0468  0.1612
  252loPI   C1B 4029   6.986   6.274   9.577  0.0634 -0.0430 -0.3336
  252loPI   C2B 4030   6.922   6.755   9.385 -0.0515 -0.4780 -0.2793
  252loPI   C3B 4031   6.891   6.769   9.029  0.0453  0.0261 -0.1242
  252loPI   C4B 4032   6.913   6.487   8.584 -0.1783 -0.4494  0.0512
  253loPI    C1 4033   1.103  12.391  11.113  0.1367  0.1273  0.0086
  253loPI    C2 4034   0.986  12.038  11.261  0.1505  0.0495 -0.1637
  253loPI    C3 4035   0.886  12.377  11.449 -0.0210 -0.0362 -0.0984
  253loPI   PO4 4036   1.189  12.358  10.810 -0.1681  0.4775  0.1556
  253loPI   GL1 4037   1.008  12.486  10.305  0.2516 -0.0507 -0.0013
  253loPI   GL2 4038   0.747  12.609  10.044  0.0541 -0.0161  0.2733
  253loPI   C1A 4039   1.159  12.363   9.865  0.1925 -0.3291 -0.0764
  253loPI   C2A 4040   1.031  12.377   9.428 -0.0684  0.1443  0.0500
  253loPI   C3A 4041   1.017  12.419   9.075 -0.0225 -0.2659  0.4188
  253loPI   C4A 4042   0.953  12.396   8.657  0.0950 -0.1601 -0.1182
  253loPI   C5A 4043   1.260  12.386   8.301  0.0372 -0.0934 -0.0345
  253loPI   C6A 4044   1.428  12.124   8.093 -0.3899  0.1721 -0.3149
  253loPI   C1B 4045   0.844  12.787   9.689 -0.0366  0.2828 -0.1334
  253loPI   C2B 4046   0.799  12.832   9.297  0.0098  0.1459 -0.1650
  253loPI   C3B 4047   0.723  12.796   8.834  0.1779  0.0507 -0.2179
  253loPI   C4B 4048   0.858  12.743   8.311 -0.0619 -0.1274 -0.0862
  254loPI    C1 4049   4.977  15.080  11.060  0.1821  0.2439  0.1623
  254loPI    C2 4050   4.680  14.832  11.160  0.1411  0.1380 -0.2055
  254loPI    C3 4051   5.002  14.863  11.395 -0.0509  0.0729  0.0717
  254loPI   PO4 4052   4.991  15.041  10.787  0.0119 -0.0663  0.1161
  254loPI   GL1 4053   4.986  15.264  10.400 -0.0873  0.1455  0.0300
  254loPI   GL2 4054   4.672  15.196  10.362  0.1086 -0.1539 -0.0960
  254loPI   C1A 4055   5.124  15.205  10.016 -0.1725 -0.0250 -0.3680
  254loPI   C2A 4056   5.259  15.405   9.611  0.0418 -0.1398 -0.0508
  254loPI   C3A 4057   5.251  15.460   9.145 -0.1355 -0.0558  0.2828
  254loPI   C4A 4058   5.316  15.607   8.769  0.0442  0.0538 -0.0278
  254loPI   C5A 4059   5.095  15.830   8.390 -0.1403  0.1178  0.0290
  254loPI   C6A 4060   4.769  15.690   8.073  0.4559  0.0296  0.2423
  254loPI   C1B 4061   4.715  15.395   9.845  0.2517 -0.2376 -0.0374
  254loPI   C2B 4062   4.744  15.487   9.436 -0.0905  0.0005  0.2465
  254loPI   C3B 4063   4.794  15.621   8.953  0.0119 -0.1876  0.0261
  254loPI   C4B 4064   4.528  15.785   8.663  0.3961 -0.1137 -0.1753
  255loPI    C1 4065   0.732   3.355  10.483 -0.1367  0.0061 -0.1004
  255loPI    C2 4066   0.592   3.159  10.801  0.0658 -0.1085 -0.0804
  255loPI    C3 4067   0.976   3.268  10.787  0.0425 -0.0470 -0.2572
  255loPI   PO4 4068   0.689   3.160  10.269  0.1476 -0.1752  0.2007
  255loPI   GL1 4069   0.570   3.249   9.832 -0.0635  0.2122  0.3995
  255loPI   GL2 4070   0.222   3.364   9.740  0.3173 -0.0778  0.0142
  255loPI   C1A 4071   0.660   3.245   9.400  0.0270  0.1525  0.2444
  255loPI   C2A 4072   0.661   3.274   9.046 -0.1759 -0.0314  0.0320
  255loPI   C3A 4073   0.743   3.308   8.581 -0.0719 -0.0818  0.2378
  255loPI   C4A 4074   0.768   3.162   8.142  0.3230  0.0827 -0.1504
  255loPI   C5A 4075   0.582   2.849   8.034  0.2714 -0.0024 -0.0913
  255loPI   C6A 4076   0.216   2.611   8.273  0.1677 -0.0788 -0.1933
  255loPI   C1B 4077   0.046   3.249   9.359 -0.3099  0.2277 -0.0872
  255loPI   C2B 4078  -0.005   3.572   9.092  0.0315 -0.1081 -0.1334
  255loPI   C3B 4079   0.073   3.983   8.938 -0.3577  0.3552  0.1292
  255loPI   C4B 4080   0.061   4.149   8.560  0.1681  0.1571  0.0119
  256loPI    C1 4081  15.065  12.232  10.783 -0.2086 -0.0362 -0.0423
  256loPI    C2 4082  15.277  12.351  11.101 -0.2260  0.1931 -0.1144
  256loPI    C3 4083  14.947  12.130  11.151 -0.0151 -0.1007  0.0028
  256loPI   PO4 4084  15.035  12.497  10.616  0.1599  0.0077  0.1112
  256loPI   GL1 4085  15.067  12.603  10.271 -0.1380 -0.0063 -0.1747
  256loPI   GL2 4086  15.260  12.348  10.232  0.1830 -0.2545  0.1129
  256loPI   C1A 4087  15.023  12.830   9.825 -0.0144 -0.1840 -0.2467
  256loPI   C2A 4088  15.022  12.783   9.346  0.2055  0.1889  0.0773
  256loPI   C3A 4089  15.087  12.876   8.942  0.2253 -0.1346 -0.6294
  256loPI   C4A 4090  15.147  12.886   8.506 -0.1008  0.0682 -0.1073
  256loPI   C5A 4091  15.351  12.684   8.104 -0.3030  0.0209 -0.2464
  256loPI   C6A 4092  15.777  12.826   7.986  0.0514  0.1231  0.1548
  256loPI   C1B 4093  15.302  12.408   9.769 -0.0953  0.2476  0.0208
  256loPI   C2B 4094  15.164  12.317   9.362 -0.0290  0.2388 -0.1107
  256loPI   C3B 4095  15.327  12.357   8.973  0.0513  0.1331 -0.2626
  256loPI   C4B 4096  15.279  12.378   8.553  0.1995  0.1426 -0.0612
  257loPI    C1 4097  13.621   0.787  10.230 -0.2154  0.0383 -0.1447
  257loPI    C2 4098  13.316   0.574  10.375  0.1615 -0.2734  0.2136
  257loPI    C3 4099  13.539   0.797  10.621  0.2244 -0.0462 -0.0450
  257loPI   PO4 4100  13.785   0.586  10.112 -0.1522  0.4855 -0.0264
  257loPI   GL1 4101  13.832   0.323   9.830 -0.3040 -0.1545 -0.0994
  257loPI   GL2 4102  14.148   0.403   9.844  0.0191 -0.1670 -0.2103
  257loPI   C1A 4103  13.616   0.614   9.486 -0.3486  0.1155  0.0895
  257loPI   C2A 4104  13.519   0.663   9.068 -0.3795  0.2427 -0.1322
  257loPI   C3A 4105  13.386   0.646   8.651  0.0837  0.2837  0.1640
  257loPI   C4A 4106  13.383   0.569   8.241  0.3584  0.1148 -0.1857
  257loPI   C5A 4107  13.139   0.217   7.971  0.0920  0.0137  0.2798
  257loPI   C6A 4108  13.309  -0.051   7.723 -0.1608  0.1240  0.4139
  257loPI   C1B 4109  14.040   0.388   9.361 -0.0215 -0.1386 -0.2173
  257loPI   C2B 4110  13.932   0.259   8.907  0.0681 -0.2202 -0.0824
  257loPI   C3B 4111  13.756   0.253   8.547  0.0679  0.0334  0.1377
  257loPI   C4B 4112  13.689   0.196   8.030  0.3673  0.1924  0.2179
  258loPI    C1 4113  10.930  17.780  10.783 -0.1563 -0.0354  0.0893
  258loPI    C2 4114  10.952  17.581  11.129  0.1963 -0.1799 -0.0126
  258loPI    C3 4115  11.011  17.976  11.122  0.0422 -0.1536  0.1114
  258loPI   PO4 4116  10.771  17.671  10.620  0.0324 -0.1542 -0.1638
  258loPI   GL1 4117  10.592  17.361  10.311 -0.0206 -0.0613  0.0478
  258loPI   GL2 4118  10.405  17.551  10.244 -0.0118  0.2780  0.2678
  258loPI   C1A 4119  10.720  17.427   9.798 -0.1072 -0.0788  0.1845
  258loPI   C2A 4120  11.020  17.343   9.478 -0.0068  0.1979 -0.0928
  258loPI   C3A 4121  11.053  17.095   9.097  0.2793  0.1469  0.0778
  258loPI   C4A 4122  11.115  17.270   8.607  0.2058 -0.1084 -0.1379
  258loPI   C5A 4123  10.954  17.028   8.233  0.0754  0.0619 -0.3227
  258loPI   C6A 4124  10.507  16.781   8.214  0.1331 -0.3179 -0.2505
  258loPI   C1B 4125  10.259  17.402   9.839  0.0646  0.0742  0.0965
  258loPI   C2B 4126  10.361  17.272   9.463 -0.0874  0.2040 -0.0296
  258loPI   C3B 4127  10.582  17.156   9.161  0.5329 -0.2103  0.0819
  258loPI   C4B 4128  10.638  17.109   8.761 -0.0803  0.1599  0.0967
  259loPI    C1 4129   6.861   7.057  11.103  0.0242 -0.0345  0.2323
  259loPI    C2 4130   7.185   6.847  11.207  0.1147 -0.0161 -0.0061
  259loPI    C3 4131   7.127   7.213  11.358  0.1315 -0.0759  0.1466
  259loPI   PO4 4132   6.897   7.130  10.804 -0.0531  0.2926  0.0976
  259loPI   GL1 4133   7.015   7.283  10.408  0.2507  0.1303 -0.3688
  259loPI   GL2 4134   6.607   7.244  10.343  0.1404  0.1930 -0.2598
  259loPI   C1A 4135   7.187   7.241  10.000  0.2131 -0.1688 -0.1857
  259loPI   C2A 4136   7.200   7.218   9.570 -0.0282  0.0471 -0.2848
  259loPI   C3A 4137   7.157   7.184   9.209 -0.1091  0.1450 -0.2439
  259loPI   C4A 4138   7.129   7.164   8.741 -0.3241  0.1400  0.2846
  259loPI   C5A 4139   7.170   7.132   8.325  0.0024  0.0225  0.2613
  259loPI   C6A 4140   7.343   7.463   8.097 -0.1316 -0.0832  0.0412
  259loPI   C1B 4141   6.728   7.174   9.808 -0.1006  0.1689 -0.0186
  259loPI   C2B 4142   6.712   7.222   9.423  0.0162 -0.2645 -0.0013
  259loPI   C3B 4143   6.591   7.158   8.961  0.1547 -0.1188  0.1208
  259loPI   C4B 4144   6.652   7.159   8.472  0.2470 -0.0697  0.1635
  260loPI    C1 4145   4.370   7.419  10.993 -0.1879 -0.1496  0.0271
  260loPI    C2 4146   4.052   7.371  11.232 -0.1887 -0.3204 -0.0072
  260loPI    C3 4147   4.339   7.092  11.222 -0.1459 -0.2726 -0.1410
  260loPI   PO4 4148   4.368   7.442  10.696  0.0452  0.3485 -0.0335
  260loPI   GL1 4149   4.199   7.561  10.274 -0.1545  0.3409  0.1699
  260loPI   GL2 4150   4.537   7.553  10.210  0.2298 -0.0938 -0.1734
  260loPI   C1A 4151   4.052   7.357   9.895 -0.2361  0.0301 -0.3193
  260loPI   C2A 4152   3.985   7.365   9.490  0.0559 -0.1291  0.2743
  260loPI   C3A 4153   4.005   7.209   9.057  0.0232 -0.1573 -0.1789
  260loPI   C4A 4154   4.148   7.233   8.715  0.0048 -0.2860  0.0450
  260loPI   C5A 4155   4.064   7.289   8.282 -0.0035 -0.0837 -0.1549
  260loPI   C6A 4156   3.790   7.263   7.899  0.1969 -0.0857 -0.1034
  260loPI   C1B 4157   4.489   7.436   9.746  0.1286 -0.1578  0.3770
  260loPI   C2B 4158   4.527   7.247   9.384  0.1001 -0.1874  0.1076
  260loPI   C3B 4159   4.586   7.227   8.977  0.2265 -0.2296  0.0370
  260loPI   C4B 4160   4.679   7.253   8.463  0.1473 -0.1836 -0.0486
  261loPI    C1 4161  17.293   9.849  11.078  0.1376  0.2798  0.2274
  261loPI    C2 4162  16.916   9.970  11.023  0.1493  0.1977 -0.0458
  261loPI    C3 4163  16.990   9.599  11.152  0.1439  0.0598 -0.4256
  261loPI   PO4 4164  17.404   9.907  10.773 -0.2422  0.1383 -0.2671
  261loPI   GL1 4165  17.597   9.699  10.499 -0.2043  0.0344  0.4632
  261loPI   GL2 4166  17.626   9.410  10.335  0.1341  0.1591 -0.1197
  261loPI   C1A 4167  17.588   9.962  10.216  0.2448  0.2965  0.0978
  261loPI   C2A 4168  17.608  10.193   9.816  0.2613 -0.0065 -0.1936
  261loPI   C3A 4169  17.720  10.225   9.408 -0.1757 -0.3379 -0.0566
  261loPI   C4A 4170  17.665  10.332   8.999  0.0304 -0.1952 -0.0574
  261loPI   C5A 4171  17.582  10.220   8.654  0.1223  0.2054 -0.3211
  261loPI   C6A 4172  17.324  10.437   8.365  0.1289  0.0017 -0.0675
  261loPI   C1B 4173  17.562   9.351  10.023 -0.2900 -0.0666 -0.2032
  261loPI   C2B 4174  17.519   9.367   9.644 -0.2908  0.0244  0.1639
  261loPI   C3B 4175  17.470   9.445   9.203  0.1547  0.0739  0.2555
  261loPI   C4B 4176  17.525   9.399   8.791  0.0984 -0.1433  0.4111
  262loPI    C1 4177  15.145   8.418  10.963 -0.1004 -0.0765 -0.1876
  262loPI    C2 4178  14.772   8.279  10.919 -0.1689  0.0323  0.0351
  262loPI    C3 4179  14.973   8.209  11.258 -0.0648  0.1549 -0.0006
  262loPI   PO4 4180  15.308   8.372  10.728  0.1517 -0.0584  0.1006
  262loPI   GL1 4181  15.609   8.250  10.356  0.5076 -0.0252 -0.0818
  262loPI   GL2 4182  15.889   8.340  10.208 -0.1340  0.0993 -0.1853
  262loPI   C1A 4183  15.474   8.345   9.930 -0.0015 -0.2673 -0.1765
  262loPI   C2A 4184  15.026   8.383   9.770  0.0010 -0.2129 -0.2169
  262loPI   C3A 4185  14.917   8.301   9.404  0.4057  0.0670  0.0551
  262loPI   C4A 4186  14.968   8.438   8.981  0.0731 -0.3347 -0.1657
  262loPI   C5A 4187  15.090   8.466   8.541  0.0352 -0.0712 -0.1360
  262loPI   C6A 4188  14.938   8.329   8.112  0.2793 -0.2395 -0.0065
  262loPI   C1B 4189  15.944   8.335   9.822 -0.0792  0.0367 -0.2200
  262loPI   C2B 4190  15.968   8.400   9.378 -0.1451  0.0450 -0.1470
  262loPI   C3B 4191  16.032   8.311   8.986 -0.1671 -0.0773  0.0111
  262loPI   C4B 4192  16.047   8.237   8.564 -0.0838  0.2031 -0.0143
  263loPI    C1 4193   8.364   4.402  10.718 -0.0824 -0.1603  0.1934
  263loPI    C2 4194   8.389   4.011  10.637 -0.1790 -0.1561  0.1414
  263loPI    C3 4195   8.556   4.158  10.970 -0.1894 -0.2501  0.1883
  263loPI   PO4 4196   8.429   4.516  10.536 -0.3037 -0.0408 -0.1890
  263loPI   GL1 4197   8.288   4.583  10.098 -0.2338 -0.1126  0.5901
  263loPI   GL2 4198   8.192   4.297  10.097 -0.2052 -0.0888 -0.2611
  263loPI   C1A 4199   8.473   4.855   9.716  0.4291 -0.0624 -0.0337
  263loPI   C2A 4200   8.486   4.835   9.256  0.1897  0.0067 -0.0305
  263loPI   C3A 4201   8.458   4.873   8.755  0.0231 -0.3276  0.3532
  263loPI   C4A 4202   8.312   4.793   8.346 -0.0533 -0.0303  0.1065
  263loPI   C5A 4203   8.242   4.338   8.122  0.0748  0.0371  0.1853
  263loPI   C6A 4204   8.301   3.880   7.994  0.0301  0.3311  0.0989
  263loPI   C1B 4205   8.345   4.059   9.835  0.2609  0.0009 -0.1190
  263loPI   C2B 4206   8.470   3.965   9.404 -0.1884 -0.0165  0.0829
  263loPI   C3B 4207   8.367   3.999   8.940  0.0201 -0.1082  0.0844
  263loPI   C4B 4208   8.339   3.894   8.457  0.1921 -0.0075 -0.1070
  264loPI    C1 4209  13.535  15.972  10.932  0.0955 -0.3273 -0.0247
  264loPI    C2 4210  13.904  15.910  11.072  0.1469  0.1369  0.0625
  264loPI    C3 4211  13.693  16.225  11.198 -0.1630  0.0468 -0.2173
  264loPI   PO4 4212  13.359  15.874  10.687  0.2179  0.5303 -0.0453
  264loPI   GL1 4213  13.415  15.750  10.286  0.0462  0.0228 -0.1206
  264loPI   GL2 4214  13.222  15.838   9.995  0.0224 -0.1420 -0.3623
  264loPI   C1A 4215  13.629  15.583   9.886  0.1018  0.0101  0.0558
  264loPI   C2A 4216  13.782  15.627   9.429  0.0451 -0.0052  0.2805
  264loPI   C3A 4217  13.701  15.723   8.979 -0.2276  0.0555  0.2152
  264loPI   C4A 4218  13.797  15.700   8.551  0.0431 -0.3040 -0.3494
  264loPI   C5A 4219  14.062  15.506   8.343 -0.1250  0.1711 -0.0878
  264loPI   C6A 4220  14.323  15.243   8.096  0.3955 -0.1030 -0.0348
  264loPI   C1B 4221  13.140  15.641   9.618  0.0988  0.0820  0.0685
  264loPI   C2B 4222  13.160  15.768   9.139  0.0771  0.1655  0.0038
  264loPI   C3B 4223  13.282  15.713   8.696 -0.2150 -0.2139  0.0322
  264loPI   C4B 4224  13.139  15.795   8.278  0.1571 -0.2977 -0.2625
  265loPI    C1 4225  10.389  10.505  10.760 -0.2862  0.0894  0.0136
  265loPI    C2 4226  10.482  10.175  10.966  0.1985  0.2231  0.0204
  265loPI    C3 4227  10.206  10.428  11.107 -0.2903 -0.2483 -0.0603
  265loPI   PO4 4228  10.360  10.358  10.469  0.3141  0.0499 -0.3789
  265loPI   GL1 4229  10.220  10.133  10.040  0.2217 -0.0193  0.0876
  265loPI   GL2 4230  10.461   9.835   9.963  0.0791 -0.0403 -0.1436
  265loPI   C1A 4231  10.268  10.120   9.569  0.0897 -0.0865 -0.0101
  265loPI   C2A 4232  10.115  10.201   9.124  0.2440  0.0284  0.0394
  265loPI   C3A 4233  10.038  10.250   8.678 -0.0938 -0.3317  0.1629
  265loPI   C4A 4234   9.928  10.435   8.388  0.3828 -0.1163  0.2532
  265loPI   C5A 4235   9.901  10.693   8.090  0.1309  0.0633 -0.2355
  265loPI   C6A 4236   9.945  11.096   7.841  0.0490  0.0060  0.0710
  265loPI   C1B 4237  10.494   9.729   9.552  0.0856 -0.0056 -0.0251
  265loPI   C2B 4238  10.365   9.731   9.090  0.0174 -0.3571  0.1691
  265loPI   C3B 4239  10.314   9.748   8.628  0.1000 -0.0845 -0.1061
  265loPI   C4B 4240  10.566   9.660   8.186  0.4283 -0.0263  0.0620
  266loPI    C1 4241   7.160  16.075  10.962  0.0310  0.2540 -0.0198
  266loPI    C2 4242   7.012  16.225  11.301 -0.1118 -0.2814  0.1645
  266loPI    C3 4243   7.380  16.069  11.296  0.1085  0.2227 -0.0710
  266loPI   PO4 4244   7.095  16.301  10.708 -0.0066  0.0617 -0.0144
  266loPI   GL1 4245   6.811  16.553  10.439 -0.0147  0.0358 -0.1693
  266loPI   GL2 4246   6.662  16.318  10.341  0.2924  0.2923  0.0356
  266loPI   C1A 4247   7.079  16.580   9.950 -0.0704 -0.0399  0.1024
  266loPI   C2A 4248   7.221  16.762   9.652 -0.1001  0.1345  0.0080
  266loPI   C3A 4249   7.258  16.567   9.249 -0.0425 -0.0753 -0.0629
  266loPI   C4A 4250   7.160  16.733   8.843  0.1897  0.1192 -0.3028
  266loPI   C5A 4251   7.536  16.882   8.524 -0.0103  0.2993 -0.0166
  266loPI   C6A 4252   7.889  17.106   8.218 -0.1338 -0.2764  0.2155
  266loPI   C1B 4253   6.831  16.182  10.043 -0.1945 -0.1257  0.0742
  266loPI   C2B 4254   6.929  16.247   9.582  0.4071  0.0924 -0.1841
  266loPI   C3B 4255   6.972  16.158   9.180 -0.0335 -0.0264  0.0039
  266loPI   C4B 4256   6.979  16.288   8.726  0.1754  0.0225 -0.2676
  267loPI    C1 4257   5.749   5.768  11.103 -0.0501  0.2272 -0.2234
  267loPI    C2 4258   5.438   6.001  11.199 -0.0859  0.0767  0.0346
  267loPI    C3 4259   5.619   5.782  11.481  0.1767  0.0675 -0.1372
  267loPI   PO4 4260   5.666   5.663  10.815  0.1410  0.1963  0.0609
  267loPI   GL1 4261   5.727   5.804  10.402  0.1306 -0.0485 -0.0332
  267loPI   GL2 4262   5.529   5.435  10.389 -0.0858 -0.2903 -0.1697
  267loPI   C1A 4263   5.796   5.883   9.957  0.0414  0.1707  0.3154
  267loPI   C2A 4264   5.876   5.739   9.507 -0.0154 -0.2601 -0.1024
  267loPI   C3A 4265   5.846   5.887   9.088 -0.0260 -0.1189  0.0295
  267loPI   C4A 4266   5.734   5.912   8.602  0.2901  0.0647  0.1247
  267loPI   C5A 4267   5.780   5.803   8.203  0.1394  0.1872 -0.0945
  267loPI   C6A 4268   5.795   5.557   7.764  0.0043 -0.2613  0.1325
  267loPI   C1B 4269   5.376   5.619  10.033  0.0890 -0.2648  0.0590
  267loPI   C2B 4270   5.276   5.758   9.650  0.1274 -0.1594 -0.3067
  267loPI   C3B 4271   5.383   5.855   9.275 -0.2198  0.1697 -0.1500
  267loPI   C4B 4272   5.319   5.864   8.892  0.0236 -0.1380  0.2938
  268loPI    C1 4273   6.346   1.956  10.535  0.0457  0.0074  0.1683
  268loPI    C2 4274   6.390   2.057  10.920 -0.4342 -0.0463  0.2435
  268loPI    C3 4275   6.481   1.686  10.798  0.2022  0.1125  0.1973
  268loPI   PO4 4276   6.412   2.141  10.388 -0.2217 -0.0375 -0.1235
  268loPI   GL1 4277   6.481   2.290   9.919 -0.2908 -0.0468 -0.2876
  268loPI   GL2 4278   6.260   2.223   9.674  0.0168 -0.1824  0.2102
  268loPI   C1A 4279   6.733   2.132   9.565 -0.1882  0.3036  0.0019
  268loPI   C2A 4280   6.772   2.254   9.167  0.2187  0.0821  0.0565
  268loPI   C3A 4281   6.623   2.163   8.774 -0.2213  0.2356  0.1132
  268loPI   C4A 4282   6.953   2.263   8.431  0.0280  0.1396 -0.3539
  268loPI   C5A 4283   7.142   2.185   8.073 -0.1255 -0.1404  0.0020
  268loPI   C6A 4284   7.340   1.974   7.670  0.2236  0.2286  0.2424
  268loPI   C1B 4285   6.270   2.212   9.216  0.0460  0.2754  0.1609
  268loPI   C2B 4286   6.088   1.938   8.898 -0.1356 -0.1063 -0.0999
  268loPI   C3B 4287   5.979   1.661   8.520 -0.1669 -0.2247  0.1036
  268loPI   C4B 4288   5.767   1.400   8.240 -0.2689 -0.1965 -0.1570
  269loPI    C1 4289   7.567   8.568  10.519  0.1044 -0.1601  0.2000
  269loPI    C2 4290   7.682   8.870  10.753  0.0695 -0.1056  0.1472
  269loPI    C3 4291   7.878   8.522  10.765  0.1882 -0.0402  0.1176
  269loPI   PO4 4292   7.594   8.589  10.198 -0.2525 -0.1398 -0.1313
  269loPI   GL1 4293   7.707   8.829   9.817  0.2797  0.1345  0.0686
  269loPI   GL2 4294   7.878   9.092   9.626 -0.1718  0.0989  0.0378
  269loPI   C1A 4295   7.424   8.601   9.500  0.1158  0.0294 -0.2061
  269loPI   C2A 4296   7.471   8.527   9.069  0.0044  0.0392  0.2596
  269loPI   C3A 4297   7.508   8.440   8.649  0.1998  0.0743 -0.1363
  269loPI   C4A 4298   7.454   8.519   8.243 -0.0314 -0.0079 -0.0155
  269loPI   C5A 4299   7.546   8.565   7.784 -0.0619 -0.0797 -0.1037
  269loPI   C6A 4300   7.744   8.231   7.438  0.3159 -0.0765  0.1835
  269loPI   C1B 4301   7.773   8.862   9.274  0.1160 -0.1819 -0.0126
  269loPI   C2B 4302   7.767   8.917   8.827 -0.2574  0.3612  0.3446
  269loPI   C3B 4303   7.698   8.979   8.392  0.1709  0.1173 -0.1193
  269loPI   C4B 4304   7.756   8.924   7.926 -0.0833 -0.2929  0.2555
  270loPI    C1 4305   2.145  17.093  10.799  0.0572 -0.0293 -0.0844
  270loPI    C2 4306   2.239  16.711  10.868 -0.1490 -0.0741 -0.0456
  270loPI    C3 4307   2.463  17.003  11.024  0.0398 -0.1783 -0.1186
  270loPI   PO4 4308   2.119  17.123  10.632  0.2455 -0.0646  0.0981
  270loPI   GL1 4309   2.102  16.849  10.344 -0.1345 -0.0738 -0.1349
  270loPI   GL2 4310   1.889  16.974  10.177 -0.0620 -0.0789 -0.0653
  270loPI   C1A 4311   2.395  16.887  10.003  0.1874  0.1871  0.0494
  270loPI   C2A 4312   2.458  16.925   9.488  0.0550 -0.2918 -0.0428
  270loPI   C3A 4313   2.565  16.866   9.117 -0.0014  0.0309  0.0601
  270loPI   C4A 4314   2.622  16.818   8.691  0.0220  0.1531  0.0076
  270loPI   C5A 4315   2.692  16.856   8.249 -0.2561 -0.2899 -0.2685
  270loPI   C6A 4316   2.672  17.338   8.037 -0.2997  0.0451 -0.2407
  270loPI   C1B 4317   1.972  16.937   9.676 -0.2797  0.0357  0.0156
  270loPI   C2B 4318   2.047  16.947   9.201  0.1236  0.0076  0.0434
  270loPI   C3B 4319   2.063  16.823   8.781 -0.3760 -0.1037 -0.2252
  270loPI   C4B 4320   2.120  16.750   8.436  0.1862  0.3461  0.3399
  271loPI    C1 4321   9.819  10.398  10.546 -0.1130 -0.0815  0.0942
  271loPI    C2 4322  10.006  10.125  10.771  0.0822  0.0275  0.0665
  271loPI    C3 4323   9.746  10.379  10.939 -0.0580 -0.1374  0.1018
  271loPI   PO4 4324   9.811  10.254  10.334 -0.0145 -0.4087  0.2520
  271loPI   GL1 4325   9.644  10.104  10.011  0.0103 -0.3665  0.0676
  271loPI   GL2 4326   9.432  10.285   9.892  0.0887 -0.0087 -0.0425
  271loPI   C1A 4327   9.709  10.145   9.556 -0.2823  0.0326 -0.2239
  271loPI   C2A 4328   9.634  10.065   9.106 -0.0783 -0.0837 -0.1434
  271loPI   C3A 4329   9.560  10.181   8.679  0.3335 -0.1341 -0.1039
  271loPI   C4A 4330   9.478  10.118   8.227  0.1861  0.0883 -0.1929
  271loPI   C5A 4331   9.448  10.260   7.755 -0.2555 -0.1524 -0.3807
  271loPI   C6A 4332   9.245  10.041   7.331 -0.2905 -0.1511 -0.0197
  271loPI   C1B 4333   9.223  10.268   9.424  0.0832  0.0164 -0.0512
  271loPI   C2B 4334   9.159  10.115   9.096  0.3379  0.0892  0.1778
  271loPI   C3B 4335   9.104  10.109   8.668  0.0350 -0.0188  0.1225
  271loPI   C4B 4336   8.954  10.101   8.270 -0.1274 -0.0250 -0.1880
  272loPI    C1 4337   2.138   2.011  10.710  0.2645 -0.1561  0.0340
  272loPI    C2 4338   1.865   1.840  10.947 -0.0363  0.0027 -0.1907
  272loPI    C3 4339   2.131   2.096  11.101 -0.0518 -0.1058  0.0202
  272loPI   PO4 4340   1.940   2.137  10.577 -0.1730 -0.3801 -0.0668
  272loPI   GL1 4341   1.698   2.194  10.213 -0.1247  0.0046 -0.0344
  272loPI   GL2 4342   1.726   1.881  10.124 -0.0978 -0.0562  0.0541
  272loPI   C1A 4343   1.537   2.373   9.869 -0.0131  0.1520 -0.0153
  272loPI   C2A 4344   1.594   2.416   9.504 -0.4272 -0.0458  0.0303
  272loPI   C3A 4345   1.643   2.488   9.037 -0.1769 -0.0592 -0.1196
  272loPI   C4A 4346   1.589   2.248   8.662 -0.2299 -0.1330 -0.2476
  272loPI   C5A 4347   1.626   2.143   8.249  0.2168  0.1020 -0.3820
  272loPI   C6A 4348   1.800   2.317   7.794 -0.0588  0.1271 -0.0925
  272loPI   C1B 4349   1.959   1.982   9.663 -0.1034 -0.1644  0.0526
  272loPI   C2B 4350   1.861   2.022   9.202  0.1649  0.2444 -0.0284
  272loPI   C3B 4351   1.905   1.896   8.819 -0.0463 -0.0772  0.1464
  272loPI   C4B 4352   1.918   1.730   8.383 -0.0159  0.1650  0.0199
  273loPI    C1 4353   7.060  15.080  10.826  0.1020 -0.1047 -0.1222
  273loPI    C2 4354   7.121  14.729  11.009 -0.0003 -0.0189  0.0791
  273loPI    C3 4355   7.130  15.069  11.220  0.0471  0.0963 -0.1060
  273loPI   PO4 4356   6.771  14.931  10.698 -0.0431 -0.1101  0.2421
  273loPI   GL1 4357   6.778  14.863  10.309 -0.2071  0.1217 -0.1023
  273loPI   GL2 4358   6.414  14.804  10.406  0.1746  0.0861 -0.3496
  273loPI   C1A 4359   6.718  15.153   9.949  0.0802  0.0058  0.0415
  273loPI   C2A 4360   6.817  15.239   9.564 -0.0254  0.2079 -0.3078
  273loPI   C3A 4361   6.875  15.396   9.149 -0.2795  0.1638 -0.2291
  273loPI   C4A 4362   6.888  15.488   8.775 -0.2663  0.1352  0.1781
  273loPI   C5A 4363   6.768  15.491   8.399  0.1419 -0.1519 -0.1696
  273loPI   C6A 4364   6.349  15.361   8.422  0.3227 -0.2143  0.2609
  273loPI   C1B 4365   6.444  14.778   9.968 -0.1783  0.0564  0.2424
  273loPI   C2B 4366   6.441  14.897   9.569  0.2318  0.0560  0.0212
  273loPI   C3B 4367   6.549  14.996   9.090  0.0559  0.0578  0.2491
  273loPI   C4B 4368   6.545  15.092   8.787  0.0208 -0.1011  0.0693
  274loPI    C1 4369  15.424  11.921  10.925 -0.0030  0.1585  0.0354
  274loPI    C2 4370  15.704  11.901  11.210 -0.0516 -0.0041  0.0726
  274loPI    C3 4371  15.318  11.852  11.305 -0.0929  0.2079  0.0197
  274loPI   PO4 4372  15.540  11.759  10.737  0.2566 -0.2608 -0.2359
  274loPI   GL1 4373  15.665  11.771  10.366 -0.0319  0.1246  0.2478
  274loPI   GL2 4374  15.874  11.600  10.371 -0.1267 -0.0529 -0.0420
  274loPI   C1A 4375  15.408  11.927  10.008  0.1549  0.1985  0.0250
  274loPI   C2A 4376  15.404  11.989   9.603 -0.0469 -0.0801  0.0587
  274loPI   C3A 4377  15.403  11.875   9.168 -0.0222 -0.0663  0.1746
  274loPI   C4A 4378  15.551  11.936   8.699 -0.0451  0.1167 -0.0708
  274loPI   C5A 4379  15.637  12.073   8.155  0.0937 -0.0878 -0.4583
  274loPI   C6A 4380  15.882  12.363   8.047 -0.0227 -0.2821  0.1051
  274loPI   C1B 4381  15.670  11.400   9.948 -0.0573 -0.2561 -0.1046
  274loPI   C2B 4382  15.722  11.423   9.537 -0.1763 -0.0247 -0.0693
  274loPI   C3B 4383  15.647  11.409   9.154  0.0102  0.2948 -0.2189
  274loPI   C4B 4384  15.785  11.481   8.714  0.0433 -0.1793 -0.1695
  275loPI    C1 4385  11.215   6.279  10.788  0.0759 -0.2959 -0.2039
  275loPI    C2 4386  11.009   6.035  11.030 -0.1423  0.1219  0.0442
  275loPI    C3 4387  11.300   6.266  11.179  0.2914 -0.2207 -0.2470
  275loPI   PO4 4388  11.238   6.158  10.587 -0.1859 -0.2914  0.0330
  275loPI   GL1 4389  11.219   5.924  10.278 -0.0102 -0.3599  0.1841
  275loPI   GL2 4390  11.015   5.650  10.191  0.0368 -0.2116  0.0448
  275loPI   C1A 4391  11.377   5.856   9.927 -0.0080  0.2317 -0.0488
  275loPI   C2A 4392  11.479   5.692   9.698  0.0275  0.3403 -0.0590
  275loPI   C3A 4393  11.497   5.666   9.193  0.1722 -0.3314  0.0710
  275loPI   C4A 4394  11.398   5.603   8.784 -0.0168 -0.2235  0.2553
  275loPI   C5A 4395  10.976   5.658   8.524  0.0286 -0.0484 -0.1501
  275loPI   C6A 4396  10.632   5.572   8.317  0.3314 -0.0674  0.0795
  275loPI   C1B 4397  11.035   5.531   9.812  0.0032 -0.1416  0.2530
  275loPI   C2B 4398  10.948   5.570   9.347  0.1603  0.0026 -0.0325
  275loPI   C3B 4399  10.678   5.644   8.975  0.1949  0.0402 -0.2811
  275loPI   C4B 4400  10.331   5.808   8.819 -0.4634  0.0728  0.2181
  276loPI    C1 4401  15.439   4.076  10.516 -0.0644  0.1211  0.0665
  276loPI    C2 4402  15.386   3.778  10.778  0.0778  0.0362 -0.0001
  276loPI    C3 4403  15.122   4.078  10.760 -0.0212 -0.0425  0.1252
  276loPI   PO4 4404  15.565   3.941  10.369 -0.0044 -0.1168 -0.2555
  276loPI   GL1 4405  15.591   3.718   9.938 -0.0593  0.0457 -0.0412
  276loPI   GL2 4406  15.274   3.946   9.941  0.0706  0.0882 -0.1343
  276loPI   C1A 4407  15.568   3.575   9.614 -0.0202  0.1163  0.1196
  276loPI   C2A 4408  15.485   3.254   9.330 -0.1116 -0.0542  0.0490
  276loPI   C3A 4409  15.434   3.259   8.911  0.1313 -0.0900 -0.1564
  276loPI   C4A 4410  15.449   3.083   8.512 -0.4304 -0.2111  0.1504
  276loPI   C5A 4411  15.397   3.127   8.149 -0.0401 -0.0252 -0.1599
  276loPI   C6A 4412  15.366   2.859   7.851 -0.0107 -0.1676  0.1146
  276loPI   C1B 4413  15.210   3.882   9.513 -0.1217 -0.0206 -0.1869
  276loPI   C2B 4414  15.406   3.742   9.218 -0.3692 -0.2551 -0.2521
  276loPI   C3B 4415  15.531   3.742   8.765 -0.3678 -0.0869 -0.0527
  276loPI   C4B 4416  15.461   3.558   8.284 -0.0507 -0.1720 -0.1391
  277loPI    C1 4417   1.875   3.703  10.854  0.0325  0.0048 -0.0230
  277loPI    C2 4418   1.953   3.355  11.034 -0.1320 -0.0894 -0.1318
  277loPI    C3 4419   1.724   3.627  11.217  0.1698  0.0515  0.0449
  277loPI   PO4 4420   1.723   3.725  10.638 -0.2851  0.2619  0.4144
  277loPI   GL1 4421   1.658   3.462  10.294  0.0016 -0.1814  0.1449
  277loPI   GL2 4422   1.891   3.552  10.155 -0.1862  0.0014 -0.0190
  277loPI   C1A 4423   1.591   3.294   9.869  0.2346 -0.1037  0.0753
  277loPI   C2A 4424   1.666   3.353   9.441 -0.0265 -0.1491 -0.1812
  277loPI   C3A 4425   1.677   3.389   9.006 -0.2089 -0.0141 -0.0520
  277loPI   C4A 4426   1.663   3.300   8.580  0.4154 -0.0265 -0.0304
  277loPI   C5A 4427   1.709   3.529   8.102  0.0261 -0.0060 -0.0393
  277loPI   C6A 4428   2.073   3.662   7.936 -0.1712  0.1335  0.3493
  277loPI   C1B 4429   1.815   3.766   9.801  0.1866 -0.2978 -0.0179
  277loPI   C2B 4430   1.887   3.806   9.393  0.1496 -0.0574 -0.1086
  277loPI   C3B 4431   1.952   3.814   8.881  0.0301  0.0096 -0.0918
  277loPI   C4B 4432   1.926   3.863   8.465  0.1204  0.2992  0.4225
  278loPI    C1 4433  11.165  11.144  10.773  0.3052 -0.0282 -0.2674
  278loPI    C2 4434  11.450  11.407  10.868  0.1008  0.1452 -0.1245
  278loPI    C3 4435  11.280  11.186  11.154  0.1340 -0.0022 -0.2178
  278loPI   PO4 4436  11.318  11.031  10.545  0.1072  0.0750  0.2480
  278loPI   GL1 4437  11.478  11.023  10.105 -0.2574 -0.2555 -0.2276
  278loPI   GL2 4438  11.815  10.998  10.066 -0.0858  0.1948  0.3211
  278loPI   C1A 4439  11.331  11.032   9.676 -0.4340  0.0434  0.1608
  278loPI   C2A 4440  11.425  10.973   9.312  0.1843  0.0964  0.1174
  278loPI   C3A 4441  11.361  11.002   8.867 -0.2570  0.2420  0.1040
  278loPI   C4A 4442  11.341  11.137   8.454 -0.1255 -0.0546 -0.0200
  278loPI   C5A 4443  11.423  11.095   8.099 -0.1925 -0.0554 -0.1418
  278loPI   C6A 4444  11.388  10.962   7.741  0.1575  0.1432 -0.0774
  278loPI   C1B 4445  11.879  10.965   9.542  0.0556 -0.1409 -0.0377
  278loPI   C2B 4446  11.887  10.945   9.136 -0.1194  0.2760 -0.0287
  278loPI   C3B 4447  11.878  11.133   8.634 -0.2780  0.0863 -0.2129
  278loPI   C4B 4448  11.989  11.349   8.241  0.0953  0.0424 -0.0545
  279loPI    C1 4449   8.906  17.398  11.062 -0.1677 -0.2416 -0.1040
  279loPI    C2 4450   8.540  17.557  11.087  0.0176  0.1729  0.0746
  279loPI    C3 4451   8.731  17.442  11.419  0.0845  0.0373 -0.0104
  279loPI   PO4 4452   8.920  17.294  10.813  0.0507 -0.0553  0.4482
  279loPI   GL1 4453   9.069  17.139  10.536 -0.2204  0.1268  0.2275
  279loPI   GL2 4454   8.989  17.285  10.305 -0.1394 -0.0095 -0.2673
  279loPI   C1A 4455   9.134  16.734  10.330 -0.0764  0.0653  0.0559
  279loPI   C2A 4456   9.131  16.550   9.865 -0.0273 -0.1593 -0.3041
  279loPI   C3A 4457   8.927  16.569   9.446 -0.0746  0.2335 -0.3976
  279loPI   C4A 4458   8.862  16.530   8.964  0.1815 -0.0046  0.0211
  279loPI   C5A 4459   8.594  16.579   8.536  0.1651  0.2246  0.3961
  279loPI   C6A 4460   8.396  16.899   8.180 -0.1713  0.1048 -0.0971
  279loPI   C1B 4461   8.648  17.317   9.969  0.1091 -0.2188 -0.1032
  279loPI   C2B 4462   8.514  17.266   9.506 -0.1120 -0.0944 -0.0512
  279loPI   C3B 4463   8.326  17.216   9.140 -0.1112 -0.1557  0.0091
  279loPI   C4B 4464   8.513  17.480   8.823  0.2017 -0.3661 -0.1488
  280loPI    C1 4465  16.228   3.568  10.521  0.2702  0.0186  0.1182
  280loPI    C2 4466  15.968   3.441  10.796  0.1030  0.1614  0.0288
  280loPI    C3 4467  16.341   3.538  10.903  0.1030  0.0128  0.1679
  280loPI   PO4 4468  16.045   3.736  10.377  0.3636  0.2304 -0.0894
  280loPI   GL1 4469  16.111   3.872   9.902  0.1362  0.0552  0.1060
  280loPI   GL2 4470  15.982   4.062   9.865  0.1463 -0.5913  0.1430
  280loPI   C1A 4471  16.100   3.583   9.644  0.3336  0.0595 -0.0974
  280loPI   C2A 4472  15.894   3.548   9.191  0.1611 -0.1816  0.0745
  280loPI   C3A 4473  15.870   3.422   8.758  0.1743 -0.1930  0.2243
  280loPI   C4A 4474  15.858   3.249   8.358 -0.2517 -0.1901  0.1361
  280loPI   C5A 4475  15.801   3.289   7.898  0.0698  0.2669  0.2074
  280loPI   C6A 4476  15.795   3.577   7.640 -0.2355 -0.0158 -0.0825
  280loPI   C1B 4477  15.711   4.056   9.533  0.0399  0.1480 -0.1349
  280loPI   C2B 4478  15.657   4.168   9.072  0.2806  0.0323  0.3094
  280loPI   C3B 4479  15.679   4.280   8.595 -0.0559 -0.1131 -0.1878
  280loPI   C4B 4480  15.910   4.437   8.178 -0.3259 -0.1361  0.4527
  281loPI    C1 4481   1.360  15.623  11.158  0.0368 -0.3202 -0.0233
  281loPI    C2 4482   1.675  15.381  11.207  0.2192 -0.0354  0.2478
  281loPI    C3 4483   1.489  15.535  11.526 -0.2623 -0.2777  0.0943
  281loPI   PO4 4484   1.429  15.728  10.928  0.2094 -0.3069 -0.1796
  281loPI   GL1 4485   1.437  15.956  10.503  0.3222 -0.0472  0.2060
  281loPI   GL2 4486   1.640  15.646  10.429  0.1140 -0.2633  0.2148
  281loPI   C1A 4487   1.371  16.093  10.093 -0.0878  0.0644  0.1107
  281loPI   C2A 4488   1.387  16.086   9.680  0.3190 -0.0797  0.1184
  281loPI   C3A 4489   1.450  16.013   9.199 -0.2097 -0.2687  0.0369
  281loPI   C4A 4490   1.551  16.006   8.770 -0.0105  0.1149 -0.1890
  281loPI   C5A 4491   1.316  15.864   8.406  0.1996  0.1138 -0.2153
  281loPI   C6A 4492   1.397  15.667   8.038 -0.1538 -0.2496  0.2077
  281loPI   C1B 4493   1.583  15.681   9.923  0.3150  0.0651 -0.0480
  281loPI   C2B 4494   1.623  15.606   9.446  0.2333  0.2657 -0.0342
  281loPI   C3B 4495   1.656  15.576   8.929 -0.1171 -0.2898  0.3135
  281loPI   C4B 4496   1.645  15.534   8.507 -0.2290  0.1149  0.0507
  282loPI    C1 4497   5.819  11.376  10.803 -0.2881  0.0079  0.3714
  282loPI    C2 4498   6.098  11.090  10.794 -0.1058  0.1853 -0.4098
  282loPI    C3 4499   6.171  11.434  10.983 -0.0330  0.0086 -0.1093
  282loPI   PO4 4500   5.751  11.465  10.562  0.1098  0.3691  0.2405
  282loPI   GL1 4501   5.759  11.385  10.131 -0.0330  0.1404  0.1368
  282loPI   GL2 4502   5.590  11.227   9.827  0.1328 -0.0560 -0.3158
  282loPI   C1A 4503   5.904  11.659   9.803 -0.2166  0.2131 -0.0997
  282loPI   C2A 4504   5.980  11.690   9.276  0.0731 -0.0053  0.2151
  282loPI   C3A 4505   5.822  11.719   8.822 -0.0257  0.0527  0.2025
  282loPI   C4A 4506   5.908  11.900   8.418  0.2404  0.0877  0.0678
  282loPI   C5A 4507   5.817  12.052   7.941  0.3184 -0.1775 -0.0004
  282loPI   C6A 4508   5.511  12.366   7.841  0.1254 -0.0979 -0.2045
  282loPI   C1B 4509   5.570  11.337   9.413 -0.2306  0.2071 -0.0477
  282loPI   C2B 4510   5.603  11.270   9.051  0.1080 -0.0916  0.2283
  282loPI   C3B 4511   5.502  11.244   8.735 -0.4529 -0.1633 -0.0610
  282loPI   C4B 4512   5.592  11.455   8.409 -0.1594  0.1199  0.3756
  283loPI    C1 4513  12.260   0.116  10.874 -0.0487  0.0057 -0.1839
  283loPI    C2 4514  12.457  -0.233  10.871  0.0456  0.0588 -0.2144
  283loPI    C3 4515  12.061  -0.226  10.933  0.0939 -0.0282  0.1234
  283loPI   PO4 4516  12.357   0.267  10.632 -0.1647  0.0032  0.1076
  283loPI   GL1 4517  12.379   0.542  10.258  0.0088  0.1058  0.3075
  283loPI   GL2 4518  12.010   0.503  10.271  0.2159  0.0577 -0.0645
  283loPI   C1A 4519  12.161   0.461   9.818 -0.0608  0.4646  0.1840
  283loPI   C2A 4520  12.153   0.581   9.455  0.1893 -0.1364 -0.2564
  283loPI   C3A 4521  11.986   0.706   9.064 -0.1025 -0.0779  0.0002
  283loPI   C4A 4522  12.065   0.758   8.643 -0.1029 -0.2516  0.0499
  283loPI   C5A 4523  11.933   0.791   8.182 -0.0785 -0.1113 -0.0322
  283loPI   C6A 4524  11.809   0.699   7.782  0.0916  0.2363  0.4877
  283loPI   C1B 4525  11.661   0.519   9.985 -0.1665 -0.0081 -0.0638
  283loPI   C2B 4526  11.455   0.511   9.564 -0.0908  0.3027 -0.1172
  283loPI   C3B 4527  11.510   0.551   9.131  0.0471  0.0388  0.0102
  283loPI   C4B 4528  11.540   0.588   8.671  0.0055 -0.0450 -0.1348
  284loPI    C1 4529   6.050   6.170  10.959 -0.1876 -0.3008 -0.0248
  284loPI    C2 4530   5.723   6.366  11.081 -0.0079 -0.0139  0.0036
  284loPI    C3 4531   5.938   6.153  11.342 -0.1251 -0.1357  0.0015
  284loPI   PO4 4532   5.966   6.204  10.613  0.0706 -0.0909 -0.1453
  284loPI   GL1 4533   6.263   6.407  10.284  0.5962 -0.1366 -0.1907
  284loPI   GL2 4534   6.497   6.420  10.115 -0.0569 -0.4307 -0.1628
  284loPI   C1A 4535   6.045   6.333   9.877  0.1582  0.0553  0.1436
  284loPI   C2A 4536   6.055   6.191   9.538 -0.0032  0.0097 -0.0124
  284loPI   C3A 4537   6.087   6.315   9.134  0.0756 -0.0553 -0.2826
  284loPI   C4A 4538   6.146   6.262   8.649 -0.2861 -0.0369  0.1229
  284loPI   C5A 4539   6.086   6.177   8.306 -0.0694  0.1299  0.2955
  284loPI   C6A 4540   5.908   6.149   7.863 -0.0882  0.3770  0.3986
  284loPI   C1B 4541   6.504   6.201   9.746  0.1311 -0.1429 -0.3177
  284loPI   C2B 4542   6.505   6.291   9.372 -0.3291 -0.1014 -0.2448
  284loPI   C3B 4543   6.595   6.275   9.040 -0.0591 -0.2426  0.0982
  284loPI   C4B 4544   7.108   6.248   8.991  0.0205 -0.1091  0.0294
  285loPI    C1 4545  17.499  15.988  10.627  0.0505  0.0618  0.1425
  285loPI    C2 4546  17.432  16.204  10.957 -0.0487  0.0693  0.1181
  285loPI    C3 4547  17.354  16.360  10.597 -0.0667  0.0131  0.0977
  285loPI   PO4 4548  17.695  15.833  10.641  0.3409  0.0395 -0.0846
  285loPI   GL1 4549  18.000  15.895  10.380  0.3363 -0.1570  0.4076
  285loPI   GL2 4550  17.676  15.722  10.165 -0.0620 -0.1968 -0.1176
  285loPI   C1A 4551  18.159  15.809   9.990  0.1706  0.0349  0.0109
  285loPI   C2A 4552  18.253  15.674   9.632  0.0359 -0.2801  0.1343
  285loPI   C3A 4553  18.338  15.638   9.225 -0.1616  0.7096  0.1785
  285loPI   C4A 4554  18.369  15.577   8.776 -0.0319 -0.2305  0.1870
  285loPI   C5A 4555  18.452  15.416   8.365 -0.1836 -0.1654  0.3078
  285loPI   C6A 4556  18.793  15.372   8.136 -0.0963 -0.0007 -0.0125
  285loPI   C1B 4557  17.787  15.593   9.711 -0.1053  0.1035 -0.2562
  285loPI   C2B 4558  17.864  15.615   9.279 -0.1338  0.1032  0.0558
  285loPI   C3B 4559  17.841  15.662   8.843  0.0214  0.2210 -0.3504
  285loPI   C4B 4560  17.495  15.527   8.384  0.1836 -0.2561  0.2469
  286loPI    C1 4561   2.359   5.278  11.007 -0.0631  0.2097 -0.2064
  286loPI    C2 4562   2.098   5.273  11.310  0.0599 -0.0503 -0.1014
  286loPI    C3 4563   2.418   5.512  11.326  0.1979 -0.2444  0.0894
  286loPI   PO4 4564   2.249   5.343  10.789 -0.3535 -0.2968  0.1634
  286loPI   GL1 4565   2.229   5.572  10.499  0.1010  0.4674  0.1034
  286loPI   GL2 4566   1.972   5.731  10.251 -0.0845 -0.2455  0.2851
  286loPI   C1A 4567   2.414   5.285  10.159  0.0262 -0.1909 -0.0275
  286loPI   C2A 4568   2.596   5.073   9.903  0.0623  0.1669 -0.3426
  286loPI   C3A 4569   2.662   5.123   9.442  0.0849  0.2288 -0.2082
  286loPI   C4A 4570   2.730   5.106   9.018 -0.2216 -0.2785  0.0229
  286loPI   C5A 4571   2.612   5.112   8.578 -0.3368  0.1806 -0.1031
  286loPI   C6A 4572   2.308   5.135   8.171 -0.2805 -0.0549 -0.1342
  286loPI   C1B 4573   1.963   5.636   9.817  0.0912 -0.0136  0.2482
  286loPI   C2B 4574   1.946   5.536   9.348  0.2924 -0.0754 -0.0305
  286loPI   C3B 4575   1.910   5.512   8.933 -0.1303  0.0797 -0.2477
  286loPI   C4B 4576   2.013   5.725   8.403  0.3750  0.0994  0.3852
  287loPI    C1 4577   3.305   1.572  10.703 -0.0343 -0.2139  0.3259
  287loPI    C2 4578   3.116   1.332  10.962  0.1837 -0.1856  0.5143
  287loPI    C3 4579   3.288   1.669  11.091  0.0871 -0.0491  0.2907
  287loPI   PO4 4580   3.414   1.451  10.575  0.1859  0.2365  0.2302
  287loPI   GL1 4581   3.569   1.352  10.170  0.2248  0.0370 -0.1139
  287loPI   GL2 4582   3.797   1.161  10.280  0.1382  0.1026 -0.3701
  287loPI   C1A 4583   3.617   1.401   9.659  0.0483  0.0237 -0.0452
  287loPI   C2A 4584   3.691   1.458   9.343 -0.1599 -0.1604 -0.0585
  287loPI   C3A 4585   3.648   1.401   8.876 -0.0870  0.0344  0.1818
  287loPI   C4A 4586   3.729   1.331   8.436  0.1888  0.3664 -0.0522
  287loPI   C5A 4587   3.902   0.890   8.281  0.1537 -0.0749  0.1363
  287loPI   C6A 4588   4.314   0.753   8.186 -0.0731  0.2713 -0.3611
  287loPI   C1B 4589   3.875   0.978   9.877 -0.0502 -0.0205 -0.1724
  287loPI   C2B 4590   3.975   0.908   9.450  0.0794  0.0570  0.1506
  287loPI   C3B 4591   3.857   0.894   9.113 -0.0335 -0.0155  0.1139
  287loPI   C4B 4592   3.946   0.982   8.760 -0.0893 -0.1475 -0.0973
  288loPI    C1 4593  13.282   2.810  10.597  0.1127 -0.0419 -0.0815
  288loPI    C2 4594  13.654   2.850  10.740  0.1049  0.1378 -0.1095
  288loPI    C3 4595  13.346   3.017  10.933  0.0099 -0.1935  0.0329
  288loPI   PO4 4596  13.248   2.552  10.565  0.2360  0.1805 -0.1053
  288loPI   GL1 4597  13.111   2.385  10.103  0.0950  0.0294 -0.0573
  288loPI   GL2 4598  13.133   2.746  10.105  0.3729 -0.1042 -0.1329
  288loPI   C1A 4599  13.114   2.403   9.698  0.0071  0.1605  0.0121
  288loPI   C2A 4600  13.061   2.436   9.223 -0.0082  0.2844 -0.1478
  288loPI   C3A 4601  12.956   2.432   8.804 -0.1745  0.0769 -0.0040
  288loPI   C4A 4602  12.862   2.207   8.411 -0.3820  0.1982  0.1910
  288loPI   C5A 4603  12.784   1.834   8.054 -0.1314 -0.1229 -0.0364
  288loPI   C6A 4604  12.825   1.403   8.054 -0.1021  0.1367 -0.4330
  288loPI   C1B 4605  13.166   2.884   9.709 -0.1509  0.0743  0.0452
  288loPI   C2B 4606  13.129   2.910   9.198  0.0307 -0.3758  0.0212
  288loPI   C3B 4607  12.998   2.907   8.758 -0.0524  0.1778  0.1929
  288loPI   C4B 4608  12.935   2.716   8.280  0.0286 -0.1527 -0.2441
  289loPI    C1 4609   8.009  14.667  10.829  0.1297  0.1437  0.2165
  289loPI    C2 4610   8.271  14.813  11.093  0.3280 -0.2505  0.2465
  289loPI    C3 4611   7.957  14.600  11.220  0.1106  0.0338  0.1956
  289loPI   PO4 4612   8.092  14.598  10.635  0.0834 -0.0078 -0.2474
  289loPI   GL1 4613   8.111  14.725  10.236 -0.0071 -0.0067  0.1684
  289loPI   GL2 4614   8.512  14.772  10.079 -0.1957 -0.1537  0.1800
  289loPI   C1A 4615   8.115  14.876   9.772 -0.0034 -0.1611  0.0435
  289loPI   C2A 4616   8.046  14.793   9.378 -0.1080 -0.1134 -0.2359
  289loPI   C3A 4617   8.091  14.771   8.931 -0.2880 -0.1968  0.1209
  289loPI   C4A 4618   8.081  14.789   8.548  0.2532 -0.0140  0.0035
  289loPI   C5A 4619   8.193  14.991   8.263  0.3809  0.4510  0.0281
  289loPI   C6A 4620   8.132  15.367   8.211 -0.0591 -0.0479 -0.0602
  289loPI   C1B 4621   8.618  14.768   9.647 -0.0427  0.0331  0.0940
  289loPI   C2B 4622   8.534  14.725   9.205 -0.2690  0.0780 -0.1502
  289loPI   C3B 4623   8.558  14.616   8.810  0.2451  0.1737 -0.1626
  289loPI   C4B 4624   8.584  14.613   8.449 -0.1167 -0.3337  0.1807
  290loPI    C1 4625   3.811  12.160  10.421 -0.1958  0.1122 -0.0964
  290loPI    C2 4626   3.631  11.845  10.590  0.0393 -0.0183 -0.0841
  290loPI    C3 4627   3.934  12.026  10.778 -0.1205  0.2431 -0.0726
  290loPI   PO4 4628   3.873  12.089  10.208 -0.1025 -0.1078 -0.1078
  290loPI   GL1 4629   3.711  11.911   9.824  0.0156 -0.0470  0.2584
  290loPI   GL2 4630   3.681  11.662  10.034 -0.1679  0.1764 -0.0355
  290loPI   C1A 4631   3.482  11.831   9.438 -0.2381 -0.0445 -0.0396
  290loPI   C2A 4632   3.774  11.648   9.145  0.3845  0.3307  0.0525
  290loPI   C3A 4633   3.864  11.707   8.774  0.2571 -0.0732 -0.1106
  290loPI   C4A 4634   3.636  11.751   8.483  0.0416 -0.2300  0.0187
  290loPI   C5A 4635   3.575  11.539   8.145 -0.0379  0.2843  0.1469
  290loPI   C6A 4636   3.244  11.222   7.921  0.1004  0.3494  0.0397
  290loPI   C1B 4637   3.881  11.462   9.601  0.0139 -0.1116 -0.0276
  290loPI   C2B 4638   4.004  11.235   9.268  0.0358  0.0389 -0.1456
  290loPI   C3B 4639   4.001  11.266   8.905  0.0079 -0.2375  0.1970
  290loPI   C4B 4640   3.950  11.277   8.457 -0.3872  0.0337  0.0371
  291loPI    C1 4641  10.196   4.658  10.970 -0.0678  0.0155 -0.0194
  291loPI    C2 4642  10.006   4.951  11.165  0.1994  0.0494  0.1961
  291loPI    C3 4643  10.390   4.874  11.245  0.1987 -0.2041 -0.0310
  291loPI   PO4 4644  10.148   4.691  10.687 -0.2900 -0.1883  0.3697
  291loPI   GL1 4645  10.082   4.498  10.339 -0.1322  0.0912  0.0817
  291loPI   GL2 4646  10.331   4.410  10.097 -0.0274 -0.1233  0.0176
  291loPI   C1A 4647   9.982   4.861  10.043  0.2309 -0.2245  0.1716
  291loPI   C2A 4648   9.983   4.795   9.673  0.0584  0.1369  0.2117
  291loPI   C3A 4649   9.920   4.857   9.299 -0.1115  0.0875  0.0886
  291loPI   C4A 4650   9.949   5.002   8.826 -0.0744 -0.1536  0.1953
  291loPI   C5A 4651   9.834   4.723   8.427  0.1318  0.0146 -0.1086
  291loPI   C6A 4652   9.956   4.333   8.206  0.0805  0.0293 -0.1653
  291loPI   C1B 4653  10.231   4.345   9.661  0.0493  0.0743  0.0555
  291loPI   C2B 4654  10.226   4.390   9.255  0.0083 -0.1076  0.1501
  291loPI   C3B 4655  10.135   4.508   8.901  0.0586 -0.0737  0.1800
  291loPI   C4B 4656  10.277   4.360   8.582 -0.0020 -0.0332 -0.2068
  292loPI    C1 4657  12.058  15.010  10.470  0.1440 -0.0084  0.0814
  292loPI    C2 4658  11.772  15.275  10.382 -0.1230 -0.3410 -0.0761
  292loPI    C3 4659  11.810  15.138  10.756 -0.0835 -0.1992 -0.0276
  292loPI   PO4 4660  12.051  14.792  10.276  0.1212 -0.1264 -0.2611
  292loPI   GL1 4661  12.089  14.902   9.860  0.3112  0.3017 -0.0198
  292loPI   GL2 4662  11.985  15.189   9.940 -0.1701 -0.1569  0.0789
  292loPI   C1A 4663  12.036  14.992   9.454  0.2962 -0.0233  0.3433
  292loPI   C2A 4664  12.086  15.017   9.001  0.1431 -0.1638 -0.0868
  292loPI   C3A 4665  12.151  14.909   8.566 -0.0769  0.2466 -0.1972
  292loPI   C4A 4666  12.342  14.767   8.177 -0.0425 -0.2896  0.3348
  292loPI   C5A 4667  12.435  14.333   8.081 -0.0804 -0.0069 -0.0453
  292loPI   C6A 4668  12.482  13.875   8.309  0.1631 -0.0746  0.3188
  292loPI   C1B 4669  12.040  15.525   9.579  0.2854  0.1005 -0.1851
  292loPI   C2B 4670  11.821  15.450   9.099 -0.0976  0.1234  0.0706
  292loPI   C3B 4671  11.874  15.363   8.655 -0.2653  0.1343 -0.0999
  292loPI   C4B 4672  11.604  15.630   8.451 -0.2284 -0.0077  0.2161
  293loPI    C1 4673   9.702  13.518  10.542  0.2863 -0.0415 -0.0278
  293loPI    C2 4674   9.985  13.730  10.729  0.2854 -0.1067  0.0485
  293loPI    C3 4675   9.913  13.353  10.839 -0.0400  0.0063  0.2365
  293loPI   PO4 4676   9.330  13.653  10.313  0.0542  0.0776 -0.1159
  293loPI   GL1 4677   9.195  13.730   9.965 -0.0281 -0.1275  0.0710
  293loPI   GL2 4678   9.183  13.949   9.886 -0.2714  0.4189  0.0097
  293loPI   C1A 4679   8.809  13.422   9.825  0.0572  0.1461 -0.1427
  293loPI   C2A 4680   8.627  13.371   9.334  0.1226  0.3852  0.0092
  293loPI   C3A 4681   8.594  13.399   8.935 -0.0011  0.1936 -0.2051
  293loPI   C4A 4682   8.569  13.357   8.530  0.0798  0.0841  0.1007
  293loPI   C5A 4683   8.526  13.231   8.069  0.0026  0.0997 -0.0458
  293loPI   C6A 4684   8.332  13.073   7.633  0.3237 -0.1822 -0.0425
  293loPI   C1B 4685   8.935  13.776   9.481 -0.4212  0.0608  0.0825
  293loPI   C2B 4686   9.039  13.670   9.089  0.0973 -0.0584 -0.0309
  293loPI   C3B 4687   9.026  13.623   8.684  0.2788  0.0436  0.2448
  293loPI   C4B 4688   9.039  13.453   8.288 -0.3239  0.2454  0.1948
  294loPI    C1 4689  10.099   9.003  10.773 -0.2468  0.1218  0.0972
  294loPI    C2 4690  10.279   9.300  10.575 -0.0191 -0.0788 -0.0006
  294loPI    C3 4691  10.302   9.283  10.974  0.0974 -0.0489 -0.0055
  294loPI   PO4 4692  10.099   8.851  10.532  0.2491 -0.1195  0.2103
  294loPI   GL1 4693   9.899   8.760  10.157 -0.0512 -0.2609  0.2933
  294loPI   GL2 4694   9.584   8.923  10.028  0.0133 -0.1186 -0.0679
  294loPI   C1A 4695   9.925   8.780   9.687  0.0826 -0.2956  0.0681
  294loPI   C2A 4696   9.791   8.833   9.276 -0.1631 -0.0920 -0.1929
  294loPI   C3A 4697   9.788   8.841   8.850 -0.0203  0.0525 -0.1280
  294loPI   C4A 4698   9.848   8.845   8.348 -0.3056 -0.1518 -0.1797
  294loPI   C5A 4699  10.035   9.031   8.025 -0.0386  0.1333  0.3259
  294loPI   C6A 4700  10.448   9.206   7.902 -0.2938 -0.1932  0.0260
  294loPI   C1B 4701   9.431   8.868   9.624 -0.1843 -0.2240  0.0404
  294loPI   C2B 4702   9.308   8.847   9.175  0.2490 -0.0279 -0.1647
  294loPI   C3B 4703   9.318   8.801   8.847  0.2185 -0.0692 -0.1561
  294loPI   C4B 4704   9.309   8.827   8.481 -0.2999  0.1062  0.2054
  295loPI    C1 4705   2.866  10.722  10.386 -0.2218  0.1140  0.0533
  295loPI    C2 4706   2.843  10.835  10.769 -0.3040  0.1431  0.0401
  295loPI    C3 4707   2.592  10.991  10.499 -0.1712  0.2086 -0.0468
  295loPI   PO4 4708   3.177  10.659  10.308 -0.0068 -0.0105  0.2022
  295loPI   GL1 4709   3.182  10.704   9.822  0.1103 -0.2220 -0.2881
  295loPI   GL2 4710   2.904  10.715   9.876  0.1445  0.1771  0.0426
  295loPI   C1A 4711   3.093  10.786   9.335 -0.2179  0.0007 -0.0190
  295loPI   C2A 4712   3.139  10.822   8.874  0.1337  0.1322 -0.1070
  295loPI   C3A 4713   3.081  10.813   8.394 -0.1717 -0.0021 -0.2666
  295loPI   C4A 4714   3.245  10.449   8.131 -0.2688 -0.0440 -0.2419
  295loPI   C5A 4715   3.523  10.337   7.802 -0.0753 -0.1147  0.3297
  295loPI   C6A 4716   3.898  10.448   7.725  0.1289  0.0027  0.3975
  295loPI   C1B 4717   2.613  10.805   9.531 -0.1152 -0.0417  0.1728
  295loPI   C2B 4718   2.663  10.787   9.099  0.1204 -0.1093 -0.0919
  295loPI   C3B 4719   2.655  10.920   8.707 -0.0204  0.1073 -0.3538
  295loPI   C4B 4720   2.567  10.763   8.303  0.1914  0.1558 -0.2636
  296loPI    C1 4721   5.334   2.751  10.927 -0.3895 -0.1248 -0.0123
  296loPI    C2 4722   5.221   2.406  11.094 -0.2127 -0.0381  0.2941
  296loPI    C3 4723   5.605   2.519  11.108 -0.2091  0.0121 -0.1028
  296loPI   PO4 4724   5.296   2.722  10.675 -0.0196  0.1029  0.2429
  296loPI   GL1 4725   5.094   2.561  10.210 -0.1519  0.0843 -0.0660
  296loPI   GL2 4726   5.502   2.572  10.185 -0.2299  0.2516  0.3286
  296loPI   C1A 4727   5.028   2.699   9.720 -0.1363  0.2248 -0.1089
  296loPI   C2A 4728   5.015   2.687   9.299 -0.1298  0.0303 -0.3103
  296loPI   C3A 4729   4.975   2.764   8.851 -0.0762 -0.3163  0.3067
  296loPI   C4A 4730   4.915   2.764   8.449 -0.3412  0.1878 -0.0075
  296loPI   C5A 4731   5.238   2.732   8.163  0.1218  0.0808 -0.2854
  296loPI   C6A 4732   5.348   2.735   7.767 -0.0327 -0.1114 -0.1624
  296loPI   C1B 4733   5.571   2.663   9.712  0.3082  0.3000 -0.1569
  296loPI   C2B 4734   5.539   2.695   9.203 -0.2376  0.0508  0.0530
  296loPI   C3B 4735   5.518   2.792   8.703 -0.0849 -0.1160 -0.0465
  296loPI   C4B 4736   5.820   2.736   8.367 -0.0508 -0.0667 -0.0514
  297loPI    C1 4737   9.211   1.011  10.640 -0.0523 -0.0109 -0.1089
  297loPI    C2 4738   9.094   0.672  10.818  0.0748  0.0760  0.1455
  297loPI    C3 4739   8.947   1.023  10.941  0.1098  0.1318  0.0297
  297loPI   PO4 4740   9.207   0.930  10.401  0.0633 -0.0582 -0.0618
  297loPI   GL1 4741   9.250   0.899  10.036 -0.1313 -0.0596  0.3290
  297loPI   GL2 4742   9.002   1.213  10.066 -0.0162  0.0554  0.4126
  297loPI   C1A 4743   8.975   0.757   9.710  0.1444 -0.0380  0.0015
  297loPI   C2A 4744   8.810   0.392   9.454 -0.3243  0.4422  0.1940
  297loPI   C3A 4745   8.839   0.144   9.032  0.1225 -0.0406 -0.0610
  297loPI   C4A 4746   8.919  -0.095   8.750 -0.0576  0.1073  0.0368
  297loPI   C5A 4747   8.954  -0.494   8.536 -0.1890  0.2380 -0.0035
  297loPI   C6A 4748   8.746  -0.821   8.232  0.1584 -0.1149 -0.0295
  297loPI   C1B 4749   8.766   1.279   9.698  0.2650 -0.2183  0.1308
  297loPI   C2B 4750   8.852   1.238   9.282  0.1087 -0.0326  0.1616
  297loPI   C3B 4751   8.752   1.147   8.842  0.0636  0.1072  0.0290
  297loPI   C4B 4752   8.639   0.992   8.472 -0.2278  0.0390  0.2013
  298loPI    C1 4753  16.900   4.959  10.654 -0.1851  0.0035  0.2025
  298loPI    C2 4754  17.051   4.589  10.676 -0.0416  0.0373 -0.1383
  298loPI    C3 4755  17.261   4.900  10.817 -0.0876  0.0097 -0.0072
  298loPI   PO4 4756  16.897   5.020  10.407  0.1823  0.0431  0.0279
  298loPI   GL1 4757  16.972   5.164  10.007  0.1771 -0.0026 -0.0528
  298loPI   GL2 4758  17.086   5.424   9.798 -0.0258  0.1733  0.1429
  298loPI   C1A 4759  16.979   4.916   9.648  0.2721 -0.2885  0.2301
  298loPI   C2A 4760  16.958   4.898   9.096 -0.1190 -0.0923  0.0303
  298loPI   C3A 4761  16.883   4.985   8.631  0.2282 -0.0004 -0.2093
  298loPI   C4A 4762  16.721   4.987   8.261  0.2033 -0.2223 -0.0524
  298loPI   C5A 4763  16.557   4.777   7.924 -0.0034  0.1104  0.1405
  298loPI   C6A 4764  16.260   4.648   7.645  0.1001  0.0458  0.1753
  298loPI   C1B 4765  17.321   5.309   9.459 -0.0436 -0.1336  0.0185
  298loPI   C2B 4766  17.403   5.133   9.037  0.0153  0.1376 -0.1803
  298loPI   C3B 4767  17.323   5.091   8.632 -0.2126 -0.0939  0.2140
  298loPI   C4B 4768  17.344   5.164   8.180  0.0887 -0.1042  0.2867
  299loPI    C1 4769  13.519  18.017  10.511 -0.0252  0.2111  0.0069
  299loPI    C2 4770  13.858  18.050  10.721 -0.1365 -0.1810  0.2603
  299loPI    C3 4771  13.505  18.112  10.900 -0.2080  0.1165  0.0247
  299loPI   PO4 4772  13.535  18.199  10.256  0.1854  0.0421  0.1974
  299loPI   GL1 4773  13.744  18.003   9.851  0.0290 -0.0266  0.0270
  299loPI   GL2 4774  13.510  18.143   9.696 -0.0852  0.3864 -0.0437
  299loPI   C1A 4775  13.717  17.699   9.507 -0.3086 -0.0251  0.0968
  299loPI   C2A 4776  13.584  17.509   9.246  0.0327 -0.1911  0.2588
  299loPI   C3A 4777  13.542  17.495   8.810 -0.1721  0.0474  0.2384
  299loPI   C4A 4778  13.577  17.402   8.402 -0.2881  0.3280 -0.2945
  299loPI   C5A 4779  13.437  17.159   8.119  0.2682 -0.1655 -0.0278
  299loPI   C6A 4780  13.338  16.803   7.828  0.0921  0.0762  0.0665
  299loPI   C1B 4781  13.555  18.349   9.275  0.1254  0.0923 -0.0995
  299loPI   C2B 4782  13.425  18.371   8.926  0.1446 -0.1239  0.1461
  299loPI   C3B 4783  13.181  18.315   8.512  0.1676 -0.2235  0.2564
  299loPI   C4B 4784  12.980  17.978   8.156 -0.1276 -0.0042 -0.1247
  300loPI    C1 4785  10.991  11.597  10.610 -0.1391  0.3658 -0.1439
  300loPI    C2 4786  11.098  11.835  10.913  0.1814  0.1419 -0.0756
  300loPI    C3 4787  10.897  11.497  10.986  0.0007  0.2333 -0.1431
  300loPI   PO4 4788  11.160  11.521  10.470 -0.2701 -0.4856  0.1083
  300loPI   GL1 4789  11.198  11.626  10.088  0.1842  0.0953 -0.0004
  300loPI   GL2 4790  11.104  11.372   9.982  0.1322 -0.3046  0.1585
  300loPI   C1A 4791  11.408  11.870   9.692 -0.0579 -0.3125  0.2404
  300loPI   C2A 4792  11.438  11.916   9.193  0.3571 -0.1195 -0.1546
  300loPI   C3A 4793  11.679  12.034   8.823 -0.1669 -0.1155 -0.0086
  300loPI   C4A 4794  11.810  12.229   8.430  0.1198 -0.0073 -0.0329
  300loPI   C5A 4795  12.320  12.300   8.270  0.1415  0.1174 -0.0748
  300loPI   C6A 4796  12.683  12.147   8.316  0.1953  0.0385  0.0017
  300loPI   C1B 4797  11.138  11.483   9.611 -0.0228  0.3613 -0.1230
  300loPI   C2B 4798  11.133  11.437   9.164 -0.0336  0.0472  0.0589
  300loPI   C3B 4799  11.198  11.677   8.761  0.0268 -0.0171  0.0079
  300loPI   C4B 4800  11.304  11.979   8.492  0.1557 -0.0246 -0.1965
  301loPI    C1 4801  15.301   1.686  10.494 -0.4044 -0.0097 -0.1043
  301loPI    C2 4802  15.355   2.068  10.600  0.0804 -0.0371 -0.2258
  301loPI    C3 4803  15.264   1.794  10.877  0.0582  0.1094 -0.0868
  301loPI   PO4 4804  15.396   1.623  10.385 -0.0866 -0.2001  0.0710
  301loPI   GL1 4805  15.430   1.441  10.038  0.4310 -0.1462 -0.1778
  301loPI   GL2 4806  15.241   1.245   9.896  0.6378  0.0288 -0.0951
  301loPI   C1A 4807  15.654   1.326   9.711 -0.0164 -0.4213  0.2433
  301loPI   C2A 4808  15.717   1.409   9.246 -0.0281  0.2066 -0.1656
  301loPI   C3A 4809  15.478   1.455   8.926 -0.0089 -0.1161  0.1870
  301loPI   C4A 4810  15.465   1.291   8.649  0.0637  0.2292  0.4394
  301loPI   C5A 4811  15.504   1.227   8.142 -0.1430 -0.2475  0.2084
  301loPI   C6A 4812  15.513   1.001   7.747  0.1289 -0.0937  0.0126
  301loPI   C1B 4813  15.122   1.250   9.446 -0.1368 -0.1797  0.0879
  301loPI   C2B 4814  15.024   1.162   9.037  0.0516  0.2358 -0.0307
  301loPI   C3B 4815  14.992   1.088   8.697 -0.0285  0.0454 -0.0888
  301loPI   C4B 4816  15.249   0.934   8.385 -0.0959 -0.0073 -0.4260
  302loPI    C1 4817   6.867  13.498  10.698  0.0109 -0.2019  0.2360
  302loPI    C2 4818   6.646  13.690  10.970  0.0845  0.0569  0.1159
  302loPI    C3 4819   6.960  13.471  11.086 -0.0100 -0.0064  0.2554
  302loPI   PO4 4820   6.643  13.415  10.528 -0.1325  0.2252 -0.1262
  302loPI   GL1 4821   6.620  13.376  10.138 -0.2416  0.1426 -0.3033
  302loPI   GL2 4822   6.823  13.234   9.956  0.2432  0.0093  0.0831
  302loPI   C1A 4823   6.814  13.674   9.756 -0.0029 -0.1154 -0.0701
  302loPI   C2A 4824   6.858  13.884   9.378 -0.0660  0.0513  0.2116
  302loPI   C3A 4825   6.896  14.000   8.944 -0.1259  0.0146 -0.1934
  302loPI   C4A 4826   6.862  14.025   8.536  0.0269 -0.0910 -0.2033
  302loPI   C5A 4827   6.708  14.091   8.220  0.0504  0.0482  0.1223
  302loPI   C6A 4828   6.628  14.060   7.820 -0.0687  0.1170 -0.2809
  302loPI   C1B 4829   6.772  13.000   9.481  0.0213  0.3428 -0.0732
  302loPI   C2B 4830   6.859  13.068   9.053 -0.0194 -0.2968  0.1719
  302loPI   C3B 4831   6.853  13.155   8.572 -0.0663 -0.1407  0.2469
  302loPI   C4B 4832   6.884  13.367   8.116 -0.3065 -0.0309  0.1119
  303loPI    C1 4833   8.064   2.988  11.204 -0.0377  0.0104  0.0041
  303loPI    C2 4834   7.953   2.702  10.948 -0.0748  0.1094 -0.0913
  303loPI    C3 4835   8.057   2.606  11.322 -0.2344 -0.0120 -0.0769
  303loPI   PO4 4836   8.015   3.228  10.911  0.2727  0.2415 -0.0002
  303loPI   GL1 4837   7.835   3.114  10.507  0.1442  0.2125  0.1489
  303loPI   GL2 4838   7.940   3.336  10.382 -0.0887 -0.3056 -0.1779
  303loPI   C1A 4839   7.602   2.724  10.179  0.0631  0.0011  0.0741
  303loPI   C2A 4840   7.455   2.674   9.786  0.0515 -0.0194  0.1434
  303loPI   C3A 4841   7.543   2.638   9.383 -0.2569  0.0190 -0.0334
  303loPI   C4A 4842   7.622   2.659   8.879  0.1036  0.1388 -0.3500
  303loPI   C5A 4843   7.801   2.847   8.447  0.3050  0.1061 -0.1259
  303loPI   C6A 4844   7.644   3.145   8.147 -0.0934  0.1669  0.3120
  303loPI   C1B 4845   7.830   3.130   9.996  0.1353 -0.1271  0.2517
  303loPI   C2B 4846   7.766   3.072   9.519 -0.2185  0.2586  0.3131
  303loPI   C3B 4847   7.914   3.081   9.066 -0.0829  0.2992 -0.2578
  303loPI   C4B 4848   8.197   2.993   8.740  0.0749 -0.1302 -0.1510
  304loPI    C1 4849  14.412  11.707  11.021 -0.0850 -0.0320 -0.0848
  304loPI    C2 4850  14.381  12.079  11.165  0.2267 -0.0534  0.0451
  304loPI    C3 4851  14.556  11.793  11.384  0.0095 -0.2730 -0.0631
  304loPI   PO4 4852  14.175  11.728  10.805  0.2521  0.1425 -0.0595
  304loPI   GL1 4853  14.211  11.863  10.450 -0.1014 -0.0377  0.1094
  304loPI   GL2 4854  14.074  11.583  10.283 -0.2079 -0.0558 -0.1432
  304loPI   C1A 4855  14.398  11.953  10.099  0.1648  0.0391 -0.1336
  304loPI   C2A 4856  14.435  12.014   9.730  0.0462 -0.2128  0.1607
  304loPI   C3A 4857  14.427  12.043   9.134  0.1038 -0.0077 -0.0786
  304loPI   C4A 4858  14.453  11.978   8.649  0.0062  0.0858  0.0223
  304loPI   C5A 4859  14.725  12.116   8.288 -0.1900 -0.1251 -0.0284
  304loPI   C6A 4860  15.150  12.159   8.110 -0.3744 -0.5074  0.2953
  304loPI   C1B 4861  14.093  11.614   9.865  0.2697 -0.0335  0.2359
  304loPI   C2B 4862  14.066  11.507   9.476  0.0944 -0.0800 -0.4458
  304loPI   C3B 4863  14.053  11.577   9.011 -0.0384  0.2021 -0.3536
  304loPI   C4B 4864  13.999  11.585   8.554 -0.2612 -0.0979 -0.2424
  305loPI    C1 4865  15.525  16.032  10.861 -0.2540 -0.0069 -0.0633
  305loPI    C2 4866  15.361  15.784  10.594 -0.1843 -0.1336  0.0103
  305loPI    C3 4867  15.645  15.651  10.842 -0.2180 -0.0060  0.1189
  305loPI   PO4 4868  15.648  16.296  10.696  0.0458  0.3645  0.0430
  305loPI   GL1 4869  15.587  16.722  10.362  0.1028 -0.3492  0.0667
  305loPI   GL2 4870  15.858  16.478  10.266  0.1038 -0.2110  0.2989
  305loPI   C1A 4871  15.629  17.084  10.018  0.0148 -0.1327  0.1760
  305loPI   C2A 4872  15.692  17.122   9.505  0.6150 -0.0538  0.0307
  305loPI   C3A 4873  15.552  17.227   9.141  0.4735  0.1822  0.0797
  305loPI   C4A 4874  15.552  17.329   8.645 -0.1563  0.0006  0.1296
  305loPI   C5A 4875  15.322  17.419   8.267 -0.2476  0.3691 -0.1357
  305loPI   C6A 4876  14.952  17.606   8.168  0.0886  0.0768  0.0283
  305loPI   C1B 4877  15.744  16.559   9.801  0.0472 -0.1866 -0.1167
  305loPI   C2B 4878  15.770  16.641   9.411  0.0919  0.0800 -0.1441
  305loPI   C3B 4879  15.860  16.820   9.106 -0.0146 -0.1462  0.0836
  305loPI   C4B 4880  15.804  16.825   8.730 -0.0022 -0.0588 -0.0802
  306loPI    C1 4881  10.963  12.083  10.463 -0.0332  0.0669 -0.0699
  306loPI    C2 4882  11.136  12.202  10.122 -0.0209 -0.1352 -0.1354
  306loPI    C3 4883  11.354  12.020  10.404 -0.0229  0.0651 -0.0020
  306loPI   PO4 4884  10.807  12.326  10.525  0.1041 -0.0657 -0.0339
  306loPI   GL1 4885  10.612  12.397  10.045  0.0225 -0.1463  0.4076
  306loPI   GL2 4886  10.594  12.103   9.926 -0.1687 -0.0706 -0.0001
  306loPI   C1A 4887  10.912  12.517   9.685 -0.3986  0.1710 -0.1655
  306loPI   C2A 4888  11.298  12.709   9.490 -0.2218 -0.2521 -0.0205
  306loPI   C3A 4889  11.476  12.914   9.107  0.4412  0.0634 -0.3375
  306loPI   C4A 4890  11.437  13.233   8.786  0.0974 -0.0584  0.2875
  306loPI   C5A 4891  11.512  13.089   8.393 -0.0125 -0.2446  0.1119
  306loPI   C6A 4892  11.740  12.783   8.258 -0.0278 -0.2791  0.1333
  306loPI   C1B 4893  10.601  12.056   9.483  0.1140 -0.1298 -0.1278
  306loPI   C2B 4894  10.974  12.016   9.177 -0.0888  0.1444  0.1644
  306loPI   C3B 4895  11.251  12.371   8.886  0.4360 -0.0922 -0.2456
  306loPI   C4B 4896  11.239  12.523   8.425  0.0154 -0.1217 -0.0298
  307loPI    C1 4897  15.578   0.585  10.608 -0.1783 -0.0156  0.0378
  307loPI    C2 4898  15.300   0.640  10.325 -0.2126 -0.1391  0.0472
  307loPI    C3 4899  15.478   0.284  10.364  0.0088 -0.0368 -0.0140
  307loPI   PO4 4900  15.724   0.798  10.583  0.1403  0.0481  0.0300
  307loPI   GL1 4901  15.824   0.936  10.196 -0.3670  0.3979  0.2364
  307loPI   GL2 4902  16.086   1.137   9.997 -0.2517  0.0211  0.0827
  307loPI   C1A 4903  15.551   0.839   9.876 -0.1191  0.1119 -0.5026
  307loPI   C2A 4904  15.493   0.824   9.468 -0.0838 -0.0009  0.0671
  307loPI   C3A 4905  15.492   0.880   8.980  0.1661  0.0302 -0.0844
  307loPI   C4A 4906  15.365   0.610   8.751  0.1006 -0.0419 -0.0108
  307loPI   C5A 4907  15.310   0.378   8.323 -0.0966  0.0946  0.1384
  307loPI   C6A 4908  15.252   0.203   7.941 -0.0554  0.2419  0.1152
  307loPI   C1B 4909  15.998   1.006   9.510 -0.0048 -0.0271 -0.1332
  307loPI   C2B 4910  15.983   0.976   9.103  0.0368 -0.1312 -0.0647
  307loPI   C3B 4911  15.866   1.043   8.646  0.1136  0.1726  0.1489
  307loPI   C4B 4912  15.986   1.331   8.275 -0.1366 -0.0171  0.1974
  308loPI    C1 4913   6.650  15.238  11.150 -0.1579  0.0180 -0.2017
  308loPI    C2 4914   6.363  15.084  11.382 -0.0023 -0.1535 -0.1214
  308loPI    C3 4915   6.640  14.845  11.221  0.3170  0.0545  0.1070
  308loPI   PO4 4916   6.577  15.381  10.925  0.0033  0.2913 -0.0445
  308loPI   GL1 4917   6.689  15.353  10.538 -0.1244  0.2305 -0.2761
  308loPI   GL2 4918   6.947  15.361  10.447 -0.0190  0.1460  0.0938
  308loPI   C1A 4919   6.589  15.696  10.213 -0.3559 -0.0767  0.1652
  308loPI   C2A 4920   6.637  15.738   9.799  0.0892  0.1126  0.1293
  308loPI   C3A 4921   6.576  15.840   9.386  0.0411 -0.1299  0.0292
  308loPI   C4A 4922   6.514  15.864   8.919  0.0027 -0.0023 -0.0046
  308loPI   C5A 4923   6.642  15.987   8.480 -0.1117 -0.0468 -0.1141
  308loPI   C6A 4924   6.971  16.005   8.248 -0.1469 -0.3489  0.2056
  308loPI   C1B 4925   7.221  15.135  10.142  0.0575 -0.2049  0.0929
  308loPI   C2B 4926   7.286  15.099   9.682 -0.0087 -0.1363 -0.2746
  308loPI   C3B 4927   7.315  15.304   9.329 -0.0839  0.0637  0.0435
  308loPI   C4B 4928   7.351  15.286   8.858  0.0048  0.3692  0.4905
  309loPI    C1 4929   8.485  11.726  10.417 -0.2275 -0.0576  0.1077
  309loPI    C2 4930   8.386  11.625  10.791  0.2689 -0.1086  0.2323
  309loPI    C3 4931   8.735  11.504  10.637  0.2206  0.1956 -0.1307
  309loPI   PO4 4932   8.318  11.725  10.288 -0.1085 -0.1640 -0.0809
  309loPI   GL1 4933   8.256  11.910   9.848 -0.0697 -0.3770  0.0791
  309loPI   GL2 4934   8.076  11.724   9.638  0.2279  0.1200  0.1092
  309loPI   C1A 4935   8.381  12.022   9.436 -0.0459 -0.0636  0.1951
  309loPI   C2A 4936   8.295  12.009   8.987 -0.2775  0.0914 -0.1138
  309loPI   C3A 4937   8.184  12.030   8.558 -0.1166  0.2534  0.3295
  309loPI   C4A 4938   8.073  12.020   8.178 -0.3669  0.5842  0.3028
  309loPI   C5A 4939   8.172  11.813   7.787  0.0058 -0.2727  0.1198
  309loPI   C6A 4940   8.231  11.725   7.402  0.2565 -0.0098 -0.0656
  309loPI   C1B 4941   8.042  11.637   9.304  0.3136 -0.1960  0.0922
  309loPI   C2B 4942   8.062  11.559   8.817  0.1718  0.0170 -0.1056
  309loPI   C3B 4943   7.918  11.636   8.479 -0.0726 -0.3661 -0.0927
  309loPI   C4B 4944   7.821  11.587   8.036 -0.2003  0.0337 -0.1532
  310loPI    C1 4945  14.661  10.202  10.832 -0.0379 -0.1100 -0.0701
  310loPI    C2 4946  14.296  10.097  10.957 -0.1444  0.2064 -0.1062
  310loPI    C3 4947  14.445  10.455  11.053  0.1324  0.1046 -0.1461
  310loPI   PO4 4948  14.687  10.078  10.645 -0.3384  0.2070 -0.0381
  310loPI   GL1 4949  14.400   9.881  10.487 -0.2983  0.2352 -0.1785
  310loPI   GL2 4950  14.061   9.831  10.620 -0.0062 -0.0617 -0.1810
  310loPI   C1A 4951  14.323   9.789  10.151  0.0596  0.3495 -0.1212
  310loPI   C2A 4952  14.321   9.768   9.771  0.0694 -0.1552  0.0838
  310loPI   C3A 4953  14.324   9.860   9.397 -0.1227  0.0230 -0.0449
  310loPI   C4A 4954  14.359   9.853   8.961  0.1815  0.0337 -0.3064
  310loPI   C5A 4955  14.470   9.898   8.500  0.2541 -0.0853 -0.1843
  310loPI   C6A 4956  14.304  10.090   8.193  0.1857  0.1595  0.1543
  310loPI   C1B 4957  13.841   9.774  10.252 -0.2428 -0.2417  0.2111
  310loPI   C2B 4958  13.793   9.880   9.814  0.1023 -0.3058  0.0829
  310loPI   C3B 4959  13.822   9.837   9.390  0.3128 -0.2191  0.0155
  310loPI   C4B 4960  13.903   9.831   8.885 -0.0274 -0.0339 -0.0012
  311loPI    C1 4961   3.060  16.573  10.791 -0.0239 -0.0992 -0.1225
  311loPI    C2 4962   3.442  16.458  10.821  0.0065  0.0779  0.2152
  311loPI    C3 4963   3.204  16.448  11.142 -0.2132  0.1788  0.0581
  311loPI   PO4 4964   2.984  16.501  10.562 -0.1111 -0.1106 -0.0435
  311loPI   GL1 4965   2.792  16.281  10.220  0.1220  0.0642  0.0215
  311loPI   GL2 4966   2.842  16.552  10.054 -0.2810  0.2097 -0.2097
  311loPI   C1A 4967   2.769  16.046   9.834 -0.2199 -0.1430 -0.1964
  311loPI   C2A 4968   3.026  15.995   9.542  0.0797 -0.0134  0.0954
  311loPI   C3A 4969   3.027  15.950   9.107 -0.2879 -0.0522 -0.1451
  311loPI   C4A 4970   3.048  15.937   8.710 -0.0814 -0.2316 -0.1044
  311loPI   C5A 4971   3.065  15.906   8.252  0.1494  0.1208  0.2316
  311loPI   C6A 4972   3.250  16.020   7.885 -0.1087  0.0040  0.0319
  311loPI   C1B 4973   2.651  16.520   9.690  0.1694  0.3779 -0.1613
  311loPI   C2B 4974   2.756  16.417   9.264 -0.2835 -0.2538  0.0443
  311loPI   C3B 4975   2.808  16.379   8.950 -0.0608  0.3113 -0.1513
  311loPI   C4B 4976   2.927  16.381   8.446 -0.0309  0.0288 -0.0181
  312loPI    C1 4977  12.964   7.783  10.489  0.0112  0.1502 -0.1248
  312loPI    C2 4978  13.094   7.428  10.358  0.1840  0.1738 -0.0220
  312loPI    C3 4979  13.049   7.492  10.750 -0.1109  0.1774 -0.0540
  312loPI   PO4 4980  12.909   7.884  10.290 -0.1716  0.0840  0.0528
  312loPI   GL1 4981  13.181   8.047   9.977 -0.0673  0.1961 -0.0827
  312loPI   GL2 4982  13.291   7.730  10.023 -0.2170 -0.0533  0.1165
  312loPI   C1A 4983  13.128   8.051   9.501 -0.0315 -0.1850 -0.0793
  312loPI   C2A 4984  13.137   8.098   9.056 -0.1596  0.2070  0.1012
  312loPI   C3A 4985  13.190   8.246   8.631 -0.2790  0.4069  0.1817
  312loPI   C4A 4986  12.962   8.137   8.282  0.1121  0.1377 -0.0696
  312loPI   C5A 4987  12.655   7.849   8.119  0.1179 -0.0616  0.0015
  312loPI   C6A 4988  12.402   7.699   7.880  0.2087 -0.0835  0.0017
  312loPI   C1B 4989  13.261   7.598   9.644 -0.2563  0.0068  0.1636
  312loPI   C2B 4990  13.204   7.621   9.232 -0.3384  0.2262  0.2980
  312loPI   C3B 4991  13.437   7.708   8.908 -0.4033 -0.1774  0.3235
  312loPI   C4B 4992  13.338   7.834   8.466  0.3183 -0.1260  0.1492
  313loPI    C1 4993   6.122  15.502  11.172 -0.2268  0.4783  0.1112
  313loPI    C2 4994   6.079  15.426  11.563  0.1803 -0.0566  0.0653
  313loPI    C3 4995   6.425  15.570  11.424  0.2317 -0.3883 -0.1629
  313loPI   PO4 4996   6.009  15.330  11.079  0.1451  0.0721  0.0851
  313loPI   GL1 4997   5.861  15.337  10.739  0.0035  0.1124 -0.3735
  313loPI   GL2 4998   6.169  15.402  10.620  0.2443 -0.0771  0.2020
  313loPI   C1A 4999   5.589  15.443  10.417  0.1171  0.0279  0.1188
  313loPI   C2A 5000   5.640  15.263   9.968 -0.1016 -0.0315 -0.0185
  313loPI   C3A 5001   5.744  15.315   9.536  0.1882 -0.1036 -0.1782
  313loPI   C4A 5002   5.817  15.438   9.085 -0.0525  0.2168  0.0354
  313loPI   C5A 5003   6.017  15.643   8.698 -0.0600  0.0072  0.3577
  313loPI   C6A 5004   6.026  15.672   8.249 -0.3150 -0.2051 -0.1307
  313loPI   C1B 5005   6.282  15.250  10.284 -0.1196 -0.0385  0.0237
  313loPI   C2B 5006   6.139  15.291   9.839  0.1720  0.0794  0.3011
  313loPI   C3B 5007   6.285  15.341   9.465 -0.0041 -0.3607  0.0256
  313loPI   C4B 5008   6.321  15.425   9.108  0.1935  0.0032  0.0038
  314loPI    C1 5009   9.253   4.464  10.811  0.0631  0.3307  0.0352
  314loPI    C2 5010   8.881   4.581  10.719 -0.0133  0.0079 -0.0806
  314loPI    C3 5011   8.982   4.516  11.101 -0.0165  0.2859 -0.0306
  314loPI   PO4 5012   9.320   4.338  10.579 -0.0680 -0.3286 -0.1038
  314loPI   GL1 5013   9.255   4.332  10.165  0.1027 -0.0322 -0.2304
  314loPI   GL2 5014   8.899   4.464  10.257  0.0894  0.4152  0.2629
  314loPI   C1A 5015   9.344   4.550   9.705 -0.0115 -0.0230  0.1883
  314loPI   C2A 5016   9.382   4.692   9.307 -0.1140  0.0130  0.1715
  314loPI   C3A 5017   9.441   4.832   8.923 -0.3818 -0.0762 -0.0959
  314loPI   C4A 5018   9.523   5.161   8.624  0.0979 -0.1885  0.3524
  314loPI   C5A 5019   9.933   5.295   8.386  0.0125  0.5052  0.4096
  314loPI   C6A 5020  10.157   5.481   8.219 -0.1424 -0.1502  0.0734
  314loPI   C1B 5021   8.703   4.426   9.812  0.0108 -0.1501 -0.0864
  314loPI   C2B 5022   8.258   4.429   9.518 -0.0835 -0.3066 -0.0041
  314loPI   C3B 5023   8.105   4.474   9.084 -0.0703 -0.3223 -0.0343
  314loPI   C4B 5024   8.150   4.339   8.621  0.1815  0.1519  0.1994
  315loPI    C1 5025   1.880  11.208  10.929 -0.1531 -0.0684  0.0339
  315loPI    C2 5026   1.704  11.548  11.045 -0.1402 -0.0105 -0.1136
  315loPI    C3 5027   1.995  11.387  11.267 -0.1357  0.0830 -0.0514
  315loPI   PO4 5028   1.845  11.230  10.610  0.0389  0.2111 -0.2177
  315loPI   GL1 5029   1.783  11.501  10.225  0.1346 -0.0845 -0.0614
  315loPI   GL2 5030   1.761  11.760  10.137 -0.3192 -0.2214 -0.1684
  315loPI   C1A 5031   1.922  11.294   9.910  0.0586 -0.1387  0.2822
  315loPI   C2A 5032   1.935  11.306   9.482 -0.0773  0.1117  0.0162
  315loPI   C3A 5033   1.973  11.421   9.020  0.0265 -0.0108 -0.0988
  315loPI   C4A 5034   1.917  11.497   8.486  0.0531 -0.1870  0.0149
  315loPI   C5A 5035   2.047  11.470   8.123  0.0291  0.3762 -0.0881
  315loPI   C6A 5036   1.910  11.478   7.668 -0.2795 -0.0477 -0.0584
  315loPI   C1B 5037   1.690  11.808   9.749  0.0003  0.0626 -0.0814
  315loPI   C2B 5038   1.727  11.800   9.295 -0.0266 -0.1180  0.1231
  315loPI   C3B 5039   1.841  11.984   8.916 -0.2230  0.0072  0.1669
  315loPI   C4B 5040   1.728  11.947   8.501  0.2861 -0.2450  0.1402
  316loPI    C1 5041   2.994  14.200  10.363 -0.0447 -0.0094 -0.2519
  316loPI    C2 5042   3.215  14.047  10.659 -0.3528 -0.1392 -0.0845
  316loPI    C3 5043   3.163  13.840  10.321 -0.2286 -0.1129 -0.1201
  316loPI   PO4 5044   2.879  14.407  10.490 -0.0731  0.0863  0.3826
  316loPI   GL1 5045   2.525  14.686  10.306  0.0546 -0.1049 -0.2919
  316loPI   GL2 5046   2.642  14.485  10.009 -0.1308 -0.0398  0.2912
  316loPI   C1A 5047   2.501  15.105  10.136  0.2387  0.0643 -0.0179
  316loPI   C2A 5048   2.429  15.214   9.735 -0.1064  0.1138  0.1190
  316loPI   C3A 5049   2.413  15.069   9.267 -0.1328 -0.0225 -0.1782
  316loPI   C4A 5050   2.332  15.066   8.813 -0.2113  0.2249  0.0557
  316loPI   C5A 5051   2.354  15.110   8.382  0.2174  0.0671 -0.1993
  316loPI   C6A 5052   2.404  15.157   7.937  0.1485  0.1563 -0.0868
  316loPI   C1B 5053   2.692  14.604   9.510 -0.0575 -0.2031 -0.0532
  316loPI   C2B 5054   2.644  14.651   9.020  0.0124  0.0806 -0.3638
  316loPI   C3B 5055   2.509  14.687   8.565 -0.0746  0.4850  0.0179
  316loPI   C4B 5056   2.569  14.691   8.104 -0.0886  0.0560  0.0607
  317loPI    C1 5057   3.472   2.407  11.102  0.0114 -0.2967  0.0603
  317loPI    C2 5058   3.074   2.443  11.129  0.0074 -0.2149 -0.0964
  317loPI    C3 5059   3.256   2.118  11.275 -0.1051 -0.2031  0.0726
  317loPI   PO4 5060   3.550   2.438  10.864  0.0997  0.0811 -0.4188
  317loPI   GL1 5061   3.338   2.427  10.453 -0.4034 -0.0913  0.2719
  317loPI   GL2 5062   3.157   2.784  10.308  0.0004  0.2073  0.0793
  317loPI   C1A 5063   3.319   2.386   9.972  0.0727 -0.1007  0.2135
  317loPI   C2A 5064   3.209   2.339   9.621 -0.0241 -0.0835 -0.0591
  317loPI   C3A 5065   3.178   2.339   9.149  0.4577 -0.1189 -0.0568
  317loPI   C4A 5066   3.116   2.370   8.732  0.1244  0.2720 -0.1464
  317loPI   C5A 5067   3.074   2.461   8.344  0.2700 -0.1213  0.4773
  317loPI   C6A 5068   2.982   2.774   8.076 -0.1793  0.1354 -0.0594
  317loPI   C1B 5069   3.003   2.759   9.860 -0.0010  0.2487  0.2713
  317loPI   C2B 5070   2.820   2.816   9.458  0.2922 -0.0124 -0.0234
  317loPI   C3B 5071   2.899   2.775   9.057  0.1093 -0.0990  0.0026
  317loPI   C4B 5072   2.865   2.830   8.645 -0.2217  0.3766 -0.2419
  318loPI    C1 5073   5.703  15.828  10.931  0.1341  0.0059  0.1516
  318loPI    C2 5074   5.430  15.930  11.206  0.1499 -0.1643  0.2318
  318loPI    C3 5075   5.622  15.580  11.235  0.0903 -0.2216 -0.0431
  318loPI   PO4 5076   5.743  16.168  10.925  0.0352  0.4249  0.0667
  318loPI   GL1 5077   5.807  16.424  10.585 -0.2827 -0.1053  0.0900
  318loPI   GL2 5078   5.818  16.705  10.383 -0.1665 -0.1529 -0.3572
  318loPI   C1A 5079   5.851  16.270  10.087 -0.0661 -0.0044  0.0319
  318loPI   C2A 5080   5.810  16.257   9.577 -0.0569  0.0702 -0.1295
  318loPI   C3A 5081   5.791  16.586   9.264  0.1102 -0.1809 -0.1807
  318loPI   C4A 5082   5.388  16.744   9.158  0.1960  0.0384  0.1828
  318loPI   C5A 5083   5.139  16.848   8.795  0.0202  0.0133 -0.1036
  318loPI   C6A 5084   5.228  16.784   8.351 -0.0261 -0.0144  0.1242
  318loPI   C1B 5085   5.622  16.799  10.056  0.0680  0.1676 -0.0290
  318loPI   C2B 5086   5.473  16.741   9.668  0.2630 -0.0003  0.1006
  318loPI   C3B 5087   5.093  16.913   9.606 -0.1291 -0.4977 -0.0256
  318loPI   C4B 5088   4.982  17.297   9.645  0.0860  0.1255 -0.0842
  319loPI    C1 5089   3.390   7.403  10.895  0.0700  0.1782  0.1840
  319loPI    C2 5090   3.675   7.123  10.872 -0.2974 -0.1979  0.0899
  319loPI    C3 5091   3.539   7.241  11.229 -0.0010  0.0137  0.1368
  319loPI   PO4 5092   3.430   7.486  10.529  0.2338  0.0249  0.0085
  319loPI   GL1 5093   3.610   7.663  10.143 -0.0080  0.1880 -0.3013
  319loPI   GL2 5094   3.637   7.305  10.158  0.2089 -0.1005  0.0720
  319loPI   C1A 5095   3.652   7.987   9.863 -0.1576 -0.2260  0.0167
  319loPI   C2A 5096   3.677   7.810   9.486  0.0454  0.2144  0.0229
  319loPI   C3A 5097   3.861   7.683   9.086 -0.0857 -0.0028 -0.1697
  319loPI   C4A 5098   3.747   7.609   8.616 -0.3240 -0.2468 -0.1497
  319loPI   C5A 5099   3.808   7.730   8.162  0.1736 -0.0392 -0.1247
  319loPI   C6A 5100   3.953   7.773   7.822 -0.1219 -0.0283 -0.3768
  319loPI   C1B 5101   3.484   7.362   9.740  0.0546  0.2395  0.2639
  319loPI   C2B 5102   3.493   7.279   9.312 -0.0965 -0.2369  0.0136
  319loPI   C3B 5103   3.463   7.187   8.810 -0.0941 -0.0879  0.0325
  319loPI   C4B 5104   3.560   7.254   8.366 -0.2245 -0.0179  0.2356
  320loPI    C1 5105   9.538  14.105  10.208  0.0660  0.2673 -0.0492
  320loPI    C2 5106   9.888  14.090  10.400  0.0098  0.1823  0.0478
  320loPI    C3 5107   9.781  13.791  10.156  0.0072  0.2110  0.0137
  320loPI   PO4 5108   9.500  14.283  10.109  0.4435 -0.3055  0.2137
  320loPI   GL1 5109   9.492  14.462   9.735  0.3864 -0.3154  0.0913
  320loPI   GL2 5110   9.708  14.809   9.645  0.2392 -0.4179  0.1056
  320loPI   C1A 5111   9.265  14.123   9.478  0.0516 -0.2117  0.0520
  320loPI   C2A 5112   9.289  14.122   9.038  0.1572  0.0021 -0.2161
  320loPI   C3A 5113   9.360  14.124   8.642  0.1293 -0.0130  0.1030
  320loPI   C4A 5114   9.297  13.867   8.381 -0.1595 -0.3285 -0.2673
  320loPI   C5A 5115   9.612  13.932   8.086 -0.0242 -0.0182 -0.0090
  320loPI   C6A 5116   9.599  14.123   7.694 -0.0089 -0.0433  0.2332
  320loPI   C1B 5117   9.596  14.590   9.283 -0.0840 -0.0122 -0.5073
  320loPI   C2B 5118   9.595  14.536   8.894 -0.1134  0.0967  0.1220
  320loPI   C3B 5119   9.656  14.504   8.458 -0.0136  0.2710 -0.2517
  320loPI   C4B 5120   9.780  14.365   8.074 -0.1515 -0.0760 -0.1371
  321loPI    C1 5121   9.668   9.357  10.665 -0.3716  0.2655 -0.0105
  321loPI    C2 5122   9.945   9.633  10.749 -0.0240 -0.0952  0.0641
  321loPI    C3 5123   9.787   9.413  11.043 -0.1515 -0.1143 -0.0179
  321loPI   PO4 5124   9.769   9.219  10.405 -0.0552 -0.0857  0.1464
  321loPI   GL1 5125  10.071   9.250  10.056 -0.1814  0.2777  0.0401
  321loPI   GL2 5126  10.349   9.301   9.930 -0.0238  0.0560 -0.0316
  321loPI   C1A 5127   9.922   9.597   9.809 -0.2173 -0.0739 -0.0004
  321loPI   C2A 5128  10.010   9.732   9.364  0.1458  0.0200  0.1491
  321loPI   C3A 5129   9.866   9.661   8.911 -0.2578 -0.1117  0.0584
  321loPI   C4A 5130   9.831   9.818   8.526  0.1191  0.1029  0.1693
  321loPI   C5A 5131   9.824   9.812   8.137 -0.2564 -0.0601 -0.1395
  321loPI   C6A 5132  10.128   9.687   7.867  0.1856  0.2419 -0.0602
  321loPI   C1B 5133  10.236   9.234   9.541  0.0028 -0.4288  0.2793
  321loPI   C2B 5134  10.106   9.221   9.166  0.0630  0.0787  0.0205
  321loPI   C3B 5135  10.109   9.173   8.639 -0.0235  0.1198 -0.5555
  321loPI   C4B 5136  10.102   9.423   8.304 -0.1476 -0.1840  0.0069
  322loPI    C1 5137  15.655  13.467  10.746 -0.0452 -0.2185  0.0050
  322loPI    C2 5138  15.624  13.234  11.070 -0.1403  0.0316  0.1791
  322loPI    C3 5139  15.944  13.471  11.022 -0.1449  0.0240  0.1091
  322loPI   PO4 5140  15.613  13.310  10.475 -0.1945  0.0377 -0.5083
  322loPI   GL1 5141  15.420  13.248  10.101 -0.0338  0.1579  0.0203
  322loPI   GL2 5142  15.459  12.922  10.020  0.0667  0.2944  0.0508
  322loPI   C1A 5143  15.369  13.253   9.587 -0.1181  0.0079 -0.1300
  322loPI   C2A 5144  15.322  13.226   9.206  0.0927 -0.0138  0.3866
  322loPI   C3A 5145  15.374  13.270   8.742  0.1654 -0.0466  0.0143
  322loPI   C4A 5146  15.571  13.175   8.416 -0.1977 -0.1443  0.3405
  322loPI   C5A 5147  15.853  13.279   8.171 -0.0434  0.2282  0.1531
  322loPI   C6A 5148  16.054  13.143   7.770 -0.0101 -0.2575 -0.1275
  322loPI   C1B 5149  15.496  12.772   9.561 -0.1108  0.1473 -0.2332
  322loPI   C2B 5150  15.509  12.757   9.146  0.1699 -0.0507  0.0314
  322loPI   C3B 5151  15.654  12.769   8.658 -0.0027 -0.1671  0.0791
  322loPI   C4B 5152  15.857  12.370   8.620 -0.2026  0.0970 -0.0505
  323loPI    C1 5153   5.260   3.757  10.818 -0.0185 -0.0978  0.1479
  323loPI    C2 5154   5.478   3.446  10.943  0.3492  0.0881 -0.0134
  323loPI    C3 5155   5.545   3.810  11.095 -0.0120  0.1100  0.1033
  323loPI   PO4 5156   5.255   3.777  10.568 -0.1423  0.2867 -0.0287
  323loPI   GL1 5157   5.034   3.864  10.293  0.2480  0.0975  0.2754
  323loPI   GL2 5158   5.063   3.565  10.133  0.0256 -0.1590  0.2026
  323loPI   C1A 5159   5.225   4.084   9.941 -0.1572  0.0645  0.0901
  323loPI   C2A 5160   5.265   4.020   9.476 -0.1744  0.1612  0.1277
  323loPI   C3A 5161   5.272   4.092   9.060 -0.0180 -0.1566  0.3084
  323loPI   C4A 5162   5.275   4.073   8.641  0.1296 -0.4053 -0.2661
  323loPI   C5A 5163   5.266   4.149   8.201 -0.1081  0.2263 -0.0220
  323loPI   C6A 5164   5.598   4.304   7.905  0.0350 -0.1965  0.0611
  323loPI   C1B 5165   4.965   3.639   9.711  0.0949  0.1685  0.1740
  323loPI   C2B 5166   5.054   3.629   9.287 -0.1738 -0.2134  0.0594
  323loPI   C3B 5167   5.068   3.693   8.815  0.1387 -0.2764  0.0104
  323loPI   C4B 5168   4.928   3.752   8.434  0.2182 -0.3684 -0.1673
  324loPI    C1 5169  12.840   0.078  10.781 -0.0005  0.3548 -0.1555
  324loPI    C2 5170  12.986   0.073  11.153 -0.2465 -0.1827 -0.0568
  324loPI    C3 5171  12.721   0.353  11.046  0.1288  0.2227  0.0421
  324loPI   PO4 5172  13.082   0.071  10.582  0.1311  0.3269 -0.1653
  324loPI   GL1 5173  12.971   0.091  10.139 -0.0869  0.1790  0.0232
  324loPI   GL2 5174  13.087   0.007  10.027 -0.1593 -0.1385  0.1679
  324loPI   C1A 5175  12.654   0.256   9.830 -0.4583 -0.0548  0.0003
  324loPI   C2A 5176  12.474   0.156   9.401  0.0681 -0.0251  0.1976
  324loPI   C3A 5177  12.302   0.300   9.024  0.1202  0.1396  0.0620
  324loPI   C4A 5178  12.461   0.380   8.688 -0.0156  0.4042  0.1941
  324loPI   C5A 5179  12.434   0.597   8.227  0.0738  0.0694 -0.0507
  324loPI   C6A 5180  12.349   0.706   7.774  0.1025  0.1986  0.1495
  324loPI   C1B 5181  12.966  -0.039   9.569 -0.0020 -0.2415 -0.0391
  324loPI   C2B 5182  12.823  -0.018   9.109 -0.2743 -0.4054 -0.2308
  324loPI   C3B 5183  12.747  -0.014   8.670  0.0854  0.1385 -0.2193
  324loPI   C4B 5184  12.666   0.154   8.277 -0.0987  0.0523  0.2050
  325loPI    C1 5185   6.764  14.408  10.924 -0.0583  0.0912  0.0672
  325loPI    C2 5186   6.600  14.131  11.162  0.0914 -0.0039  0.0601
  325loPI    C3 5187   6.880  14.378  11.306 -0.0069  0.1122  0.0533
  325loPI   PO4 5188   6.559  14.413  10.694 -0.1888 -0.0128 -0.2584
  325loPI   GL1 5189   6.361  14.326  10.316 -0.0906  0.0886 -0.0145
  325loPI   GL2 5190   6.736  14.405  10.264  0.2123  0.0192 -0.0196
  325loPI   C1A 5191   6.252  14.236   9.976 -0.0770  0.2262  0.0695
  325loPI   C2A 5192   6.161  14.365   9.599 -0.1341  0.2732  0.1615
  325loPI   C3A 5193   6.202  14.396   9.133 -0.0092  0.0835 -0.0353
  325loPI   C4A 5194   6.225  14.627   8.805 -0.0315 -0.3460 -0.0317
  325loPI   C5A 5195   6.220  14.717   8.470 -0.0911 -0.1241  0.3818
  325loPI   C6A 5196   6.574  14.962   8.242  0.2727  0.1558 -0.3207
  325loPI   C1B 5197   6.693  14.291   9.773 -0.0560  0.2991 -0.1245
  325loPI   C2B 5198   6.704  14.345   9.394  0.1560  0.0016 -0.0895
  325loPI   C3B 5199   6.702  14.489   9.041 -0.1332  0.1050  0.1664
  325loPI   C4B 5200   6.677  14.485   8.639 -0.0101  0.1436  0.2244
  326loPI    C1 5201  17.263   4.122  10.106 -0.0893  0.1159  0.1450
  326loPI    C2 5202  16.979   3.851  10.184 -0.1290  0.0818 -0.1086
  326loPI    C3 5203  16.938   4.227  10.313 -0.2091  0.0365 -0.0009
  326loPI   PO4 5204  17.326   4.076   9.824  0.1621 -0.0237  0.1077
  326loPI   GL1 5205  17.109   4.079   9.506 -0.1367 -0.2029  0.1029
  326loPI   GL2 5206  16.870   4.284   9.758 -0.0991  0.1569  0.0201
  326loPI   C1A 5207  17.188   4.105   9.076 -0.2587 -0.0316  0.0812
  326loPI   C2A 5208  17.072   3.925   8.689  0.0331 -0.1675  0.0677
  326loPI   C3A 5209  16.712   3.963   8.304  0.0619 -0.0514  0.1592
  326loPI   C4A 5210  16.326   3.958   8.268 -0.0903 -0.0545 -0.0324
  326loPI   C5A 5211  16.042   4.011   7.925 -0.0517  0.0196 -0.1116
  326loPI   C6A 5212  16.103   4.221   7.506  0.0963 -0.4353 -0.1989
  326loPI   C1B 5213  16.819   4.403   9.232 -0.0097  0.0344  0.1192
  326loPI   C2B 5214  16.829   4.527   8.711 -0.0150  0.1621 -0.1085
  326loPI   C3B 5215  16.670   4.483   8.364 -0.1625 -0.0483  0.1177
  326loPI   C4B 5216  16.417   4.322   7.958 -0.0166  0.1227 -0.2432
  327loPI    C1 5217   7.517   1.657  10.783 -0.1861 -0.1310  0.1047
  327loPI    C2 5218   7.690   1.454  10.485  0.0909  0.3035 -0.0410
  327loPI    C3 5219   7.836   1.427  10.857  0.1212  0.2313 -0.0580
  327loPI   PO4 5220   7.289   1.756  10.536 -0.0423 -0.5053 -0.1552
  327loPI   GL1 5221   7.326   1.810  10.258  0.2003 -0.0287  0.2428
  327loPI   GL2 5222   7.170   1.477  10.070 -0.0329 -0.0590 -0.1494
  327loPI   C1A 5223   7.562   1.785   9.879  0.1336 -0.1076 -0.0075
  327loPI   C2A 5224   7.507   1.712   9.443 -0.1251 -0.1011 -0.0654
  327loPI   C3A 5225   7.525   1.722   8.992 -0.1616 -0.0718 -0.0157
  327loPI   C4A 5226   7.708   1.695   8.582 -0.1315  0.1075 -0.2191
  327loPI   C5A 5227   7.655   1.779   8.165  0.3144 -0.1928 -0.2623
  327loPI   C6A 5228   7.862   1.908   7.739  0.2320 -0.3531 -0.1611
  327loPI   C1B 5229   7.042   1.659   9.716  0.1637  0.1838  0.0992
  327loPI   C2B 5230   7.001   1.727   9.274  0.0384  0.2014  0.0904
  327loPI   C3B 5231   6.951   1.763   8.856  0.1906 -0.0238  0.0978
  327loPI   C4B 5232   7.200   1.853   8.550  0.0586  0.0304 -0.0559
  328loPI    C1 5233   6.985   5.324  10.733 -0.0089  0.0499 -0.0885
  328loPI    C2 5234   7.198   5.491  11.027  0.2452 -0.2673 -0.0866
  328loPI    C3 5235   6.856   5.302  11.111  0.1841 -0.1337 -0.0314
  328loPI   PO4 5236   7.081   5.239  10.558 -0.0843 -0.1197 -0.1050
  328loPI   GL1 5237   7.230   4.843  10.239 -0.2129  0.0031  0.0655
  328loPI   GL2 5238   6.948   4.894  10.168 -0.1775  0.2081  0.1721
  328loPI   C1A 5239   7.408   4.865   9.828 -0.2864 -0.0543 -0.2038
  328loPI   C2A 5240   7.422   4.863   9.417 -0.0637  0.3248  0.0452
  328loPI   C3A 5241   7.328   4.856   8.954  0.1568  0.1781  0.0687
  328loPI   C4A 5242   7.272   4.981   8.570  0.1602  0.0813  0.1680
  328loPI   C5A 5243   7.290   5.176   8.252 -0.2271 -0.0812  0.1079
  328loPI   C6A 5244   7.689   5.346   8.008  0.0100 -0.3758 -0.0580
  328loPI   C1B 5245   6.920   4.912   9.722  0.0321  0.2611  0.0781
  328loPI   C2B 5246   6.804   4.882   9.193 -0.0237  0.3303 -0.0066
  328loPI   C3B 5247   6.835   4.911   8.813 -0.0494 -0.1812 -0.0154
  328loPI   C4B 5248   6.844   5.075   8.339  0.1462  0.1876 -0.1624
  329loPI    C1 5249   5.601   2.343  10.686  0.0388  0.1149 -0.2032
  329loPI    C2 5250   5.903   2.208  10.461 -0.0640 -0.4259 -0.0312
  329loPI    C3 5251   5.926   2.189  10.860 -0.2061 -0.1962 -0.0098
  329loPI   PO4 5252   5.366   2.213  10.569  0.0588 -0.2076  0.3498
  329loPI   GL1 5253   5.248   2.080  10.267  0.0371  0.3276 -0.1505
  329loPI   GL2 5254   5.153   1.854  10.104  0.0176 -0.1036  0.2649
  329loPI   C1A 5255   5.271   2.272   9.833  0.1003 -0.2049 -0.3126
  329loPI   C2A 5256   5.307   2.231   9.411  0.1352  0.0890 -0.1450
  329loPI   C3A 5257   5.228   2.366   9.021  0.2947  0.2896  0.1014
  329loPI   C4A 5258   5.240   2.280   8.576  0.2231  0.0424 -0.0593
  329loPI   C5A 5259   5.604   2.322   8.391  0.0556  0.2059 -0.0725
  329loPI   C6A 5260   5.724   2.087   8.100  0.1315  0.1484 -0.0177
  329loPI   C1B 5261   4.946   1.757   9.717 -0.0601  0.0140 -0.2416
  329loPI   C2B 5262   4.902   1.879   9.255  0.0521  0.2816  0.0446
  329loPI   C3B 5263   5.042   1.910   8.876 -0.2014 -0.1442  0.1192
  329loPI   C4B 5264   4.972   1.755   8.482 -0.4245  0.1270 -0.0351
  330loPI    C1 5265  17.874   5.237  10.470 -0.0091  0.0033 -0.0020
  330loPI    C2 5266  17.675   4.890  10.476  0.0551 -0.0375 -0.1842
  330loPI    C3 5267  17.782   5.064  10.819  0.1308 -0.2601 -0.0933
  330loPI   PO4 5268  17.998   5.279  10.309 -0.1521 -0.0855 -0.0445
  330loPI   GL1 5269  17.843   5.545   9.989 -0.0863 -0.1518  0.1477
  330loPI   GL2 5270  18.039   5.659   9.818 -0.5084 -0.2173 -0.2085
  330loPI   C1A 5271  17.793   5.314   9.490 -0.1548 -0.0324  0.1228
  330loPI   C2A 5272  17.834   5.396   9.120  0.0178 -0.0099 -0.1868
  330loPI   C3A 5273  17.731   5.390   8.785 -0.2037  0.1477 -0.2591
  330loPI   C4A 5274  17.793   5.137   8.405  0.1424  0.0247 -0.2504
  330loPI   C5A 5275  18.022   5.241   8.035 -0.1560 -0.3365  0.0782
  330loPI   C6A 5276  18.087   5.602   7.764 -0.0187 -0.0676 -0.1921
  330loPI   C1B 5277  18.047   5.732   9.388  0.2284 -0.0502 -0.0950
  330loPI   C2B 5278  18.111   5.732   8.864 -0.1300 -0.0050  0.3117
  330loPI   C3B 5279  18.094   5.926   8.456  0.3606  0.0917  0.0154
  330loPI   C4B 5280  18.142   6.044   8.035 -0.2326  0.1429 -0.0678
  331loPI    C1 5281   8.105   5.357  10.882 -0.1797  0.1105 -0.1168
  331loPI    C2 5282   7.798   5.102  10.906 -0.2523  0.2163  0.0981
  331loPI    C3 5283   8.055   5.136  11.211  0.0608  0.0221 -0.1372
  331loPI   PO4 5284   8.114   5.303  10.581 -0.2313 -0.0462  0.1191
  331loPI   GL1 5285   7.908   5.408  10.231 -0.1850 -0.2545 -0.0203
  331loPI   GL2 5286   7.724   5.136  10.354  0.0166  0.1779  0.6425
  331loPI   C1A 5287   7.698   5.469   9.802  0.0448 -0.0642 -0.1194
  331loPI   C2A 5288   7.650   5.316   9.377 -0.1297 -0.0173  0.2165
  331loPI   C3A 5289   7.574   5.278   9.062 -0.1123  0.0812 -0.2540
  331loPI   C4A 5290   7.665   5.301   8.659  0.4867 -0.0484 -0.2302
  331loPI   C5A 5291   7.777   4.946   8.242 -0.0734  0.2586 -0.1796
  331loPI   C6A 5292   7.888   4.621   7.929  0.1535 -0.0632 -0.1918
  331loPI   C1B 5293   7.830   5.017   9.939 -0.0580 -0.1119 -0.0781
  331loPI   C2B 5294   7.921   4.847   9.511  0.0585  0.2218  0.0671
  331loPI   C3B 5295   7.855   4.906   9.121 -0.2898  0.0662 -0.2539
  331loPI   C4B 5296   7.934   4.829   8.683  0.0043  0.0984  0.0710
  332loPI    C1 5297   1.270   9.886  10.622  0.1030  0.0836  0.0682
  332loPI    C2 5298   1.473   9.575  10.474  0.1269  0.1454 -0.0294
  332loPI    C3 5299   1.423   9.611  10.869  0.0820 -0.0084 -0.0204
  332loPI   PO4 5300   1.096   9.935  10.454 -0.1418  0.1645 -0.0092
  332loPI   GL1 5301   1.223   9.984  10.060  0.1771  0.1938 -0.1038
  332loPI   GL2 5302   1.202  10.324  10.142  0.2025 -0.0707 -0.0079
  332loPI   C1A 5303   1.129   9.994   9.700  0.1432 -0.0063 -0.0176
  332loPI   C2A 5304   1.064   9.980   9.273 -0.0196 -0.4256  0.0355
  332loPI   C3A 5305   1.044  10.219   8.860  0.1032  0.1000  0.0919
  332loPI   C4A 5306   1.212  10.350   8.469 -0.1874  0.0184  0.1396
  332loPI   C5A 5307   1.590  10.622   8.358 -0.1504  0.2328  0.3691
  332loPI   C6A 5308   1.817  10.889   7.993 -0.0490 -0.0616 -0.0560
  332loPI   C1B 5309   1.292  10.486   9.898 -0.0395 -0.2932  0.0418
  332loPI   C2B 5310   1.396  10.447   9.594  0.0218 -0.1936  0.0074
  332loPI   C3B 5311   1.353  10.444   9.176  0.0555  0.2506 -0.3102
  332loPI   C4B 5312   1.404  10.607   8.838 -0.0971  0.0500 -0.0689
  333loPI    C1 5313   3.176   4.790  10.663 -0.0192 -0.1357 -0.0528
  333loPI    C2 5314   3.364   5.137  10.728  0.1179 -0.2346  0.0865
  333loPI    C3 5315   3.213   4.930  11.036 -0.1597 -0.1910 -0.0169
  333loPI   PO4 5316   3.049   4.808  10.522  0.0171  0.1162 -0.0302
  333loPI   GL1 5317   2.890   4.676  10.237 -0.1254  0.1227  0.1239
  333loPI   GL2 5318   2.755   4.468  10.167 -0.0899 -0.1167 -0.1763
  333loPI   C1A 5319   2.914   4.730   9.763 -0.0631  0.2871  0.1274
  333loPI   C2A 5320   2.887   4.509   9.317 -0.2036 -0.0392 -0.1267
  333loPI   C3A 5321   2.940   4.614   8.868 -0.1341  0.0957  0.0264
  333loPI   C4A 5322   3.013   4.792   8.413  0.2567  0.0223 -0.0740
  333loPI   C5A 5323   2.709   4.843   8.096  0.1218 -0.0305  0.0875
  333loPI   C6A 5324   2.482   4.738   7.737  0.0456 -0.1224 -0.1815
  333loPI   C1B 5325   2.490   4.487   9.881  0.0015 -0.3595  0.1394
  333loPI   C2B 5326   2.415   4.594   9.426  0.0581 -0.2059  0.0566
  333loPI   C3B 5327   2.439   4.743   8.895 -0.0637  0.2561 -0.1601
  333loPI   C4B 5328   2.335   4.621   8.458 -0.0665  0.0216 -0.0576
  334loPI    C1 5329  11.965  13.049  11.048 -0.0175  0.1413  0.1706
  334loPI    C2 5330  11.779  12.829  11.325  0.1124  0.0793  0.2094
  334loPI    C3 5331  12.110  13.033  11.420  0.1986  0.0001  0.0825
  334loPI   PO4 5332  11.916  12.811  10.824 -0.0382 -0.1084  0.0621
  334loPI   GL1 5333  12.028  12.834  10.488 -0.0244  0.1177 -0.0492
  334loPI   GL2 5334  11.964  13.092  10.267  0.0766 -0.0273 -0.1163
  334loPI   C1A 5335  12.130  12.637  10.030 -0.0461  0.0698 -0.1239
  334loPI   C2A 5336  12.115  12.506   9.523 -0.3224  0.3323 -0.0292
  334loPI   C3A 5337  12.242  12.626   9.127 -0.1970 -0.0937 -0.0826
  334loPI   C4A 5338  12.573  12.613   8.802 -0.1394 -0.2987 -0.0063
  334loPI   C5A 5339  12.575  12.697   8.307  0.0423  0.2565  0.4372
  334loPI   C6A 5340  12.645  12.539   7.915 -0.1312 -0.4230  0.1024
  334loPI   C1B 5341  12.057  13.306   9.855  0.0813 -0.0771 -0.2583
  334loPI   C2B 5342  12.146  13.449   9.409 -0.0409  0.0416 -0.0947
  334loPI   C3B 5343  12.279  13.643   9.010  0.0484 -0.1401 -0.1260
  334loPI   C4B 5344  12.287  13.573   8.641 -0.0896 -0.1470 -0.2239
  335loPI    C1 5345   5.134  14.063  10.750  0.1939 -0.0595  0.0684
  335loPI    C2 5346   5.222  14.071  11.140  0.0034 -0.0483  0.1123
  335loPI    C3 5347   4.947  13.815  11.003  0.0206 -0.0046 -0.0046
  335loPI   PO4 5348   5.381  14.207  10.681  0.0595  0.0436  0.3630
  335loPI   GL1 5349   5.251  14.295  10.228 -0.1436  0.0100 -0.2370
  335loPI   GL2 5350   5.038  14.664  10.241 -0.1068  0.1346 -0.0050
  335loPI   C1A 5351   5.172  14.411   9.794  0.0205 -0.2577 -0.1991
  335loPI   C2A 5352   5.233  14.517   9.337  0.0401  0.4622 -0.2066
  335loPI   C3A 5353   5.205  14.589   8.934 -0.0651  0.2061  0.1887
  335loPI   C4A 5354   5.110  14.730   8.558  0.1674  0.1258 -0.1271
  335loPI   C5A 5355   5.339  14.829   8.261 -0.1519 -0.1332  0.1525
  335loPI   C6A 5356   5.393  14.481   7.993 -0.1361  0.0720 -0.3119
  335loPI   C1B 5357   4.869  14.840   9.790 -0.0126  0.3911 -0.2418
  335loPI   C2B 5358   5.004  15.040   9.378  0.0803 -0.1446  0.0623
  335loPI   C3B 5359   4.990  15.064   8.896 -0.3057 -0.0454  0.0260
  335loPI   C4B 5360   4.997  15.291   8.529  0.1272  0.0676  0.0998
  336loPI    C1 5361   6.795   2.476  10.708  0.1472 -0.1118 -0.2188
  336loPI    C2 5362   6.789   2.271  11.051 -0.1012 -0.1101 -0.2200
  336loPI    C3 5363   7.104   2.501  10.961 -0.1244  0.0555  0.1050
  336loPI   PO4 5364   6.445   2.596  10.695 -0.1238 -0.5007  0.1593
  336loPI   GL1 5365   6.174   2.591  10.252 -0.1392 -0.1161  0.1003
  336loPI   GL2 5366   6.474   2.652  10.220 -0.2485  0.1070  0.1578
  336loPI   C1A 5367   6.154   2.683   9.743  0.0056  0.0188 -0.1235
  336loPI   C2A 5368   6.503   2.597   9.508  0.0137  0.0382 -0.0611
  336loPI   C3A 5369   6.512   2.710   9.076 -0.1239 -0.0072 -0.2088
  336loPI   C4A 5370   6.640   2.670   8.637  0.3431  0.0400  0.3547
  336loPI   C5A 5371   6.580   2.536   8.221 -0.0685  0.3603 -0.2472
  336loPI   C6A 5372   6.274   2.417   7.956  0.0762  0.0836 -0.0377
  336loPI   C1B 5373   6.726   2.910   9.814  0.2878  0.1353  0.0643
  336loPI   C2B 5374   6.800   3.147   9.494 -0.0040  0.1124  0.2036
  336loPI   C3B 5375   6.867   3.230   9.029  0.0187 -0.1336  0.1963
  336loPI   C4B 5376   6.841   3.122   8.565  0.0360  0.0412 -0.0671
  337loPI    C1 5377   0.508  11.520  10.729  0.2673 -0.1203  0.0569
  337loPI    C2 5378   0.657  11.718  11.042  0.0822 -0.0423  0.0968
  337loPI    C3 5379   0.675  11.319  11.031 -0.2723 -0.0732  0.4011
  337loPI   PO4 5380   0.636  11.662  10.531 -0.1757 -0.0854  0.0260
  337loPI   GL1 5381   0.618  11.847  10.154 -0.0503  0.1245  0.3002
  337loPI   GL2 5382   0.759  12.058  10.044 -0.1978  0.1223 -0.1066
  337loPI   C1A 5383   0.235  12.000   9.846 -0.0113  0.0865  0.0849
  337loPI   C2A 5384   0.208  12.011   9.486 -0.0507 -0.1899 -0.0344
  337loPI   C3A 5385   0.149  11.999   8.979  0.2329  0.0637  0.0347
  337loPI   C4A 5386   0.124  12.077   8.553  0.3386  0.2532  0.1404
  337loPI   C5A 5387  -0.103  12.234   8.167  0.2763  0.1680 -0.2588
  337loPI   C6A 5388  -0.376  12.519   7.961  0.1339  0.4042  0.0680
  337loPI   C1B 5389   0.670  12.033   9.591  0.0644 -0.2086 -0.1810
  337loPI   C2B 5390   0.737  12.038   9.090  0.0730  0.1599  0.1966
  337loPI   C3B 5391   0.732  11.947   8.686  0.0417 -0.0527  0.2625
  337loPI   C4B 5392   0.641  11.663   8.322 -0.2107 -0.1670  0.0635
  338loPI    C1 5393   7.876   9.007  10.345  0.0080  0.2751 -0.1587
  338loPI    C2 5394   8.097   9.190  10.623 -0.2770  0.0914  0.1980
  338loPI    C3 5395   8.190   8.819  10.507 -0.2313  0.1214  0.1383
  338loPI   PO4 5396   7.832   9.262  10.160  0.1769  0.0058  0.0026
  338loPI   GL1 5397   7.431   9.319   9.909 -0.1091  0.1030 -0.1194
  338loPI   GL2 5398   7.676   9.600   9.817 -0.0344 -0.2030  0.1326
  338loPI   C1A 5399   7.256   9.040   9.593  0.0611  0.2618 -0.0026
  338loPI   C2A 5400   7.248   8.971   9.138 -0.1552 -0.2436  0.1466
  338loPI   C3A 5401   7.255   8.945   8.701 -0.0710  0.0011  0.0709
  338loPI   C4A 5402   7.173   8.928   8.204  0.0518  0.0362 -0.4457
  338loPI   C5A 5403   7.244   9.028   7.806 -0.0317  0.2379 -0.2394
  338loPI   C6A 5404   7.479   9.107   7.386  0.3966 -0.0857  0.1293
  338loPI   C1B 5405   7.588   9.468   9.434  0.1329 -0.3959  0.1966
  338loPI   C2B 5406   7.546   9.474   8.998 -0.4727 -0.0687 -0.2204
  338loPI   C3B 5407   7.553   9.369   8.631  0.0699 -0.0911 -0.3110
  338loPI   C4B 5408   7.409   9.386   8.184 -0.1786  0.0281  0.0172
  339loPI    C1 5409   0.013  11.645  10.768  0.1065  0.0159  0.0397
  339loPI    C2 5410   0.159  11.706  11.135 -0.0349  0.0748  0.0869
  339loPI    C3 5411   0.106  11.333  11.001  0.1976  0.0527  0.0528
  339loPI   PO4 5412  -0.215  11.728  10.756 -0.1338 -0.1204  0.3183
  339loPI   GL1 5413  -0.468  11.607  10.363 -0.1481 -0.0297 -0.1391
  339loPI   GL2 5414  -0.215  11.491  10.142 -0.0582  0.0969  0.1334
  339loPI   C1A 5415  -0.660  11.621   9.939  0.1705  0.2858 -0.2764
  339loPI   C2A 5416  -0.535  11.354   9.587 -0.3993  0.0879 -0.0544
  339loPI   C3A 5417  -0.322  11.208   9.202  0.3315 -0.0867 -0.2787
  339loPI   C4A 5418  -0.367  11.179   8.799  0.5571  0.2655 -0.0843
  339loPI   C5A 5419  -0.572  11.224   8.415 -0.2068  0.2983  0.0500
  339loPI   C6A 5420  -0.572  11.287   8.086 -0.0848  0.0240  0.3287
  339loPI   C1B 5421  -0.015  11.545   9.686  0.2357  0.2268  0.1760
  339loPI   C2B 5422   0.044  11.575   9.300  0.0944  0.0932 -0.1385
  339loPI   C3B 5423  -0.174  11.614   8.867 -0.0397 -0.5239 -0.0919
  339loPI   C4B 5424  -0.177  11.512   8.471  0.0666 -0.0460  0.4347
  340loPI    C1 5425   9.952   1.083  10.520  0.2433 -0.2915 -0.0657
  340loPI    C2 5426   9.674   1.138  10.802  0.4271  0.2834  0.0172
  340loPI    C3 5427   9.935   0.836  10.834  0.0160 -0.0738  0.0973
  340loPI   PO4 5428   9.787   1.061  10.332  0.0149  0.0292 -0.1157
  340loPI   GL1 5429   9.727   1.067   9.949 -0.2146 -0.0069 -0.1338
  340loPI   GL2 5430   9.505   1.331   9.960 -0.1185  0.2205  0.2943
  340loPI   C1A 5431   9.854   0.986   9.565  0.2401 -0.0155 -0.1939
  340loPI   C2A 5432   9.786   1.007   9.194 -0.1163 -0.0100 -0.0244
  340loPI   C3A 5433   9.868   0.898   8.752 -0.2875  0.1026 -0.0188
  340loPI   C4A 5434   9.572   0.649   8.464  0.1152 -0.0649  0.3191
  340loPI   C5A 5435   9.639   0.366   8.084 -0.0068  0.0893  0.0848
  340loPI   C6A 5436   9.648   0.108   7.787 -0.2936 -0.1274  0.0382
  340loPI   C1B 5437   9.603   1.455   9.658 -0.3255  0.2692 -0.2571
  340loPI   C2B 5438   9.574   1.573   9.262 -0.0436 -0.0895  0.1297
  340loPI   C3B 5439   9.569   1.774   8.903 -0.2184  0.3244  0.0053
  340loPI   C4B 5440   9.559   2.064   8.537  0.1225  0.3858 -0.1866
  341loPI    C1 5441   8.113  10.401  10.616  0.0303 -0.0557  0.0712
  341loPI    C2 5442   7.812  10.587  10.804  0.0873  0.0413  0.0671
  341loPI    C3 5443   8.154  10.782  10.732  0.1409 -0.0596  0.0458
  341loPI   PO4 5444   7.936  10.275  10.427 -0.2159  0.0207  0.1564
  341loPI   GL1 5445   8.047  10.196  10.005 -0.0496  0.0887  0.0899
  341loPI   GL2 5446   7.823  10.320   9.962 -0.1415  0.0650  0.1428
  341loPI   C1A 5447   7.950   9.915   9.602 -0.0727 -0.0476  0.1920
  341loPI   C2A 5448   7.894   9.861   9.140  0.0430  0.2319 -0.4332
  341loPI   C3A 5449   7.747   9.827   8.722  0.0839 -0.0027  0.3823
  341loPI   C4A 5450   7.628   9.858   8.254 -0.1572 -0.2566  0.0224
  341loPI   C5A 5451   7.624  10.133   7.825 -0.0279 -0.1571 -0.0704
  341loPI   C6A 5452   7.888   9.941   7.457 -0.0580  0.0645 -0.0490
  341loPI   C1B 5453   7.729  10.330   9.536  0.3313  0.0606 -0.2362
  341loPI   C2B 5454   7.679  10.342   9.149 -0.1560 -0.0094 -0.1104
  341loPI   C3B 5455   7.567  10.292   8.687 -0.3322  0.0511 -0.2446
  341loPI   C4B 5456   7.507  10.312   8.265  0.1330 -0.0276 -0.2263
  342loPI    C1 5457   3.443   0.986  10.703  0.0929  0.1111 -0.1398
  342loPI    C2 5458   3.585   0.617  10.648 -0.1339 -0.0219  0.1428
  342loPI    C3 5459   3.680   0.821  10.979 -0.1526  0.1037  0.0712
  342loPI   PO4 5460   3.194   0.995  10.574 -0.3948 -0.1548 -0.0149
  342loPI   GL1 5461   3.090   1.366  10.153 -0.1184 -0.0812  0.0620
  342loPI   GL2 5462   2.897   1.433  10.372  0.1156 -0.1461 -0.1213
  342loPI   C1A 5463   3.077   1.471   9.694  0.2491  0.0898 -0.1908
  342loPI   C2A 5464   3.195   1.422   9.358 -0.1219 -0.0774  0.3424
  342loPI   C3A 5465   3.135   1.456   8.935 -0.0509 -0.2603 -0.0894
  342loPI   C4A 5466   3.217   1.471   8.515 -0.3515  0.0965  0.2754
  342loPI   C5A 5467   3.137   1.238   8.186 -0.0116 -0.0638  0.0436
  342loPI   C6A 5468   3.043   1.359   7.775 -0.1775  0.4135  0.2301
  342loPI   C1B 5469   2.637   1.439   9.928  0.0413  0.1600 -0.1850
  342loPI   C2B 5470   2.591   1.493   9.433 -0.2901  0.0566  0.0160
  342loPI   C3B 5471   2.660   1.457   8.986  0.1373  0.1724  0.1546
  342loPI   C4B 5472   2.737   1.420   8.531  0.0164  0.1111  0.0648
  343loPI    C1 5473  13.532  16.281  10.535  0.1418  0.0702 -0.3394
  343loPI    C2 5474  13.871  16.341  10.738 -0.0298  0.1734 -0.0789
  343loPI    C3 5475  13.541  16.544  10.836 -0.2367 -0.1189 -0.1568
  343loPI   PO4 5476  13.619  16.246  10.324 -0.3215  0.2778  0.1650
  343loPI   GL1 5477  13.792  16.043  10.086 -0.1125  0.0528  0.0792
  343loPI   GL2 5478  14.022  15.986   9.986  0.0564  0.1252 -0.0736
  343loPI   C1A 5479  13.571  16.008   9.613 -0.0114 -0.1146 -0.0565
  343loPI   C2A 5480  13.590  16.134   9.223 -0.0055 -0.3233  0.1198
  343loPI   C3A 5481  13.606  16.137   8.756 -0.1098  0.2063 -0.0119
  343loPI   C4A 5482  13.544  16.094   8.320  0.0940 -0.1762  0.0740
  343loPI   C5A 5483  13.708  16.334   7.963 -0.0737 -0.4075  0.1009
  343loPI   C6A 5484  13.661  16.386   7.469  0.1514  0.2012  0.3785
  343loPI   C1B 5485  14.126  15.958   9.526  0.1485 -0.1722 -0.1293
  343loPI   C2B 5486  14.062  16.016   9.157 -0.1703 -0.1166  0.1737
  343loPI   C3B 5487  14.101  16.088   8.821  0.3280 -0.2022 -0.3091
  343loPI   C4B 5488  14.259  15.913   8.459  0.1953 -0.0803 -0.1459
  344loPI    C1 5489   9.608   3.367  10.922 -0.2777  0.0726 -0.1558
  344loPI    C2 5490   9.399   3.211  11.226 -0.0160 -0.0099 -0.0157
  344loPI    C3 5491   9.767   3.356  11.289  0.0094  0.0446 -0.2783
  344loPI   PO4 5492   9.647   3.220  10.713 -0.0886  0.2130  0.1324
  344loPI   GL1 5493   9.569   3.349  10.408 -0.2895 -0.1183 -0.0221
  344loPI   GL2 5494   9.322   3.369  10.320  0.0199 -0.0047 -0.0486
  344loPI   C1A 5495   9.664   3.427   9.975 -0.2609  0.4041  0.1588
  344loPI   C2A 5496   9.642   3.532   9.563 -0.2993  0.0484  0.1357
  344loPI   C3A 5497   9.579   3.762   9.160 -0.0664 -0.4337  0.0891
  344loPI   C4A 5498   9.400   3.739   8.799 -0.0338 -0.2641  0.1747
  344loPI   C5A 5499   9.160   3.931   8.365  0.0677 -0.2085  0.1210
  344loPI   C6A 5500   8.828   4.030   8.202  0.0671  0.0839 -0.2063
  344loPI   C1B 5501   9.237   3.529   9.838  0.1690 -0.2523  0.1006
  344loPI   C2B 5502   9.190   3.565   9.377  0.0372  0.1522  0.0194
  344loPI   C3B 5503   8.905   3.830   9.072 -0.0589 -0.1068  0.0657
  344loPI   C4B 5504   8.781   3.826   8.684 -0.1209 -0.0046  0.2742
  345loPI    C1 5505   1.484   3.222  10.715  0.1996 -0.0680  0.1143
  345loPI    C2 5506   1.437   3.220  11.113 -0.0885  0.0165  0.0832
  345loPI    C3 5507   1.347   3.548  10.902  0.1532  0.0040 -0.0436
  345loPI   PO4 5508   1.349   3.025  10.626 -0.2775  0.0883 -0.4385
  345loPI   GL1 5509   1.162   2.959  10.270 -0.0158 -0.3369 -0.0161
  345loPI   GL2 5510   1.075   3.198  10.015  0.2289  0.0627 -0.0579
  345loPI   C1A 5511   1.344   2.879   9.834 -0.3331  0.0977 -0.0753
  345loPI   C2A 5512   1.394   2.854   9.437  0.1556  0.2798 -0.1273
  345loPI   C3A 5513   1.438   2.947   9.042  0.3078  0.1394  0.0130
  345loPI   C4A 5514   1.486   2.841   8.723 -0.2298  0.0400  0.1422
  345loPI   C5A 5515   1.664   2.637   8.329  0.1924  0.0913  0.0750
  345loPI   C6A 5516   2.004   2.665   8.069  0.0494 -0.0286  0.0268
  345loPI   C1B 5517   1.143   3.299   9.655  0.1256 -0.0064 -0.1694
  345loPI   C2B 5518   1.199   3.404   9.224  0.0737 -0.1911 -0.1022
  345loPI   C3B 5519   1.216   3.376   8.796 -0.0216 -0.5511  0.1455
  345loPI   C4B 5520   1.216   3.423   8.304 -0.0433 -0.1699 -0.2139
  346loPI    C1 5521   5.903  11.001  10.343 -0.0949 -0.3772 -0.0479
  346loPI    C2 5522   5.653  10.903  10.639 -0.1256  0.1361  0.1058
  346loPI    C3 5523   5.542  10.851  10.259 -0.2648 -0.1047  0.1772
  346loPI   PO4 5524   6.087  10.802  10.362  0.0075  0.1160 -0.1436
  346loPI   GL1 5525   5.923  10.481  10.028 -0.0673 -0.3439  0.1506
  346loPI   GL2 5526   5.830  10.800   9.865 -0.0491 -0.2712  0.2622
  346loPI   C1A 5527   6.048  10.366   9.644 -0.2365 -0.2310 -0.0994
  346loPI   C2A 5528   6.099  10.394   9.184 -0.0673 -0.0723  0.1144
  346loPI   C3A 5529   6.013  10.297   8.790  0.0147  0.0587 -0.0904
  346loPI   C4A 5530   5.958  10.186   8.421  0.0951  0.0391  0.1552
  346loPI   C5A 5531   6.055  10.476   8.064  0.1125 -0.2165  0.2442
  346loPI   C6A 5532   6.261  10.752   7.814  0.0581  0.0486  0.0428
  346loPI   C1B 5533   5.856  10.799   9.421  0.2491 -0.0987 -0.1284
  346loPI   C2B 5534   5.768  10.712   8.940 -0.1894  0.0868  0.2011
  346loPI   C3B 5535   5.675  10.809   8.492 -0.1634  0.0252 -0.1562
  346loPI   C4B 5536   5.475  10.997   8.146 -0.3461  0.2185 -0.1473
  347loPI    C1 5537   4.185   5.622  10.870 -0.1551 -0.2077  0.0920
  347loPI    C2 5538   4.151   5.608  11.269  0.0103 -0.0684  0.1124
  347loPI    C3 5539   4.472   5.779  11.101 -0.1822  0.1078 -0.0824
  347loPI   PO4 5540   4.193   5.376  10.727 -0.1633  0.0043  0.0258
  347loPI   GL1 5541   4.275   5.308  10.315 -0.4236  0.0333 -0.1501
  347loPI   GL2 5542   3.985   5.460  10.217 -0.5330  0.0411  0.2127
  347loPI   C1A 5543   4.433   5.417   9.917  0.0724 -0.3156 -0.0079
  347loPI   C2A 5544   4.588   5.499   9.510 -0.3125  0.0573 -0.0380
  347loPI   C3A 5545   4.585   5.491   9.089 -0.1436  0.0730 -0.0164
  347loPI   C4A 5546   4.523   5.417   8.616 -0.2241 -0.4067 -0.0155
  347loPI   C5A 5547   4.530   5.267   8.134 -0.4707  0.2836 -0.1410
  347loPI   C6A 5548   4.590   5.111   7.793  0.0424  0.2383 -0.0955
  347loPI   C1B 5549   3.921   5.143   9.912 -0.2670 -0.0731 -0.1727
  347loPI   C2B 5550   3.700   5.001   9.500 -0.0489 -0.0092  0.3182
  347loPI   C3B 5551   3.764   5.096   9.103 -0.0650 -0.1273  0.0899
  347loPI   C4B 5552   3.845   5.019   8.686  0.0900 -0.3293 -0.0982
  348loPI    C1 5553   7.812  10.768  10.366  0.0907  0.0877 -0.2197
  348loPI    C2 5554   7.515  10.507  10.306  0.1680 -0.0164 -0.1514
  348loPI    C3 5555   7.447  10.841  10.514  0.0822 -0.0074 -0.1934
  348loPI   PO4 5556   7.869  10.792  10.064  0.3569 -0.2997 -0.1289
  348loPI   GL1 5557   8.183  10.628   9.763  0.1462 -0.2234 -0.3228
  348loPI   GL2 5558   8.055  10.820   9.562 -0.1470  0.0406 -0.1006
  348loPI   C1A 5559   8.194  10.370   9.418  0.2360 -0.2597  0.2956
  348loPI   C2A 5560   8.151  10.266   9.023 -0.0544 -0.3513 -0.1272
  348loPI   C3A 5561   8.017  10.209   8.593 -0.2550 -0.0658  0.0920
  348loPI   C4A 5562   8.013  10.189   8.144  0.0777  0.0302 -0.0730
  348loPI   C5A 5563   8.125  10.326   7.780 -0.2907 -0.0662  0.0419
  348loPI   C6A 5564   8.059  10.711   7.484 -0.1269  0.1286  0.0060
  348loPI   C1B 5565   7.959  10.756   9.159  0.0002 -0.1031 -0.0849
  348loPI   C2B 5566   7.903  10.675   8.782  0.1453  0.3250 -0.1178
  348loPI   C3B 5567   7.815  10.676   8.324  0.3268  0.0799  0.0062
  348loPI   C4B 5568   7.709  10.621   7.832 -0.1222 -0.4297 -0.0961
  349loPI    C1 5569   6.936  11.937  10.334  0.2489 -0.1979 -0.0835
  349loPI    C2 5570   6.755  11.588  10.407  0.2220 -0.1698 -0.0147
  349loPI    C3 5571   6.954  11.775  10.699  0.0714 -0.0315  0.0014
  349loPI   PO4 5572   6.834  11.978  10.123 -0.0214 -0.2102  0.0271
  349loPI   GL1 5573   6.868  12.021   9.711  0.0549  0.1948  0.0178
  349loPI   GL2 5574   6.568  12.197   9.772 -0.0879  0.3567  0.3235
  349loPI   C1A 5575   6.601  12.144   9.269 -0.0361  0.0320 -0.0081
  349loPI   C2A 5576   6.680  12.127   8.793 -0.1776 -0.0724 -0.0847
  349loPI   C3A 5577   6.725  12.275   8.450  0.0708 -0.2535  0.0182
  349loPI   C4A 5578   6.841  12.322   8.042 -0.1180  0.1746  0.2656
  349loPI   C5A 5579   6.597  12.476   7.693  0.2467  0.0491 -0.0137
  349loPI   C6A 5580   6.242  12.179   7.568  0.1348 -0.2119  0.2225
  349loPI   C1B 5581   6.152  12.112   9.527 -0.2231  0.2116  0.0942
  349loPI   C2B 5582   6.131  12.091   9.010  0.1925  0.0066 -0.2075
  349loPI   C3B 5583   6.186  12.252   8.634 -0.0797 -0.1595  0.2456
  349loPI   C4B 5584   6.253  12.170   8.222 -0.0354  0.1049  0.0835
  350loPI    C1 5585   8.552   1.989  11.011 -0.0372 -0.0627  0.2066
  350loPI    C2 5586   8.215   1.775  10.980 -0.0935  0.0662 -0.0963
  350loPI    C3 5587   8.381   1.835  11.339 -0.2242 -0.2558  0.0215
  350loPI   PO4 5588   8.518   2.199  10.765  0.1341 -0.1206 -0.0328
  350loPI   GL1 5589   8.583   2.332  10.336  0.0206 -0.2493  0.0703
  350loPI   GL2 5590   8.684   2.590  10.448  0.0542 -0.3804  0.4088
  350loPI   C1A 5591   8.801   2.121  10.003 -0.1058 -0.1119  0.0062
  350loPI   C2A 5592   8.845   2.183   9.566  0.3066 -0.0637 -0.2699
  350loPI   C3A 5593   8.838   2.094   9.161  0.1942 -0.1164 -0.4118
  350loPI   C4A 5594   8.800   1.999   8.696  0.0833 -0.0692  0.1886
  350loPI   C5A 5595   9.047   1.862   8.397  0.0193  0.1511  0.0187
  350loPI   C6A 5596   9.452   1.678   8.251 -0.2225 -0.2948 -0.0900
  350loPI   C1B 5597   8.618   2.619   9.964  0.0096  0.0144  0.2780
  350loPI   C2B 5598   8.568   2.633   9.559  0.0826  0.0127  0.0909
  350loPI   C3B 5599   8.676   2.574   9.110 -0.0250  0.0985 -0.1332
  350loPI   C4B 5600   8.663   2.569   8.730  0.1161  0.0684 -0.0661
  351loPI    C1 5601   9.299   3.727  10.813 -0.1899 -0.0200  0.1500
  351loPI    C2 5602   9.451   4.061  10.973  0.0926 -0.0946  0.0431
  351loPI    C3 5603   9.411   3.731  11.197 -0.1482 -0.0040  0.1376
  351loPI   PO4 5604   9.305   3.796  10.547  0.1196  0.3069 -0.0713
  351loPI   GL1 5605   9.528   3.870  10.172  0.0003  0.1467 -0.2715
  351loPI   GL2 5606   9.701   4.111  10.259  0.0012 -0.1794 -0.0061
  351loPI   C1A 5607   9.461   3.968   9.761  0.1932  0.0659  0.3299
  351loPI   C2A 5608   9.345   4.095   9.380 -0.0688 -0.3073 -0.1595
  351loPI   C3A 5609   9.180   4.242   8.913  0.0227 -0.0262  0.5309
  351loPI   C4A 5610   9.258   4.429   8.600  0.2837  0.4212  0.3258
  351loPI   C5A 5611   9.405   4.808   8.261  0.1461  0.3500  0.1081
  351loPI   C6A 5612   9.532   5.215   8.041  0.0921 -0.0836  0.0885
  351loPI   C1B 5613   9.728   4.404   9.937  0.0506 -0.2557  0.3066
  351loPI   C2B 5614   9.722   4.399   9.444 -0.0982 -0.0283  0.1698
  351loPI   C3B 5615   9.687   4.330   8.984 -0.0007  0.0095 -0.0126
  351loPI   C4B 5616   9.663   4.141   8.537 -0.0136 -0.1284 -0.0791
  352loPI    C1 5617  12.188   7.469  10.668  0.0765 -0.0126 -0.1098
  352loPI    C2 5618  12.530   7.266  10.710  0.1966  0.1573 -0.2502
  352loPI    C3 5619  12.537   7.664  10.670 -0.0489  0.2175  0.2296
  352loPI   PO4 5620  12.106   7.378  10.461  0.1526 -0.2277  0.1194
  352loPI   GL1 5621  12.262   7.480  10.124  0.0205 -0.1887  0.0063
  352loPI   GL2 5622  12.436   7.783  10.190  0.5453 -0.1221  0.0076
  352loPI   C1A 5623  12.331   7.352   9.699 -0.0037  0.1719  0.1089
  352loPI   C2A 5624  12.456   7.124   9.237 -0.3224  0.1534  0.1126
  352loPI   C3A 5625  12.159   7.002   8.915  0.2710  0.0611  0.1115
  352loPI   C4A 5626  12.185   6.983   8.480  0.0842 -0.0790  0.1989
  352loPI   C5A 5627  12.115   6.727   8.143 -0.0287  0.1963  0.2237
  352loPI   C6A 5628  12.358   6.509   7.746 -0.1407  0.2288 -0.1882
  352loPI   C1B 5629  12.344   7.821   9.764 -0.0227 -0.0876 -0.2333
  352loPI   C2B 5630  12.307   7.704   9.352 -0.2398  0.1027  0.1600
  352loPI   C3B 5631  12.301   7.826   8.913 -0.0104  0.2234 -0.1189
  352loPI   C4B 5632  12.261   7.881   8.383 -0.1589  0.1237 -0.2709
  353loPI    C1 5633  12.620   9.615  10.986 -0.0713 -0.0852 -0.0557
  353loPI    C2 5634  12.977   9.601  11.165 -0.1264 -0.0700  0.0565
  353loPI    C3 5635  12.668   9.400  11.320 -0.2023  0.0339  0.0408
  353loPI   PO4 5636  12.705   9.633  10.744  0.1385  0.1465  0.2732
  353loPI   GL1 5637  12.781   9.725  10.379 -0.0027 -0.0014 -0.2769
  353loPI   GL2 5638  12.712  10.005  10.449  0.0123 -0.3615 -0.0003
  353loPI   C1A 5639  12.943   9.503  10.117  0.0346 -0.0665 -0.0920
  353loPI   C2A 5640  13.000   9.501   9.687 -0.0719 -0.0268  0.1239
  353loPI   C3A 5641  13.040   9.391   9.265 -0.0940  0.0611  0.0182
  353loPI   C4A 5642  12.920   9.495   8.852  0.0894 -0.0727 -0.0983
  353loPI   C5A 5643  13.085   9.586   8.482 -0.1128 -0.3052  0.0033
  353loPI   C6A 5644  13.235   9.510   8.133  0.2049 -0.3065  0.1618
  353loPI   C1B 5645  12.779   9.955   9.948  0.0518 -0.1316 -0.0966
  353loPI   C2B 5646  12.773  10.011   9.512  0.1341 -0.1121 -0.0546
  353loPI   C3B 5647  12.824   9.953   9.108 -0.0607  0.1275  0.1210
  353loPI   C4B 5648  12.908  10.027   8.651  0.0802  0.1079 -0.0219
  354loPI    C1 5649  12.371  15.831  10.462  0.0694  0.0356  0.2440
  354loPI    C2 5650  12.020  15.815  10.653 -0.1140  0.0971 -0.0804
  354loPI    C3 5651  12.196  15.478  10.529 -0.0137  0.0599  0.1559
  354loPI   PO4 5652  12.417  16.079  10.328 -0.2769 -0.0255  0.5387
  354loPI   GL1 5653  12.323  16.358   9.971 -0.1679 -0.0911 -0.1400
  354loPI   GL2 5654  12.226  16.166   9.796 -0.0470  0.1548 -0.4159
  354loPI   C1A 5655  12.501  16.523   9.556  0.2264 -0.1810  0.0158
  354loPI   C2A 5656  12.500  16.575   9.053  0.5307  0.3690  0.0820
  354loPI   C3A 5657  12.551  16.668   8.660  0.1432  0.4782  0.1571
  354loPI   C4A 5658  12.758  16.527   8.434  0.0714  0.0417  0.2783
  354loPI   C5A 5659  12.994  16.265   8.162 -0.3389  0.2244 -0.0061
  354loPI   C6A 5660  12.846  15.931   7.860  0.0760 -0.2234  0.2730
  354loPI   C1B 5661  12.296  16.126   9.377 -0.2018  0.1109  0.0686
  354loPI   C2B 5662  12.256  15.774   9.164 -0.0991 -0.1725  0.1549
  354loPI   C3B 5663  12.040  15.882   8.691 -0.3109  0.0552  0.0848
  354loPI   C4B 5664  12.139  15.670   8.369 -0.1608  0.0008 -0.0044
  355loPI    C1 5665  15.050   6.963  10.447  0.0205  0.0042 -0.1678
  355loPI    C2 5666  14.686   7.084  10.560 -0.0004 -0.2803  0.0828
  355loPI    C3 5667  14.951   6.963  10.835  0.3093 -0.0162 -0.0911
  355loPI   PO4 5668  15.034   6.788  10.312 -0.0210 -0.1251 -0.0696
  355loPI   GL1 5669  15.129   6.785   9.981  0.0831 -0.0204 -0.0124
  355loPI   GL2 5670  14.907   6.562   9.829  0.1930  0.0748 -0.1956
  355loPI   C1A 5671  15.105   6.992   9.628 -0.1340 -0.2423  0.1841
  355loPI   C2A 5672  15.308   7.158   9.336  0.1436  0.0167 -0.0826
  355loPI   C3A 5673  15.137   7.223   8.945 -0.0248 -0.0315  0.5154
  355loPI   C4A 5674  15.208   7.025   8.507  0.1350 -0.0527  0.0899
  355loPI   C5A 5675  15.005   7.074   8.141  0.0202 -0.0240 -0.1135
  355loPI   C6A 5676  14.882   6.597   7.888  0.2414 -0.1342  0.1259
  355loPI   C1B 5677  14.867   6.599   9.473  0.1815  0.2114 -0.3177
  355loPI   C2B 5678  15.108   6.670   9.255  0.0754 -0.1359  0.1021
  355loPI   C3B 5679  15.239   6.643   8.877 -0.1793  0.0611  0.0381
  355loPI   C4B 5680  15.501   6.638   8.519 -0.3471  0.1135 -0.2875
  356loPI    C1 5681   1.801  13.756  10.623  0.0255  0.0148  0.0741
  356loPI    C2 5682   2.191  13.814  10.554 -0.0107  0.1758  0.0001
  356loPI    C3 5683   2.004  14.025  10.838 -0.0068 -0.0250  0.1550
  356loPI   PO4 5684   1.675  13.719  10.352 -0.0444  0.1974 -0.2472
  356loPI   GL1 5685   1.309  13.453  10.109  0.2427 -0.0071 -0.0396
  356loPI   GL2 5686   1.499  13.613   9.900  0.1010 -0.1576  0.0985
  356loPI   C1A 5687   1.058  13.339   9.761 -0.2644  0.0317  0.1501
  356loPI   C2A 5688   1.076  13.296   9.354 -0.1029  0.3732  0.0707
  356loPI   C3A 5689   1.282  13.349   8.900 -0.0061  0.1869 -0.1094
  356loPI   C4A 5690   1.269  13.421   8.458 -0.0755  0.1410 -0.1092
  356loPI   C5A 5691   1.063  13.515   8.059 -0.2016 -0.0422 -0.1230
  356loPI   C6A 5692   0.633  13.441   7.908  0.0976  0.0618  0.0162
  356loPI   C1B 5693   1.304  13.742   9.573  0.1269 -0.1346 -0.0105
  356loPI   C2B 5694   1.402  13.757   9.114 -0.1513  0.4521 -0.0160
  356loPI   C3B 5695   1.562  13.850   8.771  0.2926 -0.0111  0.0076
  356loPI   C4B 5696   1.773  14.173   8.544 -0.1868  0.1672 -0.3519
  357loPI    C1 5697  14.587   6.474  10.815  0.1538  0.0611 -0.0316
  357loPI    C2 5698  14.462   6.833  10.938  0.1958  0.1027 -0.1100
  357loPI    C3 5699  14.463   6.525  11.192 -0.1158  0.0894 -0.1214
  357loPI   PO4 5700  14.512   6.558  10.567  0.1297  0.2374  0.2217
  357loPI   GL1 5701  14.552   6.660  10.175 -0.0743 -0.2410 -0.1614
  357loPI   GL2 5702  14.432   6.455  10.022 -0.1591  0.0671 -0.1374
  357loPI   C1A 5703  14.549   6.876   9.789 -0.1446 -0.1118 -0.1441
  357loPI   C2A 5704  14.599   7.077   9.500 -0.0418  0.0558 -0.1513
  357loPI   C3A 5705  14.706   7.009   9.160  0.3809  0.0354  0.1969
  357loPI   C4A 5706  14.602   6.952   8.741  0.1439  0.1025  0.0562
  357loPI   C5A 5707  14.435   7.041   8.313 -0.3315  0.0900 -0.2498
  357loPI   C6A 5708  14.152   7.077   7.900  0.1979 -0.3784 -0.0748
  357loPI   C1B 5709  14.400   6.448   9.617 -0.0325  0.0496 -0.0245
  357loPI   C2B 5710  14.495   6.531   9.181  0.0426  0.1427  0.1107
  357loPI   C3B 5711  14.359   6.553   8.876  0.2737  0.0652 -0.1581
  357loPI   C4B 5712  14.344   6.515   8.381 -0.3706  0.1499 -0.1527
  358loPI    C1 5713   0.523  15.334  10.762 -0.0104 -0.1324 -0.1661
  358loPI    C2 5714   0.534  14.936  10.808 -0.0571 -0.0953  0.1942
  358loPI    C3 5715   0.472  15.173  11.124 -0.0607  0.1994 -0.0224
  358loPI   PO4 5716   0.729  15.307  10.530  0.2719 -0.2775  0.0363
  358loPI   GL1 5717   0.958  15.041  10.228 -0.2201 -0.1222  0.1190
  358loPI   GL2 5718   0.634  14.882  10.302 -0.0716 -0.1045 -0.2455
  358loPI   C1A 5719   0.848  14.999   9.870  0.1623  0.0802  0.1184
  358loPI   C2A 5720   0.885  15.191   9.481 -0.1331  0.3070  0.0344
  358loPI   C3A 5721   0.860  15.126   9.003 -0.1072  0.1716 -0.4453
  358loPI   C4A 5722   0.812  15.074   8.528  0.1223 -0.3329 -0.0305
  358loPI   C5A 5723   0.486  14.883   8.229 -0.3612 -0.0762  0.0370
  358loPI   C6A 5724   0.546  14.978   7.777  0.1083 -0.1681 -0.2015
  358loPI   C1B 5725   0.400  14.744   9.964 -0.1017 -0.0317 -0.0732
  358loPI   C2B 5726   0.496  14.628   9.509 -0.0214  0.1659 -0.1115
  358loPI   C3B 5727   0.475  14.662   9.051  0.0894  0.2924  0.0607
  358loPI   C4B 5728   0.396  14.643   8.642 -0.1803 -0.1317 -0.0595
  359loPI    C1 5729   5.004   9.867  10.538  0.0067  0.1809  0.1772
  359loPI    C2 5730   4.748   9.754  10.824  0.0408  0.1000  0.1759
  359loPI    C3 5731   4.999   9.487  10.663 -0.1389  0.0908 -0.0952
  359loPI   PO4 5732   4.826  10.046  10.326 -0.1452 -0.1995  0.1692
  359loPI   GL1 5733   4.957   9.929   9.832  0.0856  0.1275  0.2454
  359loPI   GL2 5734   5.285  10.080   9.778  0.0432  0.0979  0.0679
  359loPI   C1A 5735   4.716   9.881   9.411  0.0176 -0.2038 -0.0351
  359loPI   C2A 5736   4.773   9.878   8.977 -0.0716 -0.0543 -0.3003
  359loPI   C3A 5737   4.600   9.783   8.652 -0.5712 -0.2506  0.1203
  359loPI   C4A 5738   4.272  10.073   8.429 -0.2165 -0.0854 -0.0367
  359loPI   C5A 5739   4.140   9.994   7.999 -0.1044 -0.0806 -0.1733
  359loPI   C6A 5740   3.823   9.974   7.686  0.1834 -0.0541 -0.0456
  359loPI   C1B 5741   5.295   9.972   9.292  0.3056 -0.2290  0.1099
  359loPI   C2B 5742   5.232   9.868   8.831  0.1805 -0.2437 -0.2709
  359loPI   C3B 5743   5.198   9.657   8.369 -0.1236 -0.1477  0.0052
  359loPI   C4B 5744   5.274   9.438   8.070  0.1697 -0.1227 -0.3269
  360loPI    C1 5745   6.303   9.680  10.949  0.0677 -0.0578  0.2257
  360loPI    C2 5746   6.654   9.850  11.039  0.1345  0.0504 -0.2149
  360loPI    C3 5747   6.344  10.078  10.929  0.0006 -0.0633 -0.0765
  360loPI   PO4 5748   6.394   9.513  10.754  0.0538  0.0861 -0.1776
  360loPI   GL1 5749   6.482   9.338  10.386 -0.2426  0.0676  0.2588
  360loPI   GL2 5750   6.510   9.113  10.267  0.1059  0.2017 -0.3394
  360loPI   C1A 5751   6.497   9.610   9.983  0.1797 -0.0571  0.0531
  360loPI   C2A 5752   6.574   9.559   9.487  0.1632  0.1746 -0.1365
  360loPI   C3A 5753   6.572   9.375   9.046  0.0958 -0.0264 -0.2924
  360loPI   C4A 5754   6.471   9.453   8.630  0.1920  0.0932  0.0304
  360loPI   C5A 5755   6.403   9.251   8.195 -0.1303 -0.1537  0.2617
  360loPI   C6A 5756   6.699   9.045   8.020  0.2075  0.2654 -0.0036
  360loPI   C1B 5757   6.228   9.084   9.983 -0.2346  0.1781 -0.0287
  360loPI   C2B 5758   6.215   8.996   9.604  0.1567  0.1953  0.0263
  360loPI   C3B 5759   6.316   8.991   9.284 -0.1198  0.0014 -0.0604
  360loPI   C4B 5760   6.231   8.891   8.866  0.1722 -0.2404 -0.1921
  361loPI    C1 5761  17.831  13.342  10.430 -0.1059 -0.0949  0.0132
  361loPI    C2 5762  17.728  13.076  10.709 -0.1929 -0.0789 -0.0036
  361loPI    C3 5763  17.583  13.043  10.338 -0.1954 -0.0144 -0.0085
  361loPI   PO4 5764  18.036  13.488  10.571  0.0288  0.0550  0.1030
  361loPI   GL1 5765  18.465  13.517  10.296  0.0613 -0.1204 -0.3949
  361loPI   GL2 5766  18.396  13.298  10.212  0.2422 -0.3270  0.2195
  361loPI   C1A 5767  18.479  13.797   9.855 -0.1520 -0.2223 -0.0339
  361loPI   C2A 5768  18.530  13.806   9.278 -0.1577  0.1254 -0.1850
  361loPI   C3A 5769  18.638  13.735   8.861  0.0519 -0.0364  0.0756
  361loPI   C4A 5770  18.588  13.572   8.436  0.0095 -0.1037 -0.1392
  361loPI   C5A 5771  18.383  13.592   8.080 -0.2743  0.0071 -0.0144
  361loPI   C6A 5772  18.252  13.772   7.679  0.0273  0.0436 -0.0882
  361loPI   C1B 5773  18.250  13.375   9.814 -0.2409  0.0230 -0.0360
  361loPI   C2B 5774  18.218  13.400   9.380  0.2119  0.0340 -0.1360
  361loPI   C3B 5775  18.233  13.406   8.912 -0.0762  0.0116  0.1739
  361loPI   C4B 5776  18.094  13.397   8.461 -0.2579 -0.2064 -0.0564
  362loPI    C1 5777   7.348   6.095  10.385 -0.1292  0.2143 -0.0436
  362loPI    C2 5778   7.331   5.987  10.770 -0.3551  0.1997 -0.0562
  362loPI    C3 5779   7.185   5.744  10.488 -0.0203  0.1257 -0.1699
  362loPI   PO4 5780   7.457   6.396  10.448  0.1359  0.1886  0.0441
  362loPI   GL1 5781   7.920   6.382  10.284  0.1007 -0.0693 -0.2257
  362loPI   GL2 5782   7.662   6.406   9.987  0.0652 -0.1282  0.1968
  362loPI   C1A 5783   8.139   6.360   9.888  0.2215  0.1054  0.0147
  362loPI   C2A 5784   8.152   6.234   9.500 -0.0486  0.3029  0.0474
  362loPI   C3A 5785   8.144   6.280   8.971  0.1453 -0.0428 -0.1265
  362loPI   C4A 5786   8.328   6.414   8.565 -0.1229 -0.0529  0.0006
  362loPI   C5A 5787   8.617   6.232   8.282 -0.1215  0.1578 -0.0854
  362loPI   C6A 5788   9.031   6.340   8.028 -0.0962  0.2358 -0.2333
  362loPI   C1B 5789   7.567   6.313   9.607  0.0566  0.2820  0.0377
  362loPI   C2B 5790   7.661   6.251   9.169  0.0285 -0.1170  0.1994
  362loPI   C3B 5791   7.662   6.244   8.757  0.2588 -0.1858 -0.0915
  362loPI   C4B 5792   7.924   6.203   8.464  0.2501 -0.1613 -0.2009
  363loPI    C1 5793   9.244   9.053  10.376  0.1526  0.2760 -0.0500
  363loPI    C2 5794   9.104   8.864  10.699  0.0303  0.1126 -0.1970
  363loPI    C3 5795   9.094   9.263  10.681 -0.0681  0.1177 -0.0475
  363loPI   PO4 5796   9.105   9.026  10.187 -0.2475  0.2549  0.1239
  363loPI   GL1 5797   8.880   9.281   9.796 -0.1110 -0.0100 -0.0384
  363loPI   GL2 5798   8.898   9.564   9.759 -0.0813 -0.1693  0.1402
  363loPI   C1A 5799   9.130   9.234   9.411  0.0982 -0.0533  0.0211
  363loPI   C2A 5800   9.101   9.294   9.045 -0.3874  0.2413  0.2700
  363loPI   C3A 5801   9.029   9.263   8.557  0.1596 -0.0813  0.0634
  363loPI   C4A 5802   9.148   9.200   8.139  0.0382  0.3597 -0.0911
  363loPI   C5A 5803   9.214   9.116   7.689  0.0020  0.1971  0.0756
  363loPI   C6A 5804   9.241   8.940   7.362  0.1649 -0.3378 -0.0029
  363loPI   C1B 5805   8.918   9.755   9.391 -0.2694  0.0337 -0.1203
  363loPI   C2B 5806   8.860   9.759   9.006  0.2144  0.0794 -0.3779
  363loPI   C3B 5807   8.752   9.713   8.654  0.2353  0.0267 -0.0088
  363loPI   C4B 5808   8.758   9.673   8.281 -0.0825 -0.1087 -0.2654
  364loPI    C1 5809   3.792  18.136  10.707  0.1433  0.2442 -0.1537
  364loPI    C2 5810   3.847  18.106  11.102  0.2109  0.2430 -0.1633
  364loPI    C3 5811   3.691  18.440  10.948 -0.1080  0.1241 -0.1042
  364loPI   PO4 5812   3.977  18.059  10.551  0.0083  0.2703 -0.1263
  364loPI   GL1 5813   4.035  17.952  10.095  0.1133  0.2069  0.0653
  364loPI   GL2 5814   4.121  17.639   9.918  0.2023 -0.1347 -0.3731
  364loPI   C1A 5815   3.966  18.126   9.693  0.3060 -0.1698 -0.0217
  364loPI   C2A 5816   3.908  18.172   9.260  0.0366 -0.1874  0.0404
  364loPI   C3A 5817   3.809  18.147   8.850  0.0038 -0.2520 -0.0946
  364loPI   C4A 5818   3.715  17.932   8.449 -0.1826 -0.1153  0.0297
  364loPI   C5A 5819   3.373  17.694   8.304  0.1520 -0.1039  0.0490
  364loPI   C6A 5820   3.128  17.682   7.943  0.0233  0.0135  0.0767
  364loPI   C1B 5821   4.123  17.725   9.458  0.0629 -0.3013  0.5119
  364loPI   C2B 5822   4.121  17.690   9.017 -0.0245 -0.0926 -0.0413
  364loPI   C3B 5823   4.342  17.664   8.622  0.0141  0.4195 -0.0706
  364loPI   C4B 5824   4.501  17.605   8.180 -0.0931 -0.1072 -0.0119
  365loPI    C1 5825  17.209  15.757  10.994  0.3058  0.2362  0.1547
  365loPI    C2 5826  16.968  16.033  11.156  0.0942  0.1775 -0.0544
  365loPI    C3 5827  16.987  15.667  11.315  0.0074  0.1675 -0.0671
  365loPI   PO4 5828  17.059  15.760  10.718 -0.3085 -0.2721 -0.1177
  365loPI   GL1 5829  16.623  15.865  10.484 -0.2729 -0.0120  0.2869
  365loPI   GL2 5830  16.341  16.095  10.388 -0.0289 -0.0592  0.1676
  365loPI   C1A 5831  16.628  15.882   9.997  0.3107  0.1119 -0.0306
  365loPI   C2A 5832  16.302  15.898   9.690 -0.2328 -0.2245  0.0358
  365loPI   C3A 5833  16.288  15.833   9.224 -0.0141 -0.1610 -0.0323
  365loPI   C4A 5834  16.265  15.940   8.819 -0.0871  0.2556 -0.2965
  365loPI   C5A 5835  16.136  15.861   8.459  0.3482 -0.0706 -0.0661
  365loPI   C6A 5836  15.790  15.723   8.141  0.1705 -0.0323 -0.0841
  365loPI   C1B 5837  16.268  16.279  10.041  0.1723  0.0002  0.1545
  365loPI   C2B 5838  16.159  16.370   9.619  0.2538  0.0064 -0.4501
  365loPI   C3B 5839  15.967  16.272   9.128  0.0124 -0.1294 -0.0123
  365loPI   C4B 5840  15.765  15.884   9.095 -0.1138 -0.0352  0.1958
  366loPI    C1 5841  12.599   1.132  10.841  0.2152  0.2302 -0.2062
  366loPI    C2 5842  12.582   0.756  10.704  0.2148  0.2302 -0.2060
  366loPI    C3 5843  12.792   0.840  11.034  0.1549  0.2177 -0.1646
  366loPI   PO4 5844  12.581   1.261  10.600 -0.2702 -0.1038 -0.0657
  366loPI   GL1 5845  12.565   1.451  10.192  0.1185  0.3404 -0.2027
  366loPI   GL2 5846  12.861   1.417  10.088 -0.1258  0.1448  0.1608
  366loPI   C1A 5847  12.394   1.574   9.768  0.1359  0.1285  0.1592
  366loPI   C2A 5848  12.330   1.687   9.402 -0.1192 -0.0093 -0.1122
  366loPI   C3A 5849  12.413   1.632   9.085 -0.0041 -0.2727 -0.1346
  366loPI   C4A 5850  12.220   1.637   8.673 -0.1819 -0.1102  0.2185
  366loPI   C5A 5851  12.333   1.568   8.243 -0.1398  0.0507 -0.0275
  366loPI   C6A 5852  12.291   1.862   7.929 -0.4654  0.0800 -0.0113
  366loPI   C1B 5853  12.915   1.280   9.643  0.1389 -0.1028  0.0723
  366loPI   C2B 5854  12.804   1.273   9.329  0.1810 -0.1159  0.0615
  366loPI   C3B 5855  12.732   1.321   8.895  0.0301  0.2610  0.1676
  366loPI   C4B 5856  12.605   1.273   8.484 -0.0105  0.1506  0.1441
  367loPI    C1 5857   8.800  18.000  10.944 -0.0319 -0.2174 -0.0230
  367loPI    C2 5858   8.778  17.966  11.342 -0.1511  0.2362  0.0144
  367loPI    C3 5859   9.130  17.923  11.157 -0.1221 -0.1371  0.1478
  367loPI   PO4 5860   8.529  18.009  10.839 -0.0008 -0.0962  0.1397
  367loPI   GL1 5861   8.338  18.213  10.466 -0.2125  0.0166  0.0423
  367loPI   GL2 5862   8.018  18.069  10.503 -0.0361 -0.0638 -0.1960
  367loPI   C1A 5863   8.234  18.189  10.098 -0.2149  0.2176 -0.0987
  367loPI   C2A 5864   7.942  18.019   9.754 -0.2994  0.0420  0.0080
  367loPI   C3A 5865   7.878  18.018   9.300  0.0353 -0.1220 -0.1713
  367loPI   C4A 5866   8.079  18.216   8.996 -0.2348  0.0249  0.0563
  367loPI   C5A 5867   8.328  18.343   8.672  0.0778  0.1730  0.0686
  367loPI   C6A 5868   8.613  18.342   8.367 -0.2804  0.0913  0.0107
  367loPI   C1B 5869   8.163  17.727  10.281  0.3046  0.2265 -0.0472
  367loPI   C2B 5870   8.214  17.598   9.891 -0.0200 -0.0764 -0.0140
  367loPI   C3B 5871   8.549  17.807   9.744  0.3082  0.1251 -0.0893
  367loPI   C4B 5872   8.788  18.147   9.866  0.2324 -0.0989 -0.0331
  368loPI    C1 5873  11.155  16.742  10.778  0.1490  0.0832 -0.0200
  368loPI    C2 5874  11.471  16.570  10.953  0.0980  0.1952  0.1856
  368loPI    C3 5875  11.480  16.960  10.860  0.1028  0.1494 -0.0109
  368loPI   PO4 5876  11.011  16.621  10.552 -0.1049  0.1103  0.1732
  368loPI   GL1 5877  11.101  16.539  10.139  0.0662 -0.0252 -0.0849
  368loPI   GL2 5878  11.247  16.636   9.946  0.3779 -0.0021  0.0237
  368loPI   C1A 5879  10.937  16.290   9.778 -0.0403 -0.2231 -0.0894
  368loPI   C2A 5880  10.829  16.194   9.435  0.1162  0.0270  0.2959
  368loPI   C3A 5881  10.869  16.088   9.044  0.1636  0.0065  0.2187
  368loPI   C4A 5882  10.723  16.001   8.559  0.0689 -0.1275 -0.2416
  368loPI   C5A 5883  10.532  16.268   8.602 -0.4275  0.0519  0.1417
  368loPI   C6A 5884  10.359  16.608   8.724 -0.3413 -0.1252  0.2694
  368loPI   C1B 5885  11.316  16.746   9.548  0.0271 -0.0383  0.1866
  368loPI   C2B 5886  11.466  16.815   9.120 -0.1879  0.3126 -0.0212
  368loPI   C3B 5887  11.376  16.828   8.696  0.1405  0.0501 -0.1440
  368loPI   C4B 5888  11.343  16.645   8.283  0.2984  0.0492 -0.1108
  369loPI    C1 5889   7.165  10.153  10.510 -0.0475  0.2129 -0.0082
  369loPI    C2 5890   7.496  10.185  10.732  0.0169  0.0792 -0.0839
  369loPI    C3 5891   7.148  10.326  10.870  0.1064  0.2270 -0.0072
  369loPI   PO4 5892   7.195  10.146  10.269 -0.0949 -0.0931  0.0439
  369loPI   GL1 5893   7.140  10.355   9.868  0.0011  0.2026  0.1987
  369loPI   GL2 5894   7.364  10.129   9.809  0.2181 -0.1036 -0.1920
  369loPI   C1A 5895   7.192  10.359   9.420  0.1339 -0.1052  0.0571
  369loPI   C2A 5896   7.076  10.382   9.026  0.1901  0.2739 -0.1672
  369loPI   C3A 5897   7.058  10.318   8.501 -0.1130  0.1108 -0.0529
  369loPI   C4A 5898   7.006  10.388   8.022 -0.0507 -0.1760 -0.0070
  369loPI   C5A 5899   6.619  10.332   7.682 -0.1987  0.0034  0.2067
  369loPI   C6A 5900   6.247  10.421   7.469  0.2435 -0.0510 -0.0288
  369loPI   C1B 5901   7.369   9.882   9.443 -0.1349  0.4011 -0.3200
  369loPI   C2B 5902   7.304   9.931   9.011 -0.2028  0.3079 -0.0254
  369loPI   C3B 5903   7.240   9.850   8.618  0.0781 -0.0374 -0.0829
  369loPI   C4B 5904   7.175   9.932   8.138 -0.0697  0.3153 -0.0635
  370loPI    C1 5905  14.393   6.060  10.448  0.0485  0.0176 -0.0383
  370loPI    C2 5906  14.031   5.931  10.559  0.0652 -0.0050 -0.0100
  370loPI    C3 5907  14.076   6.301  10.413  0.0091 -0.0485 -0.1392
  370loPI   PO4 5908  14.489   5.999  10.298  0.2198 -0.1137  0.1798
  370loPI   GL1 5909  14.309   5.929   9.842  0.0172  0.0809  0.1235
  370loPI   GL2 5910  14.069   5.891  10.065 -0.0160  0.0003 -0.1598
  370loPI   C1A 5911  14.272   5.955   9.480  0.0189  0.2976 -0.0166
  370loPI   C2A 5912  14.348   6.021   9.081 -0.0106  0.0717 -0.1215
  370loPI   C3A 5913  14.303   6.080   8.710  0.1833  0.0107  0.0885
  370loPI   C4A 5914  14.483   6.040   8.298  0.0736 -0.1262  0.0661
  370loPI   C5A 5915  14.391   5.813   7.978  0.1774 -0.3074  0.2448
  370loPI   C6A 5916  13.904   5.588   7.831  0.1089 -0.2404  0.0493
  370loPI   C1B 5917  13.856   5.781   9.622  0.0212 -0.1384  0.0323
  370loPI   C2B 5918  13.823   5.883   9.147  0.1201  0.0978 -0.3391
  370loPI   C3B 5919  13.792   5.954   8.692 -0.1752  0.1312  0.0871
  370loPI   C4B 5920  14.018   6.150   8.264 -0.0467  0.0685 -0.2051
  371loPI    C1 5921   1.658  13.090  10.728  0.0911  0.0245  0.2369
  371loPI    C2 5922   1.575  13.440  10.904  0.0686  0.0597  0.1567
  371loPI    C3 5923   1.685  13.125  11.126 -0.1447  0.0507  0.2516
  371loPI   PO4 5924   1.639  13.208  10.460  0.0866 -0.0613 -0.2137
  371loPI   GL1 5925   1.764  13.095  10.038 -0.0438 -0.0817  0.2510
  371loPI   GL2 5926   2.095  13.055   9.972 -0.3458  0.0572  0.1226
  371loPI   C1A 5927   1.585  13.172   9.678 -0.0401 -0.0626  0.2332
  371loPI   C2A 5928   1.694  13.274   9.272 -0.1705 -0.1205 -0.1921
  371loPI   C3A 5929   1.919  13.586   9.029 -0.1553  0.0467 -0.0098
  371loPI   C4A 5930   2.098  13.840   8.732  0.0378  0.1311 -0.2677
  371loPI   C5A 5931   2.057  13.701   8.307 -0.1137  0.0828  0.2984
  371loPI   C6A 5932   2.075  13.233   8.046 -0.1005 -0.0254 -0.0404
  371loPI   C1B 5933   1.975  13.406   9.725  0.1172  0.0349  0.0041
  371loPI   C2B 5934   1.906  13.720   9.499  0.0733 -0.0520  0.0394
  371loPI   C3B 5935   1.968  13.969   9.276  0.0647 -0.3209  0.0204
  371loPI   C4B 5936   1.841  14.252   9.084  0.0072  0.0197  0.2190
  372loPI    C1 5937   5.000   6.890  10.694  0.3113  0.2457  0.1309
  372loPI    C2 5938   4.641   7.014  10.818  0.1416  0.0248 -0.1298
  372loPI    C3 5939   4.917   6.905  11.085 -0.0630 -0.0180  0.0677
  372loPI   PO4 5940   4.928   6.755  10.378 -0.1275  0.0963 -0.0115
  372loPI   GL1 5941   4.643   6.581  10.142 -0.0519 -0.0304  0.1653
  372loPI   GL2 5942   4.586   6.280  10.067 -0.1361  0.1616 -0.0049
  372loPI   C1A 5943   4.762   6.727   9.610 -0.0931  0.1625 -0.4054
  372loPI   C2A 5944   4.856   6.771   9.203 -0.0776 -0.3024  0.0556
  372loPI   C3A 5945   4.867   6.846   8.781 -0.0226 -0.0524  0.1647
  372loPI   C4A 5946   4.915   6.755   8.393 -0.0018 -0.0827  0.0285
  372loPI   C5A 5947   5.234   6.583   8.117 -0.0383 -0.2931 -0.1057
  372loPI   C6A 5948   5.526   6.827   8.026 -0.0147 -0.1849  0.1170
  372loPI   C1B 5949   4.522   6.286   9.637  0.2413 -0.0116 -0.1973
  372loPI   C2B 5950   4.535   6.323   9.226  0.0930  0.4257 -0.4346
  372loPI   C3B 5951   4.622   6.428   8.817 -0.0932  0.1280 -0.0976
  372loPI   C4B 5952   4.586   6.372   8.437 -0.1259  0.0927  0.0433
  373loPI    C1 5953   4.973   5.734  11.163 -0.0342 -0.0037 -0.1056
  373loPI    C2 5954   4.916   6.065  11.380  0.0649  0.0521 -0.1640
  373loPI    C3 5955   5.120   5.758  11.534  0.0758  0.0647 -0.1532
  373loPI   PO4 5956   4.989   5.885  10.896  0.0412 -0.0553 -0.1848
  373loPI   GL1 5957   5.132   5.760  10.469  0.0419  0.0812 -0.0196
  373loPI   GL2 5958   4.988   5.517  10.252 -0.1015 -0.1227 -0.1645
  373loPI   C1A 5959   5.171   6.038  10.094 -0.0709  0.0783 -0.1821
  373loPI   C2A 5960   5.057   6.303   9.758 -0.1991 -0.0011  0.1137
  373loPI   C3A 5961   5.060   6.330   9.318 -0.0503 -0.0230  0.1379
  373loPI   C4A 5962   5.088   6.316   9.003 -0.1060  0.0881 -0.0123
  373loPI   C5A 5963   5.071   6.275   8.578  0.0776  0.1401  0.0602
  373loPI   C6A 5964   5.254   5.885   8.413 -0.1361 -0.2365  0.0150
  373loPI   C1B 5965   4.989   5.407   9.857  0.2860 -0.0085  0.3204
  373loPI   C2B 5966   5.115   5.359   9.406 -0.0298 -0.0609 -0.1142
  373loPI   C3B 5967   5.064   5.448   8.989  0.0640 -0.0001 -0.1139
  373loPI   C4B 5968   5.060   5.467   8.594  0.4479  0.0662 -0.1818
  374loPI    C1 5969   2.862   5.324  11.049  0.0060  0.1501  0.1241
  374loPI    C2 5970   3.213   5.465  11.178  0.1980 -0.2092  0.0066
  374loPI    C3 5971   2.877   5.671  11.249  0.4545  0.2496 -0.0719
  374loPI   PO4 5972   2.886   5.287  10.786 -0.2403 -0.0422  0.0726
  374loPI   GL1 5973   2.896   5.282  10.345  0.0817 -0.0312  0.1738
  374loPI   GL2 5974   3.120   5.088  10.113 -0.2133 -0.1889 -0.3555
  374loPI   C1A 5975   2.852   5.493   9.891  0.1902  0.2190 -0.0512
  374loPI   C2A 5976   2.969   5.526   9.445  0.0489 -0.1652 -0.0137
  374loPI   C3A 5977   2.959   5.571   8.990 -0.0986 -0.2417  0.1460
  374loPI   C4A 5978   3.015   5.383   8.561 -0.1123  0.2755  0.0052
  374loPI   C5A 5979   2.936   5.299   8.217  0.0013  0.2371  0.0176
  374loPI   C6A 5980   2.739   5.238   7.783 -0.1794  0.1340  0.2236
  374loPI   C1B 5981   3.207   5.176   9.728 -0.0769 -0.1243  0.1404
  374loPI   C2B 5982   3.187   5.141   9.282  0.2235  0.0430  0.1533
  374loPI   C3B 5983   3.264   5.035   8.876 -0.1091 -0.1795 -0.0149
  374loPI   C4B 5984   3.449   5.016   8.369 -0.0237 -0.0614  0.2605
  375loPI    C1 5985  11.816   2.789  10.778  0.0845  0.0190 -0.1067
  375loPI    C2 5986  11.909   2.431  10.930 -0.1716 -0.0892 -0.1996
  375loPI    C3 5987  11.617   2.649  11.095 -0.1001  0.0231 -0.2197
  375loPI   PO4 5988  12.017   2.859  10.604 -0.1562  0.1562 -0.0913
  375loPI   GL1 5989  12.137   2.819  10.142  0.3088 -0.1766 -0.0320
  375loPI   GL2 5990  12.365   2.602  10.232  0.1546 -0.0517  0.0303
  375loPI   C1A 5991  12.177   3.070   9.796  0.0139  0.1216 -0.2300
  375loPI   C2A 5992  12.262   3.115   9.456 -0.3718  0.1791 -0.0542
  375loPI   C3A 5993  12.143   3.142   8.988  0.0097 -0.2296 -0.1817
  375loPI   C4A 5994  12.209   3.060   8.557 -0.2973 -0.4315  0.1031
  375loPI   C5A 5995  12.327   2.819   8.250  0.1967  0.0847 -0.0718
  375loPI   C6A 5996  12.523   2.453   8.176 -0.1580  0.0463 -0.0085
  375loPI   C1B 5997  12.670   2.691   9.828 -0.0955  0.0563 -0.1997
  375loPI   C2B 5998  12.690   2.820   9.422  0.1762  0.0743  0.1975
  375loPI   C3B 5999  12.654   2.794   9.059  0.0544  0.0313  0.0028
  375loPI   C4B 6000  12.557   2.640   8.645 -0.0901  0.1295 -0.0442
  376loPI    C1 6001   2.757   8.054  10.676  0.0648  0.0516  0.0152
  376loPI    C2 6002   2.556   8.065  11.022 -0.2181 -0.0708 -0.1420
  376loPI    C3 6003   2.952   8.123  11.019 -0.2247  0.0110  0.1912
  376loPI   PO4 6004   2.573   7.891  10.490 -0.0606  0.2011 -0.1404
  376loPI   GL1 6005   2.516   7.937  10.034 -0.0320  0.0544 -0.0258
  376loPI   GL2 6006   2.300   7.986   9.860 -0.3545  0.1336 -0.0702
  376loPI   C1A 6007   2.748   7.827   9.628  0.1108 -0.4525 -0.1308
  376loPI   C2A 6008   2.784   7.728   9.215 -0.1100  0.2403 -0.3454
  376loPI   C3A 6009   2.760   7.670   8.805 -0.0860  0.1017  0.0595
  376loPI   C4A 6010   2.709   7.604   8.321 -0.0062  0.1201  0.0330
  376loPI   C5A 6011   2.880   7.969   8.042 -0.1057 -0.0606  0.0190
  376loPI   C6A 6012   3.306   8.013   8.101 -0.0146  0.0865  0.0146
  376loPI   C1B 6013   2.456   8.126   9.415 -0.1499  0.0762 -0.1246
  376loPI   C2B 6014   2.466   8.131   9.071 -0.2179 -0.0698  0.0442
  376loPI   C3B 6015   2.494   8.123   8.692  0.3567  0.4243 -0.0609
  376loPI   C4B 6016   2.348   8.030   8.265 -0.0972 -0.2088  0.1464
  377loPI    C1 6017  17.487   3.587  10.399  0.0659  0.2978  0.0509
  377loPI    C2 6018  17.243   3.818  10.618 -0.0840  0.0760  0.1208
  377loPI    C3 6019  17.600   3.708  10.763 -0.0359  0.2167  0.1101
  377loPI   PO4 6020  17.359   3.573  10.130 -0.1039 -0.2422 -0.0925
  377loPI   GL1 6021  17.107   3.634   9.704  0.0406 -0.0902 -0.0841
  377loPI   GL2 6022  17.355   3.687   9.459 -0.1900 -0.0833 -0.0184
  377loPI   C1A 6023  16.852   3.413   9.371 -0.0604  0.1184 -0.1048
  377loPI   C2A 6024  16.401   3.453   9.133 -0.0940  0.0151  0.1247
  377loPI   C3A 6025  16.309   3.116   8.801 -0.0550 -0.0807 -0.0095
  377loPI   C4A 6026  16.236   2.993   8.335 -0.0366  0.1758  0.1833
  377loPI   C5A 6027  16.126   2.757   7.941 -0.1399 -0.1266  0.1031
  377loPI   C6A 6028  15.888   2.657   7.609  0.2836  0.1759 -0.2016
  377loPI   C1B 6029  17.219   3.624   9.074 -0.1618 -0.2015 -0.1069
  377loPI   C2B 6030  16.856   3.482   8.884  0.2894  0.1374 -0.0924
  377loPI   C3B 6031  16.436   3.614   8.676  0.2281 -0.0064  0.0781
  377loPI   C4B 6032  16.329   3.482   8.270  0.0210  0.0282  0.1004
  378loPI    C1 6033  16.024  11.087  10.845 -0.0533 -0.1027 -0.0523
  378loPI    C2 6034  15.761  11.000  11.134  0.1165  0.0725  0.1587
  378loPI    C3 6035  16.012  11.309  11.177  0.3244 -0.0615 -0.0612
  378loPI   PO4 6036  15.953  10.945  10.696  0.1581  0.0277  0.1093
  378loPI   GL1 6037  16.052  11.141  10.340 -0.1604  0.5190  0.0766
  378loPI   GL2 6038  15.752  11.037  10.232 -0.2028 -0.0589 -0.1447
  378loPI   C1A 6039  16.119  11.266   9.919 -0.2739 -0.1919  0.1564
  378loPI   C2A 6040  16.172  11.316   9.442 -0.1537 -0.0899  0.2107
  378loPI   C3A 6041  16.208  11.362   8.986  0.0752  0.1866 -0.0019
  378loPI   C4A 6042  16.222  11.377   8.493  0.3757  0.3436 -0.1446
  378loPI   C5A 6043  15.933  11.577   8.193 -0.2078 -0.1196  0.1031
  378loPI   C6A 6044  15.466  11.628   8.309 -0.4165 -0.1415 -0.0572
  378loPI   C1B 6045  15.770  10.932   9.789 -0.4100  0.0373  0.0252
  378loPI   C2B 6046  15.829  10.953   9.355 -0.1825 -0.2003  0.1874
  378loPI   C3B 6047  15.875  11.004   8.905 -0.0412  0.0524  0.1143
  378loPI   C4B 6048  15.744  11.096   8.421 -0.2790 -0.0119 -0.1185
  379loPI    C1 6049  11.000   1.918  11.037 -0.0248  0.0733 -0.1099
  379loPI    C2 6050  11.281   1.658  10.919 -0.1458 -0.0756 -0.0739
  379loPI    C3 6051  11.058   1.578  11.241  0.0374  0.2274  0.1328
  379loPI   PO4 6052  10.905   2.005  10.858  0.2763 -0.0619 -0.2656
  379loPI   GL1 6053  10.838   2.142  10.453 -0.2703  0.0015  0.0750
  379loPI   GL2 6054  11.057   2.308  10.255 -0.0840 -0.0698  0.1937
  379loPI   C1A 6055  10.733   2.006   9.936  0.0753 -0.0385  0.3465
  379loPI   C2A 6056  10.696   2.117   9.509 -0.0325  0.0407  0.1818
  379loPI   C3A 6057  10.652   2.163   9.129  0.0596 -0.1117  0.0294
  379loPI   C4A 6058  10.590   2.136   8.737 -0.0865 -0.0742 -0.0512
  379loPI   C5A 6059  10.592   2.436   8.393  0.0565 -0.0115 -0.0962
  379loPI   C6A 6060  10.413   2.450   7.991  0.0922 -0.0631  0.1735
  379loPI   C1B 6061  11.111   2.310   9.790 -0.1569 -0.0058  0.0939
  379loPI   C2B 6062  11.076   2.342   9.296 -0.1176  0.0893 -0.1793
  379loPI   C3B 6063  11.038   2.345   8.846 -0.0884 -0.2552 -0.0281
  379loPI   C4B 6064  11.102   2.230   8.389  0.0776  0.2663 -0.1958
  380loPI    C1 6065   8.510  13.588  10.659 -0.0559 -0.0446  0.0228
  380loPI    C2 6066   8.347  13.394  10.968 -0.0664 -0.0054  0.0421
  380loPI    C3 6067   8.744  13.428  10.941 -0.0750  0.2582  0.2149
  380loPI   PO4 6068   8.438  13.549  10.439  0.1839 -0.0742 -0.4641
  380loPI   GL1 6069   8.418  13.621  10.069  0.0506  0.0586  0.1380
  380loPI   GL2 6070   8.066  13.442  10.020  0.0451 -0.1845 -0.0244
  380loPI   C1A 6071   8.491  13.937   9.731  0.1103 -0.0884  0.0705
  380loPI   C2A 6072   8.446  13.890   9.303 -0.2197  0.0953  0.2141
  380loPI   C3A 6073   8.472  13.843   8.901  0.0900  0.0327  0.1365
  380loPI   C4A 6074   8.440  13.855   8.540 -0.2590 -0.1583  0.1709
  380loPI   C5A 6075   8.594  13.736   8.134 -0.1637 -0.0764 -0.0576
  380loPI   C6A 6076   8.331  13.546   7.706 -0.1845  0.0410  0.1291
  380loPI   C1B 6077   8.197  13.477   9.654  0.1781  0.4411 -0.4462
  380loPI   C2B 6078   8.165  13.402   9.188 -0.0673  0.0155 -0.0626
  380loPI   C3B 6079   8.092  13.386   8.694 -0.1228 -0.0736  0.1549
  380loPI   C4B 6080   8.182  13.507   8.252  0.2857  0.3583 -0.0441
  381loPI    C1 6081  11.885  11.251  10.783 -0.1080  0.0892  0.0617
  381loPI    C2 6082  12.219  11.466  10.729 -0.1090  0.1680  0.3516
  381loPI    C3 6083  12.193  11.210  11.035 -0.0612 -0.3439 -0.0575
  381loPI   PO4 6084  11.851  11.173  10.524  0.1183 -0.0030  0.0931
  381loPI   GL1 6085  11.630  11.450  10.243 -0.1299  0.0168 -0.1917
  381loPI   GL2 6086  12.038  11.503  10.150  0.2252 -0.0168  0.2933
  381loPI   C1A 6087  11.636  11.458   9.844 -0.1346 -0.0420 -0.1028
  381loPI   C2A 6088  11.657  11.449   9.408 -0.0134 -0.0853  0.1636
  381loPI   C3A 6089  11.627  11.429   8.989  0.2217  0.2609  0.1594
  381loPI   C4A 6090  11.635  11.567   8.607 -0.1700 -0.1628 -0.0605
  381loPI   C5A 6091  11.450  11.609   8.152  0.2096  0.4056  0.3315
  381loPI   C6A 6092  11.283  11.846   7.794 -0.1997  0.2244 -0.3861
  381loPI   C1B 6093  12.139  11.450   9.671  0.0352 -0.0754  0.3874
  381loPI   C2B 6094  12.228  11.358   9.273  0.1662  0.3186  0.0093
  381loPI   C3B 6095  12.091  11.604   8.928  0.0747 -0.1005  0.1728
  381loPI   C4B 6096  12.163  11.804   8.547  0.0832 -0.1987  0.1454
  382loPI    C1 6097   5.649   7.650  10.765  0.1128 -0.0762  0.3334
  382loPI    C2 6098   5.278   7.799  10.746  0.0473 -0.2762 -0.0581
  382loPI    C3 6099   5.419   7.656  11.092 -0.2321 -0.1801  0.0980
  382loPI   PO4 6100   5.696   7.577  10.531  0.1880 -0.0903 -0.0587
  382loPI   GL1 6101   5.497   7.497  10.077 -0.2303  0.1199 -0.0714
  382loPI   GL2 6102   5.826   7.616   9.946 -0.2282 -0.1077  0.3405
  382loPI   C1A 6103   5.433   7.682   9.541 -0.1354 -0.0264 -0.0225
  382loPI   C2A 6104   5.385   7.666   9.140  0.0513 -0.1444  0.2048
  382loPI   C3A 6105   5.424   7.720   8.688  0.1387  0.1714 -0.1878
  382loPI   C4A 6106   5.140   7.809   8.383 -0.0614 -0.1815 -0.1436
  382loPI   C5A 6107   5.042   8.104   8.097  0.3895 -0.0577 -0.0563
  382loPI   C6A 6108   5.013   8.259   7.672  0.1099  0.4792 -0.3734
  382loPI   C1B 6109   5.960   7.693   9.428 -0.1273  0.0209  0.1963
  382loPI   C2B 6110   5.909   7.661   9.051  0.1811 -0.0775  0.1706
  382loPI   C3B 6111   5.918   7.708   8.612 -0.1311 -0.1194 -0.1726
  382loPI   C4B 6112   6.153   7.665   8.181  0.1968  0.0735  0.1320
  383loPI    C1 6113   1.899  10.398  10.816 -0.3146 -0.3033 -0.0191
  383loPI    C2 6114   1.714  10.733  10.697  0.0003 -0.1111  0.0202
  383loPI    C3 6115   1.611  10.559  11.042 -0.2628 -0.1378 -0.0694
  383loPI   PO4 6116   2.007  10.263  10.511 -0.0889  0.4405 -0.0682
  383loPI   GL1 6117   1.911  10.074  10.289  0.0827  0.1417  0.4090
  383loPI   GL2 6118   1.745   9.880  10.188  0.0432 -0.0796 -0.2753
  383loPI   C1A 6119   2.111   9.978   9.845  0.1532 -0.2254 -0.3344
  383loPI   C2A 6120   2.100   9.925   9.395  0.1326 -0.1748  0.1254
  383loPI   C3A 6121   2.187  10.004   8.910 -0.3229  0.0124 -0.1199
  383loPI   C4A 6122   2.182   9.910   8.535 -0.2090 -0.0666  0.0378
  383loPI   C5A 6123   2.607   9.893   8.338 -0.2386 -0.2490  0.2748
  383loPI   C6A 6124   2.863   9.930   7.898  0.3039  0.0406  0.0367
  383loPI   C1B 6125   1.627   9.958   9.716 -0.3804 -0.1636 -0.1582
  383loPI   C2B 6126   1.613  10.029   9.247  0.2706 -0.1434 -0.0787
  383loPI   C3B 6127   1.635  10.072   8.876 -0.0195 -0.2219 -0.0985
  383loPI   C4B 6128   1.595  10.065   8.493  0.2128  0.0024 -0.0581
  384loPI    C1 6129   9.165  11.402  10.474  0.1757 -0.0359 -0.1470
  384loPI    C2 6130   9.092  11.110  10.738 -0.1215  0.0899 -0.0859
  384loPI    C3 6131   9.254  11.455  10.860  0.1658 -0.0199 -0.1470
  384loPI   PO4 6132   9.193  11.306  10.303 -0.0345 -0.1378  0.2756
  384loPI   GL1 6133   9.643  11.337  10.034  0.0081 -0.0666  0.2294
  384loPI   GL2 6134   9.444  11.149   9.891  0.4884 -0.0563 -0.1443
  384loPI   C1A 6135   9.784  11.360   9.585 -0.1202 -0.1235  0.0922
  384loPI   C2A 6136   9.817  11.428   9.150 -0.1884  0.2674 -0.0829
  384loPI   C3A 6137   9.651  11.342   8.736  0.0574 -0.1483  0.1056
  384loPI   C4A 6138   9.643  11.268   8.189  0.0796  0.2128 -0.1621
  384loPI   C5A 6139   9.587  11.510   7.842  0.1333 -0.2666 -0.1734
  384loPI   C6A 6140   9.613  11.833   7.565 -0.1712 -0.1257  0.2108
  384loPI   C1B 6141   9.380  11.054   9.414  0.0604 -0.0071 -0.0336
  384loPI   C2B 6142   9.314  11.074   8.976  0.0131  0.1351  0.1046
  384loPI   C3B 6143   9.097  11.030   8.578  0.1890 -0.3590 -0.2187
  384loPI   C4B 6144   9.077  11.136   8.165  0.0183  0.1552 -0.1364
  385loPI    C1 6145   1.291   4.475  10.922 -0.0014 -0.0670 -0.0541
  385loPI    C2 6146   1.655   4.628  10.987 -0.0554  0.0800 -0.0944
  385loPI    C3 6147   1.418   4.536  11.296 -0.0510  0.1464 -0.0713
  385loPI   PO4 6148   1.227   4.537  10.630 -0.0897  0.0475 -0.2047
  385loPI   GL1 6149   1.411   4.449  10.265 -0.2027  0.2178  0.0571
  385loPI   GL2 6150   1.145   4.617  10.059 -0.0726  0.0448  0.1063
  385loPI   C1A 6151   1.224   4.163   9.898 -0.0648 -0.0838  0.2519
  385loPI   C2A 6152   1.071   4.273   9.444  0.1352 -0.0680 -0.4084
  385loPI   C3A 6153   1.080   4.215   8.981  0.1271  0.0908 -0.0740
  385loPI   C4A 6154   1.185   4.298   8.536 -0.1829  0.1565  0.0585
  385loPI   C5A 6155   0.964   4.194   8.151 -0.1207 -0.1975 -0.3971
  385loPI   C6A 6156   0.610   4.047   7.904  0.4415  0.1855  0.0341
  385loPI   C1B 6157   1.306   4.704   9.697  0.1296 -0.0358  0.2005
  385loPI   C2B 6158   1.361   4.661   9.313 -0.1709  0.0154  0.1784
  385loPI   C3B 6159   1.410   4.657   8.938 -0.0515  0.3850  0.0635
  385loPI   C4B 6160   1.401   4.809   8.460  0.2102 -0.3580  0.0914
  386loPI    C1 6161   1.877   2.861  10.901  0.1228  0.0103 -0.1585
  386loPI    C2 6162   2.081   2.614  11.140  0.0045 -0.0013 -0.0683
  386loPI    C3 6163   1.817   2.870  11.296  0.0354  0.0957 -0.1734
  386loPI   PO4 6164   1.891   2.692  10.664 -0.1189  0.1195 -0.0692
  386loPI   GL1 6165   2.027   2.606  10.258  0.1146  0.2243 -0.3131
  386loPI   GL2 6166   1.709   2.753  10.195  0.0774 -0.2799 -0.0007
  386loPI   C1A 6167   2.093   2.424   9.791  0.1652  0.1685  0.1540
  386loPI   C2A 6168   2.168   2.425   9.298  0.2980 -0.3137 -0.2034
  386loPI   C3A 6169   2.055   2.443   8.757  0.0012 -0.3555 -0.2396
  386loPI   C4A 6170   2.068   2.254   8.413  0.1132  0.1877  0.2129
  386loPI   C5A 6171   2.187   1.985   8.038 -0.0042  0.2036  0.0725
  386loPI   C6A 6172   2.087   1.864   7.638  0.2926  0.0616 -0.2515
  386loPI   C1B 6173   1.838   2.869   9.838 -0.0129  0.0281 -0.3478
  386loPI   C2B 6174   1.904   2.864   9.376  0.0099 -0.1204 -0.0992
  386loPI   C3B 6175   1.932   2.945   8.953  0.0035 -0.1499 -0.2312
  386loPI   C4B 6176   2.029   2.931   8.457  0.0550  0.3386  0.0756
  387loPI    C1 6177  11.065   5.455  11.006 -0.0141 -0.0267 -0.2271
  387loPI    C2 6178  10.696   5.605  10.971 -0.0843 -0.1129  0.1093
  387loPI    C3 6179  10.747   5.217  11.053  0.0871 -0.1509 -0.1652
  387loPI   PO4 6180  11.160   5.559  10.739  0.1563  0.2431  0.2701
  387loPI   GL1 6181  11.245   5.236  10.314  0.1165  0.0634 -0.0606
  387loPI   GL2 6182  11.489   5.503  10.274  0.1738  0.1665 -0.2165
  387loPI   C1A 6183  11.373   5.205   9.867 -0.0796  0.0395  0.3278
  387loPI   C2A 6184  11.321   5.244   9.409  0.1610  0.1072  0.0702
  387loPI   C3A 6185  11.350   5.115   8.974 -0.0956  0.1796  0.0960
  387loPI   C4A 6186  11.304   5.175   8.509  0.2979 -0.1727  0.4268
  387loPI   C5A 6187  11.087   5.307   8.130  0.1170 -0.0524  0.0170
  387loPI   C6A 6188  10.878   5.266   7.683 -0.0172  0.0809  0.0739
  387loPI   C1B 6189  11.847   5.443  10.007 -0.1332 -0.2391  0.2240
  387loPI   C2B 6190  11.822   5.328   9.571  0.2043 -0.1641  0.1120
  387loPI   C3B 6191  11.828   5.315   9.089  0.0116 -0.1744  0.1320
  387loPI   C4B 6192  11.802   5.336   8.663  0.3582  0.2222 -0.1492
  388loPI    C1 6193   9.601  11.092  10.531  0.0600 -0.1530  0.0505
  388loPI    C2 6194   9.493  10.772  10.746  0.1262 -0.1280  0.1213
  388loPI    C3 6195   9.602  11.110  10.931  0.1811 -0.1057  0.0484
  388loPI   PO4 6196   9.797  11.021  10.374 -0.2180 -0.1280  0.1293
  388loPI   GL1 6197   9.793  10.688  10.074  0.1803 -0.3182  0.0614
  388loPI   GL2 6198  10.060  10.557  10.023 -0.1520 -0.0787  0.0700
  388loPI   C1A 6199   9.581  10.690   9.718  0.0178  0.1630 -0.0881
  388loPI   C2A 6200   9.537  10.651   9.229 -0.4679 -0.0926 -0.0152
  388loPI   C3A 6201   9.336  10.598   8.815 -0.3494  0.1486  0.0481
  388loPI   C4A 6202   9.197  10.556   8.370 -0.0013  0.2984 -0.2729
  388loPI   C5A 6203   9.419  10.791   8.053 -0.2143  0.2429 -0.0594
  388loPI   C6A 6204   9.331  11.079   7.716 -0.0592 -0.2660  0.2579
  388loPI   C1B 6205  10.043  10.627   9.597  0.1215 -0.2366  0.0622
  388loPI   C2B 6206  10.099  10.789   9.218  0.0956  0.0864  0.0586
  388loPI   C3B 6207   9.903  10.876   8.881  0.0221 -0.0434 -0.1921
  388loPI   C4B 6208   9.648  10.842   8.535 -0.0491 -0.1293  0.0068
  389loPI    C1 6209   4.609  11.480  10.220  0.0166  0.0933 -0.0238
  389loPI    C2 6210   4.862  11.790  10.204  0.0917  0.0389  0.0914
  389loPI    C3 6211   4.664  11.711  10.542  0.0313 -0.0065  0.0458
  389loPI   PO4 6212   4.783  11.319  10.098 -0.0234  0.1923 -0.0149
  389loPI   GL1 6213   5.044  11.255   9.695 -0.0053  0.1390 -0.0509
  389loPI   GL2 6214   4.755  11.590   9.731  0.1047 -0.2552  0.3601
  389loPI   C1A 6215   5.041  11.211   9.226 -0.3578 -0.1125 -0.0026
  389loPI   C2A 6216   4.934  11.300   8.794  0.0887  0.0661 -0.1287
  389loPI   C3A 6217   5.040  11.450   8.376 -0.1446 -0.0070  0.2021
  389loPI   C4A 6218   5.285  11.441   7.977 -0.1811 -0.1058  0.3863
  389loPI   C5A 6219   5.730  11.476   7.867  0.0359  0.0650 -0.0507
  389loPI   C6A 6220   6.069  11.560   8.091 -0.0936 -0.1013  0.1484
  389loPI   C1B 6221   4.831  11.632   9.279  0.1278 -0.0864 -0.1277
  389loPI   C2B 6222   4.798  11.807   8.796 -0.0059 -0.1290  0.1077
  389loPI   C3B 6223   4.717  11.807   8.353 -0.2982 -0.1258  0.0190
  389loPI   C4B 6224   4.794  11.656   8.002  0.2001  0.2145  0.0808
  390loPI    C1 6225  17.347   9.188  11.251 -0.3103  0.0351 -0.0949
  390loPI    C2 6226  17.650   9.238  11.507 -0.0728  0.1446 -0.3915
  390loPI    C3 6227  17.311   9.065  11.630  0.1054  0.0259 -0.0539
  390loPI   PO4 6228  17.407   9.275  11.024 -0.0028  0.0578  0.2139
  390loPI   GL1 6229  17.116   9.514  10.641  0.2259  0.0630 -0.4139
  390loPI   GL2 6230  16.929   9.397  10.666 -0.0075 -0.3172  0.0876
  390loPI   C1A 6231  17.203   9.681  10.188  0.0662  0.4428  0.2140
  390loPI   C2A 6232  17.366   9.781   9.825  0.0845 -0.0596 -0.1255
  390loPI   C3A 6233  17.332   9.942   9.411  0.3079  0.3444 -0.0840
  390loPI   C4A 6234  17.274   9.831   9.009  0.0500 -0.0607  0.3006
  390loPI   C5A 6235  17.222   9.781   8.562 -0.1228  0.0947 -0.0152
  390loPI   C6A 6236  17.274   9.998   8.163 -0.3101 -0.3113 -0.1541
  390loPI   C1B 6237  16.821   9.389  10.167 -0.1809 -0.1682  0.0835
  390loPI   C2B 6238  16.950   9.506   9.734  0.1294 -0.0294  0.0109
  390loPI   C3B 6239  16.919   9.505   9.305 -0.1926 -0.0440  0.2109
  390loPI   C4B 6240  17.054   9.422   8.893 -0.1758 -0.0603 -0.1449
  391loPI    C1 6241   3.106   3.642  10.898 -0.0413 -0.1325  0.0402
  391loPI    C2 6242   3.491   3.588  10.992 -0.0464 -0.0478  0.1110
  391loPI    C3 6243   3.221   3.310  11.091 -0.0307 -0.0236  0.2238
  391loPI   PO4 6244   3.127   3.673  10.660  0.1101  0.1777  0.3576
  391loPI   GL1 6245   3.019   3.488  10.246 -0.0886 -0.1163  0.1574
  391loPI   GL2 6246   3.264   3.201  10.081 -0.2233  0.3011  0.0471
  391loPI   C1A 6247   2.894   3.578   9.848 -0.0137  0.0987  0.1993
  391loPI   C2A 6248   2.911   3.666   9.395  0.0516  0.1668  0.2217
  391loPI   C3A 6249   2.955   3.791   8.978 -0.2884 -0.1570 -0.0021
  391loPI   C4A 6250   2.968   3.678   8.514 -0.0246  0.1902  0.0509
  391loPI   C5A 6251   2.928   3.678   8.188  0.2028  0.0824 -0.0715
  391loPI   C6A 6252   2.642   3.799   7.849 -0.1370  0.3574 -0.2605
  391loPI   C1B 6253   3.186   3.197   9.689  0.1050 -0.1206 -0.1231
  391loPI   C2B 6254   3.180   3.302   9.239 -0.0746  0.0197  0.2624
  391loPI   C3B 6255   3.113   3.240   8.796 -0.3506  0.0072 -0.3548
  391loPI   C4B 6256   3.056   3.210   8.374  0.2513  0.1213  0.0258
  392loPI    C1 6257   9.857  12.994  10.486 -0.0386 -0.0206 -0.0465
  392loPI    C2 6258  10.110  12.894  10.779 -0.0500 -0.0467 -0.0457
  392loPI    C3 6259   9.715  12.874  10.840 -0.0527  0.1217 -0.0033
  392loPI   PO4 6260  10.007  12.875  10.227  0.0838  0.0241  0.6249
  392loPI   GL1 6261   9.817  12.807   9.870  0.1463  0.1419 -0.1251
  392loPI   GL2 6262   9.737  12.602   9.611 -0.1686  0.1764 -0.2811
  392loPI   C1A 6263   9.627  13.046   9.528 -0.0094 -0.0208 -0.2725
  392loPI   C2A 6264   9.565  13.162   9.084 -0.0971  0.1366 -0.2922
  392loPI   C3A 6265   9.764  13.032   8.834 -0.0788  0.1301  0.0937
  392loPI   C4A 6266  10.063  13.108   8.543  0.1797 -0.0431  0.0405
  392loPI   C5A 6267  10.273  13.204   8.183 -0.0486 -0.1554  0.0791
  392loPI   C6A 6268  10.366  12.933   7.857 -0.1917  0.1000 -0.0944
  392loPI   C1B 6269   9.695  12.603   9.198 -0.1858  0.0605  0.1788
  392loPI   C2B 6270   9.548  12.586   8.715 -0.1086 -0.2004  0.0068
  392loPI   C3B 6271   9.716  12.583   8.268 -0.0609  0.0486 -0.0166
  392loPI   C4B 6272   9.876  12.907   8.018  0.1891  0.1126 -0.1330
  393loPI    C1 6273   5.333   5.376  11.053 -0.2036 -0.2818 -0.2227
  393loPI    C2 6274   5.109   5.294  11.374 -0.0168  0.1336  0.0222
  393loPI    C3 6275   5.433   5.073  11.294 -0.0038  0.0937  0.1815
  393loPI   PO4 6276   5.225   5.418  10.850 -0.1253 -0.1034 -0.3998
  393loPI   GL1 6277   5.153   5.119  10.528 -0.1213 -0.2079 -0.0409
  393loPI   GL2 6278   4.854   5.088  10.435  0.1298 -0.1070 -0.0626
  393loPI   C1A 6279   5.248   5.090  10.076 -0.0286 -0.0812 -0.2327
  393loPI   C2A 6280   5.293   4.946   9.688 -0.0991 -0.0236  0.1046
  393loPI   C3A 6281   5.289   4.887   9.291  0.6006  0.0008 -0.1383
  393loPI   C4A 6282   5.348   4.939   8.832  0.1390 -0.1443  0.3506
  393loPI   C5A 6283   5.280   4.981   8.436  0.0689 -0.0779 -0.2970
  393loPI   C6A 6284   5.019   5.169   8.045 -0.2551  0.0720 -0.1798
  393loPI   C1B 6285   4.770   5.011  10.018  0.0795  0.1769 -0.0749
  393loPI   C2B 6286   4.733   4.927   9.580  0.0265 -0.0570  0.1376
  393loPI   C3B 6287   4.847   4.989   9.159  0.2968 -0.0467  0.0692
  393loPI   C4B 6288   4.797   4.985   8.752 -0.0082 -0.0336  0.1219
  394loPI    C1 6289   9.194  13.234  10.710 -0.2244 -0.1033  0.1038
  394loPI    C2 6290   9.426  13.320  11.024 -0.0133  0.1107 -0.1066
  394loPI    C3 6291   9.220  13.610  10.842 -0.2116 -0.0286 -0.1073
  394loPI   PO4 6292   9.360  13.137  10.557  0.2104 -0.0254  0.1875
  394loPI   GL1 6293   9.556  13.222  10.122  0.2755  0.0060  0.0374
  394loPI   GL2 6294   9.235  13.194  10.025  0.0474 -0.0732  0.1887
  394loPI   C1A 6295   9.677  13.534   9.756 -0.0427  0.1104 -0.2209
  394loPI   C2A 6296   9.564  13.642   9.343  0.0081 -0.0298  0.0899
  394loPI   C3A 6297   9.514  13.707   8.851 -0.1981 -0.2126 -0.0715
  394loPI   C4A 6298   9.637  13.438   8.538  0.0926  0.1709  0.1290
  394loPI   C5A 6299   9.557  13.083   8.334  0.1273 -0.4060 -0.0777
  394loPI   C6A 6300   9.238  12.816   8.383  0.1639  0.0037 -0.0248
  394loPI   C1B 6301   9.196  13.304   9.469  0.1032 -0.0175 -0.1348
  394loPI   C2B 6302   9.044  13.081   9.135  0.1331  0.4128  0.2605
  394loPI   C3B 6303   9.036  13.098   8.709  0.2141  0.1784 -0.1974
  394loPI   C4B 6304   8.780  12.838   8.519  0.1222 -0.1617 -0.0531
  395loPI    C1 6305  13.468   7.235  10.663  0.2677  0.0038 -0.0334
  395loPI    C2 6306  13.588   7.597  10.543  0.1920 -0.0044 -0.1346
  395loPI    C3 6307  13.587   7.506  10.932  0.1305  0.1333 -0.1024
  395loPI   PO4 6308  13.576   7.135  10.377  0.2685 -0.0018  0.1054
  395loPI   GL1 6309  13.459   7.196   9.943  0.1718 -0.3505  0.3286
  395loPI   GL2 6310  13.182   7.014  10.038 -0.1220  0.0240  0.2725
  395loPI   C1A 6311  13.627   7.210   9.535  0.0028  0.0498  0.0201
  395loPI   C2A 6312  13.550   7.265   9.156  0.3462 -0.0104  0.1049
  395loPI   C3A 6313  13.561   7.235   8.724  0.0418  0.1257  0.0154
  395loPI   C4A 6314  13.333   7.260   8.408 -0.2670  0.2583  0.3133
  395loPI   C5A 6315  12.928   7.474   8.333  0.0226  0.2557  0.3356
  395loPI   C6A 6316  12.451   7.417   8.446 -0.2596 -0.1547 -0.0901
  395loPI   C1B 6317  13.135   6.974   9.621  0.0997 -0.1354  0.1249
  395loPI   C2B 6318  13.042   7.089   9.148  0.0743  0.0814 -0.1350
  395loPI   C3B 6319  13.089   7.372   8.853  0.0960  0.0589  0.4652
  395loPI   C4B 6320  12.902   7.801   8.737  0.1969 -0.0517  0.0314
  396loPI    C1 6321  16.225   5.603  10.454 -0.2148  0.0412  0.0708
  396loPI    C2 6322  16.217   5.983  10.578 -0.2866  0.0343  0.0878
  396loPI    C3 6323  16.162   5.685  10.840  0.0543  0.0006  0.1251
  396loPI   PO4 6324  16.385   5.520  10.341  0.2326  0.1380  0.1184
  396loPI   GL1 6325  16.426   5.326  10.047  0.1861  0.0681 -0.0710
  396loPI   GL2 6326  16.445   5.624   9.844 -0.1339 -0.3072 -0.0006
  396loPI   C1A 6327  16.461   5.112   9.696 -0.2117  0.1557  0.0568
  396loPI   C2A 6328  16.421   5.105   9.224 -0.1022 -0.1217 -0.0004
  396loPI   C3A 6329  16.330   5.326   8.859  0.0425  0.1287  0.3453
  396loPI   C4A 6330  16.362   5.332   8.372 -0.1766 -0.1884 -0.1532
  396loPI   C5A 6331  16.180   5.314   7.938 -0.2338 -0.1138  0.3155
  396loPI   C6A 6332  16.132   5.557   7.478 -0.3257 -0.2877  0.0099
  396loPI   C1B 6333  16.646   5.511   9.467 -0.1678 -0.0706  0.2147
  396loPI   C2B 6334  16.833   5.430   9.064  0.0822 -0.2667  0.1565
  396loPI   C3B 6335  16.787   5.472   8.586 -0.1952 -0.3409  0.0549
  396loPI   C4B 6336  16.820   5.546   8.181  0.2281  0.2212 -0.1942
  397loPI    C1 6337   5.346   4.632  10.841  0.0160 -0.0433 -0.1618
  397loPI    C2 6338   5.413   4.249  10.933 -0.1011 -0.0166  0.0428
  397loPI    C3 6339   5.388   4.522  11.224  0.1511  0.1754 -0.1120
  397loPI   PO4 6340   5.164   4.622  10.658  0.0968 -0.0676  0.2293
  397loPI   GL1 6341   4.945   4.613  10.306 -0.0841  0.0267  0.0286
  397loPI   GL2 6342   4.911   4.283  10.271  0.1396  0.0553 -0.1786
  397loPI   C1A 6343   4.891   4.477   9.813  0.2319 -0.0591  0.0078
  397loPI   C2A 6344   4.994   4.445   9.418  0.1252 -0.1202  0.0785
  397loPI   C3A 6345   5.089   4.508   8.981 -0.2490 -0.1795 -0.0878
  397loPI   C4A 6346   5.065   4.512   8.541 -0.0907 -0.3192 -0.1102
  397loPI   C5A 6347   4.766   4.714   8.235  0.0499 -0.1213 -0.0639
  397loPI   C6A 6348   4.358   4.675   8.127  0.6135  0.0302  0.2325
  397loPI   C1B 6349   4.512   4.402  10.065 -0.1091 -0.1311 -0.0850
  397loPI   C2B 6350   4.444   4.467   9.609 -0.3017 -0.3975  0.1134
  397loPI   C3B 6351   4.506   4.554   9.159 -0.4798 -0.1292  0.0826
  397loPI   C4B 6352   4.548   4.558   8.695  0.1947 -0.0067 -0.1616
  398loPI    C1 6353  10.861  11.153  10.373  0.0062 -0.1025 -0.1279
  398loPI    C2 6354  10.717  11.015  10.720  0.0502 -0.0730 -0.0978
  398loPI    C3 6355  10.547  11.331  10.545  0.0888 -0.0277 -0.0535
  398loPI   PO4 6356  10.853  11.018  10.178  0.2064 -0.2865 -0.3339
  398loPI   GL1 6357  10.712  10.974   9.860 -0.1849 -0.3815  0.3171
  398loPI   GL2 6358  10.554  10.739   9.974  0.0090  0.4036  0.0318
  398loPI   C1A 6359  10.873  11.091   9.481 -0.2524 -0.0938  0.1090
  398loPI   C2A 6360  10.833  11.080   9.067  0.1316  0.3331 -0.1476
  398loPI   C3A 6361  10.877  10.974   8.644 -0.0387 -0.1595 -0.2402
  398loPI   C4A 6362  11.024  10.807   8.191  0.1036 -0.1936 -0.0384
  398loPI   C5A 6363  11.006  10.408   8.031  0.1455  0.3421  0.1806
  398loPI   C6A 6364  10.689  10.094   7.957  0.0196  0.0640  0.2149
  398loPI   C1B 6365  10.588  10.684   9.477 -0.1520 -0.1151  0.0170
  398loPI   C2B 6366  10.538  10.690   8.981  0.2310 -0.0123  0.3851
  398loPI   C3B 6367  10.328  10.863   8.636 -0.2812 -0.3236  0.3181
  398loPI   C4B 6368  10.089  11.136   8.348 -0.2035 -0.0571  0.1094
  399loPI    C1 6369  14.280   0.403  10.635  0.0566 -0.0337 -0.1415
  399loPI    C2 6370  14.075   0.650  10.874  0.0388 -0.1288 -0.0577
  399loPI    C3 6371  14.154   0.276  10.993  0.2170 -0.1094 -0.1109
  399loPI   PO4 6372  14.265   0.571  10.367  0.0185  0.2037 -0.1197
  399loPI   GL1 6373  14.422   0.810  10.108 -0.0905 -0.0723 -0.0260
  399loPI   GL2 6374  14.114   0.936  10.022  0.4720  0.2084  0.3200
  399loPI   C1A 6375  14.569   1.032   9.760 -0.0441  0.0838 -0.0520
  399loPI   C2A 6376  14.582   1.015   9.252 -0.3545 -0.1978 -0.2085
  399loPI   C3A 6377  14.450   0.893   8.901 -0.0704 -0.2253  0.1809
  399loPI   C4A 6378  14.427   0.825   8.550 -0.0950  0.1710 -0.1954
  399loPI   C5A 6379  14.674   0.916   8.123 -0.0567 -0.2149 -0.0888
  399loPI   C6A 6380  15.055   1.182   7.958 -0.0725 -0.0173  0.1151
  399loPI   C1B 6381  14.035   0.873   9.603 -0.0356 -0.0313  0.2754
  399loPI   C2B 6382  13.993   0.875   9.220  0.0805  0.0835  0.3376
  399loPI   C3B 6383  13.956   0.772   8.796 -0.0804  0.1267  0.2224
  399loPI   C4B 6384  13.872   0.668   8.352 -0.1958 -0.1403  0.0605
  400loPI    C1 6385   2.474   3.210  10.867 -0.1769 -0.1560 -0.0800
  400loPI    C2 6386   2.847   3.223  10.723 -0.1775 -0.1054 -0.0772
  400loPI    C3 6387   2.581   3.500  10.613 -0.1077  0.0830  0.2170
  400loPI   PO4 6388   2.368   2.979  10.794  0.3319  0.0921 -0.0202
  400loPI   GL1 6389   2.375   2.926  10.435 -0.1216  0.0312 -0.0184
  400loPI   GL2 6390   2.644   2.970  10.335  0.1371  0.0418 -0.3043
  400loPI   C1A 6391   2.185   3.069  10.117  0.2492 -0.1305 -0.0706
  400loPI   C2A 6392   2.140   3.291   9.753 -0.0187 -0.1558  0.0385
  400loPI   C3A 6393   2.122   3.309   9.308 -0.1951 -0.0481 -0.1509
  400loPI   C4A 6394   2.172   3.361   8.852 -0.1564 -0.0489 -0.1324
  400loPI   C5A 6395   2.189   3.427   8.396  0.1319  0.1754 -0.0212
  400loPI   C6A 6396   2.544   3.357   8.066 -0.2534  0.1763 -0.1391
  400loPI   C1B 6397   2.725   3.156   9.977 -0.2773 -0.2002 -0.2046
  400loPI   C2B 6398   2.605   3.255   9.546  0.1768 -0.1618 -0.1821
  400loPI   C3B 6399   2.707   3.318   9.134 -0.3818  0.3321  0.5101
  400loPI   C4B 6400   2.623   3.275   8.647 -0.1351 -0.0630 -0.2028
  401loPI    C1 6401   0.705   9.014  10.730  0.0850  0.0819  0.0109
  401loPI    C2 6402   1.101   8.968  10.772  0.0708 -0.0626 -0.0072
  401loPI    C3 6403   0.854   8.667  10.865 -0.0343  0.0232 -0.0072
  401loPI   PO4 6404   0.690   9.100  10.476  0.2330 -0.2071  0.0190
  401loPI   GL1 6405   0.604   9.133  10.196  0.0004 -0.0488 -0.0981
  401loPI   GL2 6406   0.464   8.959  10.015 -0.0458  0.1691  0.0095
  401loPI   C1A 6407   0.905   9.150   9.848  0.0144 -0.2560  0.1715
  401loPI   C2A 6408   0.903   9.205   9.390  0.3061  0.1117  0.0037
  401loPI   C3A 6409   0.981   9.270   8.951  0.0129 -0.0495 -0.1090
  401loPI   C4A 6410   0.985   9.366   8.540 -0.3150 -0.2307  0.0041
  401loPI   C5A 6411   1.011   9.391   8.099 -0.0464  0.2402  0.1319
  401loPI   C6A 6412   0.960   9.129   7.808  0.0117  0.1321  0.2657
  401loPI   C1B 6413   0.428   9.227   9.665 -0.2745 -0.5582 -0.0119
  401loPI   C2B 6414   0.352   9.304   9.231  0.0694  0.1128 -0.0100
  401loPI   C3B 6415   0.512   9.207   8.774  0.1506 -0.2915 -0.0728
  401loPI   C4B 6416   0.367   9.242   8.318 -0.0794 -0.2189 -0.0624
  402loPI    C1 6417   3.758  12.702  10.489 -0.2186  0.1681 -0.0398
  402loPI    C2 6418   3.409  12.514  10.538 -0.1312  0.0747  0.2458
  402loPI    C3 6419   3.686  12.498  10.826  0.1417  0.0789 -0.0126
  402loPI   PO4 6420   3.899  12.644  10.182  0.2350 -0.1740 -0.1581
  402loPI   GL1 6421   3.991  12.360   9.812 -0.0263 -0.1795  0.1144
  402loPI   GL2 6422   4.206  12.714   9.773 -0.1500 -0.1316 -0.0928
  402loPI   C1A 6423   3.997  12.135   9.407 -0.2181 -0.2479  0.1211
  402loPI   C2A 6424   4.039  12.230   8.959 -0.1477  0.1210  0.3223
  402loPI   C3A 6425   4.057  12.250   8.540  0.0242  0.2039  0.1941
  402loPI   C4A 6426   3.923  12.125   8.208 -0.1500  0.0576 -0.0613
  402loPI   C5A 6427   3.531  12.250   8.047  0.3066  0.2320  0.0878
  402loPI   C6A 6428   3.229  12.660   8.081 -0.0942  0.3592 -0.0423
  402loPI   C1B 6429   4.371  13.030   9.334  0.0606  0.0280 -0.0715
  402loPI   C2B 6430   4.287  13.123   8.962 -0.0528  0.2042  0.0896
  402loPI   C3B 6431   4.542  13.357   8.740 -0.0276  0.0497 -0.0046
  402loPI   C4B 6432   4.560  13.782   8.540 -0.2101  0.2822  0.2101
  403loPI    C1 6433   3.979  15.280  10.396 -0.1113  0.0524  0.1187
  403loPI    C2 6434   3.896  15.320  10.785 -0.0441 -0.4517  0.1916
  403loPI    C3 6435   3.603  15.239  10.525 -0.0684 -0.2498  0.1543
  403loPI   PO4 6436   4.168  15.156  10.364  0.1322 -0.1942 -0.1241
  403loPI   GL1 6437   4.321  15.172  10.017 -0.2697  0.0575  0.1666
  403loPI   GL2 6438   4.447  14.880  10.013  0.1582 -0.0423 -0.2053
  403loPI   C1A 6439   4.380  15.120   9.556 -0.2041  0.0027 -0.3953
  403loPI   C2A 6440   4.561  15.107   9.174 -0.1179 -0.0040  0.0396
  403loPI   C3A 6441   4.491  15.225   8.814 -0.1836  0.0844  0.3646
  403loPI   C4A 6442   4.534  15.309   8.359 -0.0839  0.0026 -0.3224
  403loPI   C5A 6443   4.279  15.531   8.052 -0.0306  0.0471  0.3134
  403loPI   C6A 6444   3.886  15.521   7.907  0.0023 -0.0213  0.1722
  403loPI   C1B 6445   4.252  14.593   9.801 -0.2664  0.2075  0.2582
  403loPI   C2B 6446   4.234  14.598   9.351  0.0570  0.1164  0.0100
  403loPI   C3B 6447   4.092  14.468   8.952  0.1409  0.0409  0.0303
  403loPI   C4B 6448   4.278  14.169   8.707 -0.0772 -0.1379 -0.0551
  404loPI    C1 6449   4.195  10.334  10.368  0.0041  0.1709 -0.0263
  404loPI    C2 6450   3.982  10.076  10.588 -0.0293 -0.0186 -0.2755
  404loPI    C3 6451   4.374  10.016  10.533 -0.0258  0.0150 -0.2874
  404loPI   PO4 6452   3.980  10.487  10.269  0.1859  0.1302 -0.1121
  404loPI   GL1 6453   3.673  10.293  10.167  0.1261  0.2119  0.1259
  404loPI   GL2 6454   3.659   9.951  10.064 -0.0329  0.1268  0.2532
  404loPI   C1A 6455   3.468  10.365   9.760 -0.3327  0.0106 -0.2121
  404loPI   C2A 6456   3.410  10.390   9.286  0.1881 -0.0014  0.3276
  404loPI   C3A 6457   3.484  10.379   8.863  0.0944  0.0667 -0.1491
  404loPI   C4A 6458   3.528  10.638   8.549 -0.0310  0.1504 -0.1675
  404loPI   C5A 6459   3.656  10.783   8.084 -0.0889 -0.2448  0.1629
  404loPI   C6A 6460   3.433  10.839   7.695 -0.1609  0.0459  0.1858
  404loPI   C1B 6461   3.953   9.720   9.763  0.0603 -0.0410 -0.0531
  404loPI   C2B 6462   4.175   9.804   9.459  0.1784  0.0319 -0.0622
  404loPI   C3B 6463   4.527   9.469   9.139  0.1401 -0.1946 -0.0810
  404loPI   C4B 6464   4.761   9.116   9.298 -0.0252  0.2169 -0.0613
  405loPI    C1 6465   3.179   9.888  10.948 -0.0074  0.0161  0.1106
  405loPI    C2 6466   3.306   9.509  10.930  0.0406  0.0411 -0.1043
  405loPI    C3 6467   3.060   9.623  11.224  0.1597 -0.1153  0.0584
  405loPI   PO4 6468   2.990   9.898  10.654  0.1454 -0.1281 -0.2767
  405loPI   GL1 6469   2.852   9.963  10.292  0.1812 -0.2282 -0.1254
  405loPI   GL2 6470   2.995  10.198  10.224  0.0731 -0.0110  0.1222
  405loPI   C1A 6471   2.587   9.894   9.869 -0.1184 -0.0492 -0.1200
  405loPI   C2A 6472   2.584   9.885   9.408 -0.0735  0.3199 -0.3381
  405loPI   C3A 6473   2.689   9.909   8.914  0.2012  0.2224  0.1281
  405loPI   C4A 6474   2.966   9.758   8.601 -0.3639  0.0522 -0.1330
  405loPI   C5A 6475   3.199   9.933   8.358 -0.1444 -0.0249 -0.0023
  405loPI   C6A 6476   3.629  10.030   8.314  0.0634  0.1980  0.3351
  405loPI   C1B 6477   3.009  10.232   9.832 -0.2744  0.1646 -0.1742
  405loPI   C2B 6478   2.846  10.361   9.451 -0.3612 -0.0590 -0.1062
  405loPI   C3B 6479   2.917  10.345   8.974 -0.2434  0.1439 -0.0292
  405loPI   C4B 6480   2.887  10.278   8.514  0.2114 -0.0594 -0.0574
  406loPI    C1 6481  13.887  12.074  11.270  0.2015  0.2008 -0.0710
  406loPI    C2 6482  14.044  11.717  11.358 -0.0952  0.0702 -0.0579
  406loPI    C3 6483  13.860  11.929  11.642 -0.0431  0.1709 -0.0988
  406loPI   PO4 6484  13.735  11.964  11.067 -0.1150  0.1973  0.0974
  406loPI   GL1 6485  13.740  11.835  10.611  0.1336  0.0431 -0.2112
  406loPI   GL2 6486  13.754  12.092  10.386  0.0823  0.1332 -0.1405
  406loPI   C1A 6487  13.582  11.590  10.190 -0.0263 -0.1079  0.0438
  406loPI   C2A 6488  13.562  11.660   9.770 -0.1242 -0.2669 -0.0579
  406loPI   C3A 6489  13.559  11.670   9.309 -0.2133  0.1202  0.0868
  406loPI   C4A 6490  13.572  11.751   8.828 -0.3075  0.1496  0.0497
  406loPI   C5A 6491  13.477  11.637   8.432 -0.2062  0.3283 -0.1507
  406loPI   C6A 6492  13.721  11.337   8.185 -0.0419  0.0346 -0.4144
  406loPI   C1B 6493  13.852  12.086  10.015 -0.1981 -0.1404  0.2328
  406loPI   C2B 6494  13.848  12.022   9.586  0.1422  0.1135 -0.1386
  406loPI   C3B 6495  13.923  12.041   9.170  0.0370  0.0823  0.3233
  406loPI   C4B 6496  13.897  12.107   8.766 -0.1836 -0.0008  0.0934
  407loPI    C1 6497   8.229   9.706  10.548 -0.0250  0.0137  0.0025
  407loPI    C2 6498   7.965   9.922  10.757 -0.1919 -0.1747 -0.0109
  407loPI    C3 6499   8.139   9.602  10.923 -0.1531 -0.1915 -0.0832
  407loPI   PO4 6500   8.104   9.705  10.288 -0.0203 -0.1473  0.2023
  407loPI   GL1 6501   8.181   9.494   9.839  0.2243  0.2119 -0.0173
  407loPI   GL2 6502   8.417   9.420   9.747  0.0405  0.1380  0.1258
  407loPI   C1A 6503   8.114   9.372   9.310  0.0953 -0.0700 -0.0767
  407loPI   C2A 6504   8.013   9.348   8.887 -0.2930 -0.0385  0.1090
  407loPI   C3A 6505   8.033   9.363   8.558 -0.1890 -0.0025  0.2404
  407loPI   C4A 6506   7.916   9.368   8.128 -0.2162 -0.0657 -0.1729
  407loPI   C5A 6507   7.718   9.453   7.761  0.0007  0.0810  0.0853
  407loPI   C6A 6508   7.290   9.471   7.711  0.1135 -0.0430  0.0851
  407loPI   C1B 6509   8.568   9.342   9.300 -0.2068  0.1071 -0.1068
  407loPI   C2B 6510   8.528   9.334   8.933  0.1702 -0.1000  0.0057
  407loPI   C3B 6511   8.543   9.259   8.470 -0.1366  0.0600 -0.1369
  407loPI   C4B 6512   8.415   9.408   8.105  0.1453 -0.0205 -0.0984
  408loPI    C1 6513  14.932  11.630  11.031 -0.4267  0.3422 -0.1245
  408loPI    C2 6514  14.744  11.298  11.153  0.1889 -0.0620 -0.2312
  408loPI    C3 6515  14.967  11.508  11.411  0.0609  0.0895 -0.2423
  408loPI   PO4 6516  15.060  11.548  10.772  0.0601 -0.3046  0.1355
  408loPI   GL1 6517  15.118  11.841  10.463  0.1003  0.2297  0.0323
  408loPI   GL2 6518  15.198  11.523  10.306 -0.1241  0.0847  0.0407
  408loPI   C1A 6519  14.914  11.911  10.139 -0.0434 -0.2358  0.0058
  408loPI   C2A 6520  14.891  11.970   9.674 -0.2877  0.1446 -0.1488
  408loPI   C3A 6521  14.899  11.898   9.282  0.3711  0.0890  0.1687
  408loPI   C4A 6522  14.918  11.970   8.850 -0.0105  0.1027 -0.1203
  408loPI   C5A 6523  14.962  11.652   8.434  0.0270  0.3132  0.1258
  408loPI   C6A 6524  14.991  11.604   8.033 -0.1787  0.2423 -0.0613
  408loPI   C1B 6525  15.140  11.528   9.908  0.1028  0.1548 -0.1245
  408loPI   C2B 6526  15.155  11.533   9.536  0.2478 -0.0313 -0.0010
  408loPI   C3B 6527  15.060  11.496   9.089 -0.0470 -0.1983  0.2126
  408loPI   C4B 6528  15.290  11.513   8.822  0.1035  0.0679  0.1283
  409loPI    C1 6529   3.611   8.006  10.516 -0.0970  0.2037 -0.0631
  409loPI    C2 6530   3.610   8.316  10.769 -0.2179  0.1804 -0.0342
  409loPI    C3 6531   3.428   7.975  10.871  0.0060  0.0630 -0.0217
  409loPI   PO4 6532   3.875   7.962  10.448  0.0169 -0.0269  0.2707
  409loPI   GL1 6533   4.070   8.084  10.080  0.1135  0.1167 -0.2745
  409loPI   GL2 6534   4.452   8.086  10.088  0.1793  0.0331 -0.2648
  409loPI   C1A 6535   4.141   7.815   9.811  0.1325 -0.4036 -0.3951
  409loPI   C2A 6536   4.329   7.801   9.374 -0.0117 -0.0050  0.1094
  409loPI   C3A 6537   4.355   7.705   8.996  0.0531 -0.1564  0.0865
  409loPI   C4A 6538   4.255   7.756   8.531  0.4110 -0.1763  0.0958
  409loPI   C5A 6539   4.195   8.082   8.223  0.2474 -0.0611 -0.1007
  409loPI   C6A 6540   4.214   8.553   8.282 -0.2615  0.0694  0.0369
  409loPI   C1B 6541   4.528   8.148   9.687  0.1317  0.3014 -0.1400
  409loPI   C2B 6542   4.731   8.237   9.261  0.2320 -0.0856  0.0113
  409loPI   C3B 6543   4.547   8.193   8.764  0.1155  0.1857  0.0387
  409loPI   C4B 6544   4.626   8.283   8.360 -0.2643 -0.1116 -0.1052
  410loPI    C1 6545  15.823  10.443  11.111 -0.1356  0.2124  0.1309
  410loPI    C2 6546  16.067  10.666  11.335  0.0814  0.0110  0.0984
  410loPI    C3 6547  15.952  10.305  11.463 -0.1365  0.0715  0.0767
  410loPI   PO4 6548  15.948  10.479  10.894  0.3330  0.3335 -0.0730
  410loPI   GL1 6549  15.886  10.410  10.414 -0.0856  0.2086 -0.0183
  410loPI   GL2 6550  16.096  10.613  10.370 -0.0013 -0.0551  0.1372
  410loPI   C1A 6551  15.737  10.074  10.056  0.0684 -0.2324 -0.1482
  410loPI   C2A 6552  15.677  10.087   9.665 -0.3285 -0.0723  0.0970
  410loPI   C3A 6553  15.713  10.102   9.182 -0.0226 -0.1038 -0.0112
  410loPI   C4A 6554  15.725  10.166   8.816 -0.2026  0.0479  0.2111
  410loPI   C5A 6555  15.989  10.098   8.482 -0.1844  0.1766 -0.2382
  410loPI   C6A 6556  16.273  10.325   8.216 -0.1590  0.0074 -0.0401
  410loPI   C1B 6557  16.097  10.519   9.978  0.3458  0.1795  0.0119
  410loPI   C2B 6558  15.991  10.491   9.584 -0.2110  0.3223  0.1166
  410loPI   C3B 6559  16.024  10.495   9.157  0.1236 -0.0422 -0.4704
  410loPI   C4B 6560  16.016  10.571   8.746  0.1448  0.0653 -0.1055
  411loPI    C1 6561   7.038   8.018  10.738 -0.0188  0.0441 -0.1684
  411loPI    C2 6562   7.431   8.073  10.685  0.0204 -0.1928 -0.1317
  411loPI    C3 6563   7.286   8.007  11.052 -0.1095  0.3161 -0.0842
  411loPI   PO4 6564   6.981   7.967  10.558  0.0926  0.0290  0.2198
  411loPI   GL1 6565   6.884   7.732  10.146  0.1634 -0.2315  0.1616
  411loPI   GL2 6566   6.630   7.765  10.187 -0.3211  0.1197  0.1772
  411loPI   C1A 6567   6.985   7.750   9.694  0.0715  0.1825  0.0855
  411loPI   C2A 6568   6.930   7.720   9.263 -0.0510 -0.0925 -0.1367
  411loPI   C3A 6569   6.932   7.629   8.890 -0.3678 -0.0754  0.0167
  411loPI   C4A 6570   6.990   7.631   8.469 -0.1472  0.1802 -0.1775
  411loPI   C5A 6571   6.703   7.678   8.129  0.0556 -0.2589  0.0404
  411loPI   C6A 6572   6.445   7.333   7.930 -0.2237 -0.1529 -0.1037
  411loPI   C1B 6573   6.509   7.580   9.850 -0.0494  0.0925 -0.0832
  411loPI   C2B 6574   6.458   7.624   9.548  0.2727  0.1229 -0.3050
  411loPI   C3B 6575   6.465   7.666   9.085  0.1467  0.2049 -0.2493
  411loPI   C4B 6576   6.522   7.625   8.633  0.0990  0.0268  0.0736
  412loPI    C1 6577   1.486   1.479  11.003  0.2247  0.2085  0.0007
  412loPI    C2 6578   1.385   1.858  11.080 -0.1950  0.0761  0.1272
  412loPI    C3 6579   1.266   1.565  11.326  0.3160 -0.1183  0.1546
  412loPI   PO4 6580   1.447   1.482  10.696  0.2023  0.1814 -0.1371
  412loPI   GL1 6581   1.418   1.351  10.252 -0.1197  0.1875 -0.1009
  412loPI   GL2 6582   1.701   1.222  10.245 -0.5245  0.2350  0.1961
  412loPI   C1A 6583   1.561   1.397   9.780  0.0969 -0.2399  0.1296
  412loPI   C2A 6584   1.686   1.566   9.453  0.0925  0.0652  0.1572
  412loPI   C3A 6585   1.662   1.512   9.064  0.2398 -0.3254  0.1396
  412loPI   C4A 6586   1.604   1.333   8.603  0.2824  0.0520 -0.2019
  412loPI   C5A 6587   1.584   1.191   8.149  0.0327  0.2691 -0.2912
  412loPI   C6A 6588   1.630   0.869   7.782  0.2001 -0.0769  0.4241
  412loPI   C1B 6589   1.912   1.048   9.853 -0.2648 -0.1009 -0.0219
  412loPI   C2B 6590   1.739   1.080   9.399 -0.2691 -0.3367 -0.0885
  412loPI   C3B 6591   1.889   1.032   8.986  0.0275  0.1636 -0.2105
  412loPI   C4B 6592   1.853   0.924   8.507 -0.0639  0.2222  0.0995
  413loPI    C1 6593   4.272   0.424  10.931 -0.2926 -0.1583 -0.0398
  413loPI    C2 6594   3.993   0.462  11.216 -0.1187 -0.0434  0.1178
  413loPI    C3 6595   4.215   0.778  11.109  0.1391 -0.1964  0.1904
  413loPI   PO4 6596   4.212   0.269  10.758  0.0778 -0.1203  0.2761
  413loPI   GL1 6597   4.202   0.242  10.253  0.1378 -0.2100  0.2716
  413loPI   GL2 6598   3.902   0.354  10.344 -0.2122 -0.0080 -0.1671
  413loPI   C1A 6599   4.208   0.385   9.826  0.2709 -0.0044 -0.0236
  413loPI   C2A 6600   4.263   0.508   9.373 -0.1802 -0.1973 -0.1902
  413loPI   C3A 6601   4.144   0.460   9.026  0.3474  0.2796  0.0167
  413loPI   C4A 6602   4.036   0.474   8.591 -0.3762 -0.3022  0.1589
  413loPI   C5A 6603   3.947   0.192   8.334 -0.2935 -0.1579  0.0187
  413loPI   C6A 6604   4.153  -0.124   8.126 -0.0052 -0.0466  0.2900
  413loPI   C1B 6605   3.717   0.425   9.959 -0.0004 -0.1117 -0.1358
  413loPI   C2B 6606   3.742   0.485   9.492  0.1295  0.1759 -0.1399
  413loPI   C3B 6607   3.633   0.455   9.088  0.2588  0.0805  0.1318
  413loPI   C4B 6608   3.563   0.356   8.685 -0.3548 -0.0384  0.0876
  414loPI    C1 6609   7.304   9.528  10.585 -0.0198  0.0831  0.0919
  414loPI    C2 6610   7.702   9.493  10.594 -0.0167  0.0210 -0.1879
  414loPI    C3 6611   7.482   9.357  10.900  0.1846  0.1945  0.0385
  414loPI   PO4 6612   7.298   9.557  10.335 -0.0272  0.0755 -0.1508
  414loPI   GL1 6613   7.115   9.675   9.957  0.3054  0.0010  0.0826
  414loPI   GL2 6614   6.931   9.339  10.093 -0.1374  0.2053  0.2760
  414loPI   C1A 6615   7.073   9.499   9.669  0.0120  0.1927 -0.0101
  414loPI   C2A 6616   7.078   9.469   9.167  0.2625 -0.1528  0.0331
  414loPI   C3A 6617   6.997   9.372   8.767 -0.0694 -0.0780 -0.0430
  414loPI   C4A 6618   6.964   9.365   8.363 -0.0691 -0.1143  0.1041
  414loPI   C5A 6619   6.847   9.495   7.981 -0.1055  0.1178  0.0686
  414loPI   C6A 6620   6.814   9.877   7.731  0.1445  0.0032  0.0348
  414loPI   C1B 6621   6.715   9.134   9.775  0.1909 -0.1189  0.1636
  414loPI   C2B 6622   6.770   8.985   9.408 -0.0039 -0.1608  0.0677
  414loPI   C3B 6623   6.774   8.851   8.986  0.0216 -0.1776 -0.1512
  414loPI   C4B 6624   6.701   8.973   8.580 -0.3141 -0.1640  0.0050
  415loPI    C1 6625   5.745   2.957  10.472  0.0295 -0.1264 -0.2290
  415loPI    C2 6626   5.780   2.983  10.870 -0.1881 -0.0188 -0.2154
  415loPI    C3 6627   5.942   2.674  10.675  0.0705  0.0180 -0.0643
  415loPI   PO4 6628   5.709   3.272  10.434  0.0119  0.0817  0.1105
  415loPI   GL1 6629   5.602   3.713  10.203  0.0123  0.2325  0.3237
  415loPI   GL2 6630   5.919   3.564  10.136 -0.1942  0.1680  0.2013
  415loPI   C1A 6631   5.446   3.564   9.777 -0.0610 -0.3314  0.0921
  415loPI   C2A 6632   5.554   3.582   9.390  0.0388  0.1968  0.3892
  415loPI   C3A 6633   5.538   3.610   8.952 -0.2458  0.1238  0.3115
  415loPI   C4A 6634   5.508   3.631   8.487  0.2185 -0.3385  0.0742
  415loPI   C5A 6635   5.345   3.684   8.101  0.3009  0.1643  0.0693
  415loPI   C6A 6636   5.013   3.898   7.805  0.0022  0.3836 -0.2333
  415loPI   C1B 6637   5.980   3.600   9.648  0.2190  0.0803  0.1316
  415loPI   C2B 6638   6.033   3.636   9.203 -0.1567 -0.2096 -0.0413
  415loPI   C3B 6639   6.079   3.598   8.708 -0.1770 -0.2263 -0.0518
  415loPI   C4B 6640   6.023   3.481   8.281  0.1396  0.3334  0.0040
  416loPI    C1 6641  17.461   8.766  10.881 -0.1268 -0.1090  0.2189
  416loPI    C2 6642  17.582   8.463  10.650  0.1536  0.2011 -0.0523
  416loPI    C3 6643  17.747   8.519  11.010 -0.1276 -0.1522  0.1388
  416loPI   PO4 6644  17.423   8.999  10.595  0.0537 -0.2605  0.0426
  416loPI   GL1 6645  17.163   9.046  10.335 -0.2162  0.2552 -0.1306
  416loPI   GL2 6646  17.278   8.697  10.306 -0.1474 -0.4178 -0.0952
  416loPI   C1A 6647  17.126   9.062   9.943  0.2275  0.0787  0.1335
  416loPI   C2A 6648  17.198   9.061   9.431 -0.0881 -0.3823 -0.0485
  416loPI   C3A 6649  17.221   8.996   9.000  0.0198 -0.0798  0.2132
  416loPI   C4A 6650  17.128   8.967   8.511 -0.3029  0.1596 -0.0022
  416loPI   C5A 6651  17.280   8.959   8.049  0.4373  0.1436  0.4445
  416loPI   C6A 6652  17.503   9.096   7.842  0.1867 -0.1161  0.3182
  416loPI   C1B 6653  17.386   8.607   9.904 -0.0631 -0.2341  0.0489
  416loPI   C2B 6654  17.404   8.586   9.586 -0.2106  0.0485  0.1675
  416loPI   C3B 6655  17.413   8.457   9.161  0.2725 -0.0160 -0.0704
  416loPI   C4B 6656  17.360   8.226   8.746 -0.1147 -0.3180  0.1255
  417loPI    C1 6657   2.787   2.727  10.767  0.0806 -0.2367  0.1233
  417loPI    C2 6658   2.583   2.621  11.094 -0.0420  0.0406  0.1391
  417loPI    C3 6659   2.858   2.912  11.114 -0.0066  0.0166  0.0089
  417loPI   PO4 6660   2.879   2.481  10.611  0.0259 -0.0386 -0.0210
  417loPI   GL1 6661   2.877   2.320  10.259  0.1248 -0.0035 -0.1563
  417loPI   GL2 6662   2.418   2.300  10.250 -0.0702  0.1852 -0.2612
  417loPI   C1A 6663   2.824   2.284   9.896 -0.1738  0.3003  0.3444
  417loPI   C2A 6664   2.594   2.387   9.518  0.1285  0.0552  0.2412
  417loPI   C3A 6665   2.716   2.331   9.078 -0.0158  0.0402  0.0573
  417loPI   C4A 6666   2.651   2.390   8.638  0.3054 -0.0251  0.0513
  417loPI   C5A 6667   2.476   2.503   8.365  0.2038 -0.2284  0.0172
  417loPI   C6A 6668   2.518   2.876   8.254 -0.1064 -0.1215 -0.0137
  417loPI   C1B 6669   2.492   2.674   9.925 -0.1649 -0.0208  0.2135
  417loPI   C2B 6670   2.323   2.835   9.593 -0.2000  0.1304  0.0794
  417loPI   C3B 6671   2.401   2.897   9.157  0.3894 -0.3468 -0.1459
  417loPI   C4B 6672   2.401   2.779   8.773 -0.2810  0.1526 -0.2042
  418loPI    C1 6673   4.591   2.529  11.044 -0.0495  0.0921 -0.0012
  418loPI    C2 6674   4.458   2.268  11.317 -0.1887  0.0135 -0.1423
  418loPI    C3 6675   4.815   2.442  11.364 -0.2383  0.0485  0.1210
  418loPI   PO4 6676   4.444   2.532  10.719  0.1594  0.2589 -0.0014
  418loPI   GL1 6677   4.500   2.500  10.269 -0.1684  0.1768 -0.1965
  418loPI   GL2 6678   4.559   2.698   9.956  0.2309  0.2136 -0.1366
  418loPI   C1A 6679   4.317   2.262   9.814 -0.0288  0.0572 -0.1414
  418loPI   C2A 6680   4.239   2.357   9.353 -0.1209  0.2753 -0.0136
  418loPI   C3A 6681   4.180   2.269   8.921 -0.1968  0.1862  0.0263
  418loPI   C4A 6682   4.161   2.321   8.543  0.0212 -0.0296  0.1796
  418loPI   C5A 6683   4.424   2.056   8.213  0.0684  0.2210  0.0409
  418loPI   C6A 6684   4.781   1.909   7.957  0.0270 -0.1184  0.0422
  418loPI   C1B 6685   4.542   2.757   9.528 -0.0815  0.0594 -0.2759
  418loPI   C2B 6686   4.493   2.761   9.016 -0.0343  0.2515  0.0761
  418loPI   C3B 6687   4.461   2.846   8.558 -0.2035  0.3110 -0.1759
  418loPI   C4B 6688   4.552   2.527   8.196  0.0987 -0.1429  0.2164
  419loPI    C1 6689  11.471  13.143  10.453 -0.1934  0.1013 -0.0488
  419loPI    C2 6690  11.444  13.068  10.845  0.0958 -0.1679 -0.0761
  419loPI    C3 6691  11.680  13.364  10.713  0.1504 -0.2031 -0.0575
  419loPI   PO4 6692  11.177  13.064  10.385 -0.0683 -0.0923  0.2225
  419loPI   GL1 6693  10.975  13.258  10.095  0.1027 -0.0707  0.1758
  419loPI   GL2 6694  11.031  13.043   9.878 -0.1044  0.1584  0.0979
  419loPI   C1A 6695  10.660  13.363   9.801  0.0986  0.1056 -0.0626
  419loPI   C2A 6696  10.476  13.289   9.458 -0.0560 -0.0339 -0.0731
  419loPI   C3A 6697  10.404  13.122   9.007 -0.2145 -0.2997 -0.2455
  419loPI   C4A 6698  10.585  12.762   8.773  0.1663 -0.0633 -0.0429
  419loPI   C5A 6699  10.534  12.558   8.370  0.0554 -0.0250 -0.2484
  419loPI   C6A 6700  10.707  12.235   8.258 -0.0023 -0.1352  0.1581
  419loPI   C1B 6701  10.907  12.969   9.426 -0.2606  0.0688 -0.4093
  419loPI   C2B 6702  10.956  12.909   9.054 -0.1424 -0.0749  0.1236
  419loPI   C3B 6703  11.079  12.913   8.702 -0.3193 -0.2616  0.0761
  419loPI   C4B 6704  10.884  12.877   8.288 -0.1080  0.2359  0.2303
  420loPI    C1 6705   2.754   0.447  11.148 -0.1257  0.1932  0.0120
  420loPI    C2 6706   2.849   0.823  11.048  0.0727  0.1787  0.1401
  420loPI    C3 6707   2.899   0.697  11.424  0.1158 -0.0097  0.0728
  420loPI   PO4 6708   2.612   0.294  10.897  0.0268  0.1343 -0.4942
  420loPI   GL1 6709   2.595   0.181  10.405 -0.0397  0.0263 -0.0826
  420loPI   GL2 6710   2.881   0.091  10.192 -0.2046 -0.0596 -0.0028
  420loPI   C1A 6711   2.594   0.477  10.053  0.1870 -0.0190  0.0082
  420loPI   C2A 6712   2.625   0.591   9.644 -0.3295  0.0185 -0.0644
  420loPI   C3A 6713   2.634   0.606   9.203  0.1744  0.1028 -0.1686
  420loPI   C4A 6714   2.585   0.555   8.762 -0.0566 -0.1534  0.1143
  420loPI   C5A 6715   2.579   0.443   8.299  0.2017  0.1276  0.0044
  420loPI   C6A 6716   2.793   0.136   8.034  0.0396 -0.1172 -0.3199
  420loPI   C1B 6717   2.808   0.125   9.788 -0.0083  0.1772 -0.0282
  420loPI   C2B 6718   2.764   0.118   9.329  0.1771  0.1072  0.1136
  420loPI   C3B 6719   2.889  -0.002   8.902  0.0572 -0.0947 -0.1123
  420loPI   C4B 6720   2.789  -0.001   8.551 -0.0571 -0.0575 -0.0312
  421loPI    C1 6721  12.688   4.705  10.888  0.0076  0.0220 -0.0885
  421loPI    C2 6722  12.657   5.078  11.030 -0.1486 -0.0426  0.0516
  421loPI    C3 6723  12.657   4.768  11.282 -0.0080 -0.1379 -0.0636
  421loPI   PO4 6724  12.871   4.743  10.675 -0.2227  0.0226 -0.0751
  421loPI   GL1 6725  12.777   4.752  10.295 -0.1153 -0.1868 -0.2086
  421loPI   GL2 6726  12.591   4.556  10.070 -0.0342 -0.0174  0.2668
  421loPI   C1A 6727  13.083   4.698   9.940  0.1206  0.0456  0.1918
  421loPI   C2A 6728  13.098   4.641   9.542  0.0792  0.0056 -0.2212
  421loPI   C3A 6729  13.036   4.752   9.200 -0.0868 -0.1957  0.0247
  421loPI   C4A 6730  13.060   4.729   8.756 -0.2085 -0.0596  0.2387
  421loPI   C5A 6731  13.074   4.847   8.361 -0.4454  0.2030 -0.0657
  421loPI   C6A 6732  13.020   4.621   8.015 -0.0231  0.2834  0.0490
  421loPI   C1B 6733  12.641   4.588   9.556 -0.0167  0.4298  0.0728
  421loPI   C2B 6734  12.545   4.641   9.128  0.2986  0.1040  0.2389
  421loPI   C3B 6735  12.566   4.737   8.610  0.0478 -0.0330 -0.1172
  421loPI   C4B 6736  12.583   5.006   8.185  0.0079  0.0139  0.2307
  422loPI    C1 6737   4.961  16.741  10.908 -0.3640  0.0312  0.0809
  422loPI    C2 6738   4.730  16.905  11.190  0.0161  0.2921  0.2507
  422loPI    C3 6739   4.907  16.552  11.257 -0.1929  0.1725  0.1857
  422loPI   PO4 6740   4.807  16.782  10.731  0.0726  0.1690 -0.0997
  422loPI   GL1 6741   4.739  16.785  10.351 -0.3033  0.3812  0.0094
  422loPI   GL2 6742   4.756  16.431  10.273 -0.0522  0.1159 -0.1494
  422loPI   C1A 6743   4.678  16.851   9.874 -0.0441  0.0833 -0.0696
  422loPI   C2A 6744   4.669  16.870   9.446 -0.2178  0.0507  0.3537
  422loPI   C3A 6745   4.703  16.951   9.064 -0.0347 -0.1727  0.3095
  422loPI   C4A 6746   4.670  16.871   8.650 -0.1502  0.2859 -0.1935
  422loPI   C5A 6747   4.833  16.994   8.198  0.0123 -0.1172 -0.0663
  422loPI   C6A 6748   5.157  17.031   7.864 -0.1872 -0.0199  0.0142
  422loPI   C1B 6749   5.013  16.147  10.057  0.0632  0.0463  0.1593
  422loPI   C2B 6750   5.062  15.833   9.715 -0.1389 -0.1340 -0.0430
  422loPI   C3B 6751   4.867  15.975   9.429  0.1812 -0.1552 -0.0956
  422loPI   C4B 6752   4.534  15.988   9.100  0.1274 -0.1441 -0.1635
  423loPI    C1 6753   3.790  15.842  10.734 -0.0295 -0.0932 -0.0901
  423loPI    C2 6754   4.041  15.806  11.044 -0.1908  0.2666  0.0886
  423loPI    C3 6755   3.675  15.646  11.063 -0.0798 -0.0130 -0.0596
  423loPI   PO4 6756   3.796  15.740  10.496 -0.1207  0.0133 -0.1709
  423loPI   GL1 6757   3.598  15.599  10.177  0.0513 -0.1051 -0.0508
  423loPI   GL2 6758   3.721  15.353   9.975 -0.1316 -0.1972 -0.2283
  423loPI   C1A 6759   3.777  15.890   9.768  0.3785 -0.2144  0.1277
  423loPI   C2A 6760   3.593  15.977   9.471  0.1804  0.0087  0.1490
  423loPI   C3A 6761   3.544  15.927   9.052 -0.0375 -0.1438  0.3439
  423loPI   C4A 6762   3.612  15.828   8.638 -0.0074  0.1415 -0.0916
  423loPI   C5A 6763   3.455  15.684   8.160  0.1110 -0.1855 -0.0030
  423loPI   C6A 6764   3.420  15.276   7.985  0.2001  0.3356 -0.1669
  423loPI   C1B 6765   3.688  15.428   9.532  0.0078  0.0218 -0.1605
  423loPI   C2B 6766   3.651  15.429   9.064  0.1858  0.2013  0.2077
  423loPI   C3B 6767   3.672  15.352   8.568  0.0393  0.0275 -0.0807
  423loPI   C4B 6768   4.006  15.182   8.430 -0.0216  0.1262  0.3764
  424loPI    C1 6769   0.388  10.995  10.782 -0.1460 -0.1287  0.2167
  424loPI    C2 6770   0.373  10.920  11.175  0.0178 -0.1126  0.2272
  424loPI    C3 6771   0.686  10.795  10.960 -0.0173 -0.0227  0.1226
  424loPI   PO4 6772   0.203  10.934  10.671 -0.1287  0.0306 -0.1417
  424loPI   GL1 6773   0.131  10.840  10.307  0.0031 -0.0450  0.0611
  424loPI   GL2 6774   0.312  10.657  10.182  0.3086  0.0368 -0.1768
  424loPI   C1A 6775   0.102  11.061   9.904 -0.1973  0.1663  0.1029
  424loPI   C2A 6776   0.065  11.107   9.476 -0.1519  0.4757  0.0505
  424loPI   C3A 6777   0.125  11.168   8.921 -0.1399 -0.0190 -0.1103
  424loPI   C4A 6778   0.051  11.081   8.501  0.1940 -0.3405 -0.1852
  424loPI   C5A 6779  -0.203  10.964   8.199  0.1015  0.0321  0.1345
  424loPI   C6A 6780  -0.534  10.814   8.137 -0.1554  0.2794  0.2440
  424loPI   C1B 6781   0.361  10.590   9.809  0.2784 -0.3855  0.0239
  424loPI   C2B 6782   0.343  10.727   9.294 -0.1594  0.5987  0.1855
  424loPI   C3B 6783   0.285  10.579   8.879 -0.2474  0.1389 -0.3018
  424loPI   C4B 6784   0.357  10.690   8.419  0.0538  0.2294  0.0893
  425loPI    C1 6785   7.913   2.151  11.223 -0.1092 -0.1243 -0.2837
  425loPI    C2 6786   7.827   1.767  11.293  0.2244 -0.1542 -0.0075
  425loPI    C3 6787   7.783   2.037  11.584  0.1909 -0.0177 -0.1379
  425loPI   PO4 6788   7.835   2.210  10.946 -0.1083  0.1301  0.0418
  425loPI   GL1 6789   7.697   2.051  10.486  0.4400 -0.1715 -0.0732
  425loPI   GL2 6790   7.979   1.925  10.513 -0.1330  0.0759 -0.1080
  425loPI   C1A 6791   7.667   2.278  10.028  0.0203 -0.0256 -0.1768
  425loPI   C2A 6792   7.833   2.237   9.601  0.2567 -0.4866  0.1763
  425loPI   C3A 6793   7.799   2.203   9.226 -0.1067  0.0515  0.0722
  425loPI   C4A 6794   7.888   2.142   8.825 -0.1772  0.1664  0.2577
  425loPI   C5A 6795   8.013   2.433   8.589  0.2192  0.2494 -0.2443
  425loPI   C6A 6796   8.281   2.665   8.360 -0.2686 -0.1365  0.0518
  425loPI   C1B 6797   8.191   2.101  10.109  0.3281  0.1646 -0.2808
  425loPI   C2B 6798   8.335   2.182   9.757 -0.0398  0.0748  0.2263
  425loPI   C3B 6799   8.329   2.200   9.326  0.0715  0.0418  0.1645
  425loPI   C4B 6800   8.366   2.080   8.903  0.2036 -0.0206  0.2919
  426loPI    C1 6801   1.427  14.604  10.582 -0.0399 -0.1614  0.1540
  426loPI    C2 6802   1.334  14.417  10.923  0.0047 -0.2078  0.1410
  426loPI    C3 6803   1.563  14.234  10.651 -0.1387 -0.2220  0.0283
  426loPI   PO4 6804   1.602  14.882  10.532 -0.2356  0.2250  0.2173
  426loPI   GL1 6805   1.541  15.118  10.111  0.2089 -0.1783  0.3407
  426loPI   GL2 6806   1.687  14.976   9.875  0.0001 -0.2342  0.1461
  426loPI   C1A 6807   1.299  15.250   9.801 -0.1095 -0.1062  0.1682
  426loPI   C2A 6808   1.444  15.152   9.349 -0.0496 -0.0977  0.2007
  426loPI   C3A 6809   1.465  15.092   8.926 -0.2188  0.0291  0.2556
  426loPI   C4A 6810   1.351  15.037   8.589  0.0350 -0.2205 -0.1736
  426loPI   C5A 6811   1.376  15.132   8.160  0.4018  0.1008 -0.0109
  426loPI   C6A 6812   1.542  15.223   7.783  0.0234 -0.1831 -0.1092
  426loPI   C1B 6813   1.925  15.036   9.583 -0.3214  0.1618  0.0762
  426loPI   C2B 6814   1.912  15.155   9.106  0.0435  0.1084  0.1880
  426loPI   C3B 6815   1.878  15.127   8.587 -0.2026  0.2535  0.1103
  426loPI   C4B 6816   1.868  15.148   8.161  0.0417 -0.0049 -0.0097
  427loPI    C1 6817   6.250  12.900  10.709 -0.0728  0.1765  0.1019
  427loPI    C2 6818   5.965  13.035  10.955 -0.1620  0.1110  0.0352
  427loPI    C3 6819   5.980  12.647  10.859  0.2600  0.0153  0.4474
  427loPI   PO4 6820   6.217  13.134  10.488  0.1380 -0.0892 -0.0832
  427loPI   GL1 6821   6.192  13.189  10.125  0.2136  0.0394  0.0373
  427loPI   GL2 6822   5.807  13.127  10.117 -0.4098  0.0865  0.0485
  427loPI   C1A 6823   6.423  13.307   9.680 -0.0911  0.2451 -0.1126
  427loPI   C2A 6824   6.541  13.435   9.288  0.2082 -0.0179 -0.1801
  427loPI   C3A 6825   6.652  13.524   8.886  0.0250  0.2554  0.0779
  427loPI   C4A 6826   6.579  13.596   8.494  0.1445 -0.0566 -0.1866
  427loPI   C5A 6827   6.483  13.611   8.159 -0.2793  0.1591  0.3682
  427loPI   C6A 6828   6.211  13.825   7.947  0.0604 -0.0270  0.2378
  427loPI   C1B 6829   5.904  13.340   9.721 -0.2046 -0.1789  0.1192
  427loPI   C2B 6830   6.011  13.485   9.273  0.0099  0.0010  0.1216
  427loPI   C3B 6831   6.141  13.561   8.846 -0.0833  0.1239  0.0283
  427loPI   C4B 6832   6.068  13.512   8.451 -0.3492 -0.0211 -0.0296
  428loPI    C1 6833   9.444   4.899  10.975  0.1966  0.3372  0.1513
  428loPI    C2 6834   9.184   4.957  11.274  0.0788  0.0321  0.1113
  428loPI    C3 6835   9.560   4.846  11.354 -0.0107 -0.2580  0.1414
  428loPI   PO4 6836   9.342   4.975  10.777 -0.0889  0.0953 -0.0176
  428loPI   GL1 6837   9.366   5.024  10.333  0.1940  0.0621  0.1676
  428loPI   GL2 6838   9.066   4.931  10.364  0.2100  0.0566 -0.1315
  428loPI   C1A 6839   9.432   4.940   9.999  0.2423 -0.1725 -0.2234
  428loPI   C2A 6840   9.575   5.081   9.615  0.4185 -0.1278  0.0464
  428loPI   C3A 6841   9.668   5.284   9.240  0.3176  0.0627  0.0519
  428loPI   C4A 6842   9.847   5.520   8.854 -0.4049  0.1806 -0.1308
  428loPI   C5A 6843   9.928   5.787   8.478  0.1517 -0.0205  0.0674
  428loPI   C6A 6844  10.056   6.104   8.194 -0.0542 -0.1128 -0.3014
  428loPI   C1B 6845   8.923   4.843   9.985 -0.0620 -0.0397  0.0719
  428loPI   C2B 6846   8.958   4.882   9.474  0.1585 -0.1017  0.0993
  428loPI   C3B 6847   8.977   4.717   8.997  0.0267  0.1078  0.1208
  428loPI   C4B 6848   8.919   4.808   8.629  0.1690  0.1228 -0.1125
  429loPI    C1 6849   5.928   1.276  10.580  0.0080 -0.0912  0.0062
  429loPI    C2 6850   5.633   1.427  10.804 -0.0475 -0.2733  0.0582
  429loPI    C3 6851   5.819   1.092  10.919  0.0224 -0.2874 -0.0940
  429loPI   PO4 6852   5.850   1.182  10.322  0.0346  0.0450  0.1929
  429loPI   GL1 6853   6.018   1.008  10.005 -0.2136  0.1854 -0.0744
  429loPI   GL2 6854   6.145   1.465   9.851  0.1294 -0.0468  0.1702
  429loPI   C1A 6855   5.933   0.894   9.687 -0.2648 -0.0109 -0.1265
  429loPI   C2A 6856   5.910   0.819   9.275 -0.0207  0.0335 -0.0304
  429loPI   C3A 6857   5.909   0.678   8.898  0.2381 -0.3541  0.0523
  429loPI   C4A 6858   5.834   0.504   8.399  0.2456 -0.0252  0.0990
  429loPI   C5A 6859   5.464   0.573   8.087  0.2274  0.0572  0.0844
  429loPI   C6A 6860   5.135   0.521   7.693  0.1177  0.1521 -0.0140
  429loPI   C1B 6861   6.351   1.206   9.675 -0.0577 -0.0170  0.2250
  429loPI   C2B 6862   6.590   1.261   9.354  0.0582  0.0100  0.1881
  429loPI   C3B 6863   6.659   1.311   8.890  0.1678 -0.1501 -0.2688
  429loPI   C4B 6864   6.886   1.473   8.459  0.0115 -0.1412  0.0789
  430loPI    C1 6865  16.206   9.121  10.853 -0.0602  0.0929  0.0668
  430loPI    C2 6866  16.298   9.066  11.238 -0.1073  0.0435  0.0711
  430loPI    C3 6867  16.586   9.155  10.975 -0.0708  0.0489  0.1124
  430loPI   PO4 6868  16.114   8.939  10.772 -0.0323 -0.0373  0.0041
  430loPI   GL1 6869  15.981   8.819  10.393  0.0152 -0.2447  0.0945
  430loPI   GL2 6870  16.096   9.071  10.313  0.1347  0.0304  0.0762
  430loPI   C1A 6871  15.844   8.780   9.998 -0.1652  0.0951 -0.3357
  430loPI   C2A 6872  15.752   8.881   9.564 -0.2429  0.0988  0.0713
  430loPI   C3A 6873  15.834   8.858   9.172 -0.0721 -0.1121 -0.1673
  430loPI   C4A 6874  15.916   8.778   8.760  0.1459  0.2054 -0.2282
  430loPI   C5A 6875  16.160   8.748   8.360  0.0270  0.1653  0.2738
  430loPI   C6A 6876  16.167   8.522   7.961 -0.2858  0.1627  0.1423
  430loPI   C1B 6877  16.048   9.212   9.841  0.3905 -0.2455 -0.2089
  430loPI   C2B 6878  16.060   9.207   9.383  0.1158  0.0102 -0.2690
  430loPI   C3B 6879  16.218   9.105   8.921 -0.1634 -0.1209  0.0893
  430loPI   C4B 6880  16.239   9.233   8.509  0.1006 -0.0663  0.1376
  431loPI    C1 6881   7.516   4.701  10.803 -0.1698 -0.1487 -0.1928
  431loPI    C2 6882   7.282   4.643  11.122  0.0319  0.1955  0.0237
  431loPI    C3 6883   7.306   5.005  10.954  0.1558  0.0858 -0.2003
  431loPI   PO4 6884   7.389   4.531  10.581 -0.0932  0.0110  0.2472
  431loPI   GL1 6885   7.187   4.300  10.297 -0.1746  0.0642 -0.1481
  431loPI   GL2 6886   6.967   4.364  10.085  0.3947 -0.1233 -0.1639
  431loPI   C1A 6887   7.299   4.003   9.982  0.1765  0.1221  0.1892
  431loPI   C2A 6888   7.363   3.992   9.493  0.0725 -0.0809 -0.0032
  431loPI   C3A 6889   7.415   3.961   9.065 -0.1870  0.0082 -0.3835
  431loPI   C4A 6890   7.283   4.019   8.621 -0.2732  0.2369  0.2277
  431loPI   C5A 6891   7.255   3.992   8.135  0.0311  0.0415  0.1176
  431loPI   C6A 6892   7.306   3.940   7.696 -0.2193 -0.3159 -0.0257
  431loPI   C1B 6893   7.112   4.476   9.590  0.0320 -0.1486  0.1124
  431loPI   C2B 6894   7.105   4.438   9.176 -0.0512 -0.0399 -0.1212
  431loPI   C3B 6895   7.113   4.456   8.814  0.1624 -0.0634  0.0985
  431loPI   C4B 6896   6.972   4.605   8.401  0.6256  0.1454 -0.0235
  432loPI    C1 6897  16.275  16.875  10.953 -0.2130  0.0191  0.0792
  432loPI    C2 6898  16.356  16.828  11.341  0.1460 -0.0637 -0.0020
  432loPI    C3 6899  16.451  17.170  11.158  0.1425 -0.0924 -0.0576
  432loPI   PO4 6900  16.378  16.726  10.884 -0.0482  0.1048  0.2269
  432loPI   GL1 6901  16.334  16.597  10.463 -0.0905 -0.0249  0.3857
  432loPI   GL2 6902  16.630  16.526  10.256  0.4662  0.0721  0.1100
  432loPI   C1A 6903  16.223  16.813  10.061  0.0163  0.3325  0.0788
  432loPI   C2A 6904  16.165  16.895   9.696  0.0258  0.0705  0.0904
  432loPI   C3A 6905  16.295  16.739   9.308  0.0292 -0.1372 -0.1768
  432loPI   C4A 6906  16.279  16.805   8.877 -0.1857 -0.1793 -0.0188
  432loPI   C5A 6907  16.294  17.030   8.585 -0.1606  0.4050  0.0328
  432loPI   C6A 6908  16.043  17.198   8.396  0.0344  0.0861  0.3694
  432loPI   C1B 6909  16.622  16.591   9.827 -0.1599  0.2190  0.0705
  432loPI   C2B 6910  16.605  16.292   9.501 -0.2260 -0.0232 -0.2723
  432loPI   C3B 6911  16.556  16.300   9.151 -0.0795 -0.0733  0.3920
  432loPI   C4B 6912  16.697  16.504   8.766 -0.0561  0.1647  0.0856
  433loPI    C1 6913  10.084   6.814  10.776  0.0135  0.0566 -0.1236
  433loPI    C2 6914  10.112   7.191  10.908 -0.0762  0.0153  0.0151
  433loPI    C3 6915  10.106   6.887  11.169  0.1091 -0.0895 -0.1010
  433loPI   PO4 6916  10.240   6.748  10.682 -0.1169 -0.2426  0.0185
  433loPI   GL1 6917  10.484   6.753  10.320 -0.1101 -0.0556 -0.5288
  433loPI   GL2 6918  10.376   6.497  10.273  0.0591  0.1668 -0.0941
  433loPI   C1A 6919  10.456   6.874   9.894  0.0138 -0.2422  0.1236
  433loPI   C2A 6920  10.287   6.952   9.473 -0.0730 -0.1473  0.0466
  433loPI   C3A 6921  10.282   6.959   9.085  0.0238  0.0637 -0.0769
  433loPI   C4A 6922  10.254   6.988   8.656  0.2301  0.3282 -0.1507
  433loPI   C5A 6923  10.302   7.178   8.188  0.2318  0.4820 -0.0456
  433loPI   C6A 6924  10.032   7.458   7.828  0.1098  0.1723 -0.1046
  433loPI   C1B 6925  10.496   6.187   9.943  0.2482  0.0511 -0.1223
  433loPI   C2B 6926  10.674   5.896   9.686  0.3719 -0.0313  0.2504
  433loPI   C3B 6927  10.460   5.633   9.423  0.2665 -0.0150  0.0686
  433loPI   C4B 6928  10.192   5.291   9.185 -0.0088  0.0003  0.0314
  434loPI    C1 6929   6.366   3.105  10.514  0.1721 -0.0123 -0.1591
  434loPI    C2 6930   6.493   3.353  10.801 -0.1003 -0.0008 -0.0452
  434loPI    C3 6931   6.279   3.029  10.897 -0.0411 -0.0934 -0.2218
  434loPI   PO4 6932   6.229   3.197  10.362 -0.1900  0.1033 -0.0787
  434loPI   GL1 6933   6.112   3.118   9.955  0.2697 -0.1066  0.2188
  434loPI   GL2 6934   5.757   3.027   9.968 -0.1603 -0.1055 -0.2763
  434loPI   C1A 6935   6.301   3.225   9.679  0.1495 -0.0996 -0.2219
  434loPI   C2A 6936   6.305   3.190   9.277 -0.0939  0.1955  0.0994
  434loPI   C3A 6937   6.361   3.204   8.779  0.2461  0.1996  0.3634
  434loPI   C4A 6938   6.281   2.983   8.359  0.0533 -0.0217 -0.3896
  434loPI   C5A 6939   6.065   3.074   7.976 -0.4427 -0.2397  0.3776
  434loPI   C6A 6940   5.784   2.967   7.601  0.1566 -0.1672 -0.2725
  434loPI   C1B 6941   5.790   3.079   9.488  0.1244 -0.0465  0.0725
  434loPI   C2B 6942   5.760   3.143   9.027 -0.1799  0.1536  0.1962
  434loPI   C3B 6943   5.808   3.159   8.552 -0.2925 -0.0082 -0.0754
  434loPI   C4B 6944   5.648   3.208   8.188 -0.2305 -0.1489 -0.1729
  435loPI    C1 6945   8.696  12.283  10.511  0.1468  0.0894  0.2060
  435loPI    C2 6946   8.739  12.004  10.795  0.0107  0.1518  0.2892
  435loPI    C3 6947   8.986  12.319  10.785  0.1552  0.0368  0.2039
  435loPI   PO4 6948   8.633  12.196  10.256  0.1157  0.0037 -0.1518
  435loPI   GL1 6949   8.781  12.113   9.850 -0.0670  0.1253  0.1355
  435loPI   GL2 6950   8.872  11.899   9.893  0.1596  0.1344  0.1227
  435loPI   C1A 6951   8.808  12.373   9.458 -0.4306  0.0830 -0.2101
  435loPI   C2A 6952   8.663  12.393   9.054  0.0573 -0.2118 -0.2244
  435loPI   C3A 6953   8.506  12.422   8.672  0.1338 -0.1513  0.0810
  435loPI   C4A 6954   8.376  12.393   8.300  0.0449 -0.0626  0.1258
  435loPI   C5A 6955   8.164  12.309   7.826  0.0980 -0.2980  0.2414
  435loPI   C6A 6956   8.258  12.222   7.396 -0.2189  0.0365  0.0599
  435loPI   C1B 6957   8.952  11.887   9.381  0.2166  0.2268  0.2329
  435loPI   C2B 6958   8.863  11.965   8.929  0.1947  0.0811  0.2467
  435loPI   C3B 6959   8.791  12.054   8.389 -0.0380  0.0152  0.0846
  435loPI   C4B 6960   8.839  12.487   8.141  0.2147  0.1771  0.0343
  436loPI    C1 6961  18.062   4.253  10.646  0.1135  0.0473  0.0879
  436loPI    C2 6962  17.835   4.507  10.856  0.2839 -0.1036  0.4627
  436loPI    C3 6963  17.809   4.114  10.923  0.0420 -0.1915 -0.0941
  436loPI   PO4 6964  18.003   4.380  10.362 -0.2698  0.1533  0.0371
  436loPI   GL1 6965  18.280   4.391   9.997 -0.0499 -0.2171 -0.1233
  436loPI   GL2 6966  18.169   4.101   9.900 -0.1152 -0.0784 -0.0992
  436loPI   C1A 6967  18.232   4.391   9.478 -0.2538 -0.0332 -0.1649
  436loPI   C2A 6968  18.236   4.510   9.041 -0.0927  0.2377 -0.1328
  436loPI   C3A 6969  18.161   4.684   8.608 -0.0021  0.1280  0.1224
  436loPI   C4A 6970  18.027   4.776   8.246  0.0704  0.1265 -0.4317
  436loPI   C5A 6971  17.612   4.817   7.938  0.2116 -0.0074  0.2825
  436loPI   C6A 6972  17.238   4.843   7.760 -0.1380  0.2574 -0.2840
  436loPI   C1B 6973  18.379   3.894   9.583 -0.0164  0.0114  0.1020
  436loPI   C2B 6974  18.567   3.688   9.313 -0.0226  0.0665  0.0285
  436loPI   C3B 6975  18.666   3.718   8.829 -0.0155 -0.2285 -0.2617
  436loPI   C4B 6976  18.504   3.608   8.472 -0.2304  0.0514 -0.3384
  437loPI    C1 6977   3.708   5.508  10.618 -0.2558 -0.0552  0.0224
  437loPI    C2 6978   3.574   5.734  10.919 -0.0434 -0.0349  0.1031
  437loPI    C3 6979   3.724   5.371  10.993  0.0468 -0.0135  0.0269
  437loPI   PO4 6980   3.503   5.545  10.380  0.1254 -0.1601  0.0970
  437loPI   GL1 6981   3.472   5.477   9.974 -0.1912 -0.0240 -0.3154
  437loPI   GL2 6982   3.657   5.615   9.855 -0.0245  0.0849 -0.0516
  437loPI   C1A 6983   3.520   5.491   9.426 -0.0477  0.2221  0.1574
  437loPI   C2A 6984   3.503   5.536   9.056 -0.1196 -0.1381  0.1658
  437loPI   C3A 6985   3.576   5.472   8.683  0.0193  0.0048  0.2228
  437loPI   C4A 6986   3.634   5.443   8.112 -0.0628  0.0554 -0.0707
  437loPI   C5A 6987   3.838   5.596   7.789 -0.0722 -0.0767 -0.2618
  437loPI   C6A 6988   4.189   5.439   7.754  0.3227 -0.0941  0.2031
  437loPI   C1B 6989   4.073   5.509   9.607  0.2164  0.0649 -0.0646
  437loPI   C2B 6990   3.989   5.497   9.225 -0.1709  0.1536  0.2942
  437loPI   C3B 6991   4.065   5.424   8.814  0.4519  0.0482  0.0826
  437loPI   C4B 6992   4.027   5.457   8.383 -0.0387 -0.1081  0.1268
  438loPI    C1 6993  17.931  16.261  10.795 -0.1165  0.1341 -0.0611
  438loPI    C2 6994  18.285  16.161  10.637  0.0106  0.2600  0.1401
  438loPI    C3 6995  18.130  15.942  10.934 -0.1634  0.1042 -0.0625
  438loPI   PO4 6996  17.853  16.413  10.484 -0.2698  0.2835  0.2625
  438loPI   GL1 6997  17.875  16.279  10.080  0.0709 -0.3015 -0.0936
  438loPI   GL2 6998  17.505  16.248  10.148 -0.0073 -0.3359 -0.2146
  438loPI   C1A 6999  17.839  16.044   9.739 -0.0060  0.0085 -0.0100
  438loPI   C2A 7000  18.002  16.051   9.348 -0.2377  0.0341  0.2465
  438loPI   C3A 7001  18.162  16.072   8.948 -0.1600 -0.2110 -0.1419
  438loPI   C4A 7002  18.168  16.054   8.610 -0.0524 -0.0145  0.0178
  438loPI   C5A 7003  18.033  15.652   8.393 -0.1993  0.1892 -0.0751
  438loPI   C6A 7004  17.956  15.423   8.169 -0.1445  0.0183  0.0425
  438loPI   C1B 7005  17.465  16.349   9.757 -0.1285 -0.0516 -0.0080
  438loPI   C2B 7006  17.611  16.401   9.319 -0.0075 -0.2232 -0.0275
  438loPI   C3B 7007  17.515  16.063   8.947 -0.0992 -0.4453 -0.0226
  438loPI   C4B 7008  17.646  16.003   8.533  0.1084  0.0205  0.1967
  439loPI    C1 7009  11.111  13.471  10.645 -0.1388  0.2886  0.0910
  439loPI    C2 7010  11.217  13.494  11.030  0.0686 -0.0117  0.0551
  439loPI    C3 7011  10.894  13.283  10.924  0.0280  0.0473  0.0606
  439loPI   PO4 7012  11.161  13.693  10.504 -0.1623  0.2766  0.0127
  439loPI   GL1 7013  11.253  13.712  10.141 -0.1245  0.0100  0.0672
  439loPI   GL2 7014  11.441  13.934  10.048  0.1153 -0.0658  0.2806
  439loPI   C1A 7015  11.122  13.597   9.733 -0.0350  0.0244 -0.1392
  439loPI   C2A 7016  10.965  13.461   9.274 -0.0436  0.0222  0.2498
  439loPI   C3A 7017  10.943  13.409   8.886  0.1066  0.1184  0.2530
  439loPI   C4A 7018  11.048  13.310   8.423 -0.0007  0.1648 -0.2986
  439loPI   C5A 7019  11.331  13.349   8.008 -0.0235  0.2428 -0.0936
  439loPI   C6A 7020  11.354  13.458   7.570 -0.0998  0.0611 -0.0197
  439loPI   C1B 7021  11.632  14.165   9.708  0.1160 -0.1265  0.0433
  439loPI   C2B 7022  11.890  13.963   9.393 -0.0006 -0.4487  0.1894
  439loPI   C3B 7023  12.108  14.082   9.058  0.2513 -0.0522 -0.1416
  439loPI   C4B 7024  12.132  14.011   8.692  0.2672 -0.0053  0.2602
  440loPI    C1 7025  17.881  14.369  10.629 -0.0974  0.0643  0.0408
  440loPI    C2 7026  17.619  14.412  10.928 -0.0558  0.1070  0.0715
  440loPI    C3 7027  18.012  14.411  11.004 -0.0483 -0.0311  0.0344
  440loPI   PO4 7028  17.779  14.504  10.446  0.1625 -0.2058  0.0826
  440loPI   GL1 7029  17.926  14.769  10.179  0.3171  0.0725 -0.0558
  440loPI   GL2 7030  17.668  14.763   9.942 -0.0428  0.2123  0.1162
  440loPI   C1A 7031  18.146  14.741   9.761  0.2807  0.0034  0.4586
  440loPI   C2A 7032  18.216  14.743   9.317 -0.1660  0.3984 -0.2143
  440loPI   C3A 7033  18.152  14.717   8.886 -0.3203  0.0522 -0.1503
  440loPI   C4A 7034  18.066  14.519   8.507  0.2472  0.1238  0.3866
  440loPI   C5A 7035  18.294  14.567   8.187  0.1030  0.1389 -0.0918
  440loPI   C6A 7036  18.605  14.442   7.991  0.2334 -0.0425 -0.3584
  440loPI   C1B 7037  17.698  14.769   9.531 -0.2144  0.0402 -0.0252
  440loPI   C2B 7038  17.684  14.736   9.157 -0.1976  0.2056 -0.1066
  440loPI   C3B 7039  17.612  14.711   8.679 -0.0432  0.2040 -0.1246
  440loPI   C4B 7040  17.348  14.684   8.265  0.1718 -0.0171 -0.2716
  441loPI    C1 7041  12.110   7.998  10.624 -0.1183  0.1635 -0.0243
  441loPI    C2 7042  11.935   7.883  10.965 -0.1765 -0.2121 -0.1753
  441loPI    C3 7043  12.318   7.997  10.965 -0.1694 -0.2337  0.0112
  441loPI   PO4 7044  11.961   7.947  10.483 -0.1763  0.5639  0.2314
  441loPI   GL1 7045  11.762   8.330  10.199 -0.2700  0.2628  0.1972
  441loPI   GL2 7046  11.763   8.632  10.091 -0.0584  0.0860  0.2849
  441loPI   C1A 7047  11.680   8.150   9.793  0.1994  0.0346  0.1740
  441loPI   C2A 7048  11.619   8.250   9.379  0.2157 -0.0090 -0.2440
  441loPI   C3A 7049  11.611   8.266   8.875  0.2544 -0.1469 -0.0892
  441loPI   C4A 7050  11.496   8.380   8.429  0.1363 -0.2870 -0.0076
  441loPI   C5A 7051  11.533   8.469   8.047  0.4703 -0.0832 -0.1556
  441loPI   C6A 7052  11.346   8.529   7.641 -0.0085 -0.0578  0.0051
  441loPI   C1B 7053  11.908   8.747   9.608  0.3091 -0.0427  0.0943
  441loPI   C2B 7054  11.853   8.675   9.148 -0.0267 -0.0195  0.0757
  441loPI   C3B 7055  11.422   8.745   8.884 -0.1109  0.4257 -0.0757
  441loPI   C4B 7056  11.311   8.846   8.547 -0.0792  0.2445  0.0509
  442loPI    C1 7057  14.439   8.753  11.087 -0.1880 -0.0594  0.0580
  442loPI    C2 7058  14.815   8.679  11.202 -0.0970 -0.1013 -0.2557
  442loPI    C3 7059  14.556   8.843  11.459  0.0621 -0.3070  0.0431
  442loPI   PO4 7060  14.390   8.628  10.908 -0.0763 -0.1052  0.0225
  442loPI   GL1 7061  14.417   8.326  10.572  0.0059  0.3155  0.4948
  442loPI   GL2 7062  14.180   8.673  10.453 -0.1331  0.1610  0.1104
  442loPI   C1A 7063  14.606   8.316  10.233 -0.1515  0.1500  0.0803
  442loPI   C2A 7064  14.734   8.006  10.030 -0.0042 -0.1943 -0.1007
  442loPI   C3A 7065  14.701   7.923   9.650 -0.1826 -0.0839  0.0054
  442loPI   C4A 7066  14.581   7.964   9.190 -0.2125  0.2714 -0.1624
  442loPI   C5A 7067  14.582   8.067   8.730 -0.1261 -0.0639  0.1310
  442loPI   C6A 7068  14.612   8.098   8.340  0.2287  0.0753  0.0705
  442loPI   C1B 7069  14.232   8.902  10.100 -0.0642 -0.3250 -0.1379
  442loPI   C2B 7070  14.242   8.935   9.682  0.1103  0.0685 -0.1809
  442loPI   C3B 7071  14.267   8.942   9.286  0.0501 -0.0758 -0.0190
  442loPI   C4B 7072  14.266   8.967   8.801  0.0573 -0.0443 -0.0568
  443loPI    C1 7073   5.827   4.499  10.854  0.1123  0.1906 -0.0278
  443loPI    C2 7074   6.167   4.704  10.902  0.0622  0.2871 -0.0819
  443loPI    C3 7075   5.858   4.767  11.148  0.1709  0.0126  0.1304
  443loPI   PO4 7076   5.793   4.543  10.656  0.1751 -0.1750  0.0787
  443loPI   GL1 7077   5.607   4.778  10.386 -0.0708 -0.0197  0.3784
  443loPI   GL2 7078   5.720   5.007  10.228  0.2231 -0.2568 -0.1354
  443loPI   C1A 7079   5.431   4.579  10.020 -0.0095  0.0128 -0.0722
  443loPI   C2A 7080   5.495   4.463   9.629 -0.0770  0.3664  0.1461
  443loPI   C3A 7081   5.591   4.515   9.209  0.1900 -0.0134  0.0833
  443loPI   C4A 7082   5.518   4.503   8.699 -0.0058 -0.1893 -0.1787
  443loPI   C5A 7083   5.536   4.534   8.386 -0.0175 -0.2424  0.2442
  443loPI   C6A 7084   5.678   4.778   8.074  0.0907 -0.1746  0.1204
  443loPI   C1B 7085   5.801   4.883   9.877 -0.2621 -0.2452  0.1400
  443loPI   C2B 7086   5.813   4.868   9.397 -0.2149  0.1084 -0.0646
  443loPI   C3B 7087   5.804   4.860   8.975  0.1004  0.2260 -0.1342
  443loPI   C4B 7088   5.763   4.959   8.554 -0.1185  0.1409  0.0754
  444loPI    C1 7089  14.753   0.065  10.604  0.1541 -0.0278  0.1272
  444loPI    C2 7090  14.781  -0.242  10.859 -0.1201 -0.1488  0.0159
  444loPI    C3 7091  14.547   0.070  10.947  0.0036 -0.0617  0.0383
  444loPI   PO4 7092  14.942   0.042  10.417 -0.2523  0.0327  0.3932
  444loPI   GL1 7093  14.988   0.101  10.060 -0.0310 -0.0392 -0.0420
  444loPI   GL2 7094  14.877  -0.203  10.035  0.3672  0.0855  0.1401
  444loPI   C1A 7095  14.561   0.093   9.710 -0.3464  0.0930  0.0193
  444loPI   C2A 7096  14.495  -0.058   9.307 -0.1449  0.0216  0.0069
  444loPI   C3A 7097  14.438  -0.132   8.954 -0.1303 -0.1326  0.2173
  444loPI   C4A 7098  14.670   0.105   8.725 -0.1382  0.2738  0.0771
  444loPI   C5A 7099  15.150   0.105   8.699 -0.1352  0.0925 -0.0811
  444loPI   C6A 7100  15.670   0.130   8.632  0.0658 -0.1761 -0.2852
  444loPI   C1B 7101  14.719  -0.375   9.648  0.2102  0.3105  0.0137
  444loPI   C2B 7102  14.885  -0.386   9.354  0.0171 -0.0405 -0.0602
  444loPI   C3B 7103  14.858  -0.420   8.992 -0.2695  0.1798 -0.1253
  444loPI   C4B 7104  14.685  -0.438   8.589 -0.1629  0.0491 -0.0048
  445loPI    C1 7105  17.967  14.891  10.804 -0.1370  0.0612 -0.0986
  445loPI    C2 7106  17.740  15.189  10.944 -0.0075  0.0724  0.0913
  445loPI    C3 7107  17.741  14.835  11.130  0.0193  0.0270  0.0051
  445loPI   PO4 7108  18.214  15.070  10.746  0.0846 -0.0174 -0.0314
  445loPI   GL1 7109  18.373  15.130  10.353  0.4081 -0.0443 -0.1929
  445loPI   GL2 7110  18.562  15.256  10.137 -0.1493 -0.0517  0.1827
  445loPI   C1A 7111  18.061  15.182   9.986 -0.2205 -0.0820 -0.2292
  445loPI   C2A 7112  18.028  15.169   9.505 -0.0021  0.1246 -0.1075
  445loPI   C3A 7113  18.086  15.224   9.068  0.0185 -0.5227 -0.1868
  445loPI   C4A 7114  17.844  15.253   8.629 -0.3735  0.1565 -0.2601
  445loPI   C5A 7115  17.694  15.023   8.266 -0.0755  0.1125  0.0919
  445loPI   C6A 7116  17.582  14.973   7.868  0.0334 -0.2231  0.1394
  445loPI   C1B 7117  18.577  15.246   9.696 -0.1211  0.1115 -0.0254
  445loPI   C2B 7118  18.555  15.202   9.287  0.0550 -0.1720 -0.0855
  445loPI   C3B 7119  18.495  15.129   8.853 -0.0093  0.1283  0.3072
  445loPI   C4B 7120  18.240  15.000   8.452 -0.0780 -0.3131  0.1014
  446loPI    C1 7121  12.303  14.402  10.560 -0.0770 -0.0065  0.1920
  446loPI    C2 7122  12.345  14.353  10.165  0.1708 -0.0954  0.2275
  446loPI    C3 7123  12.370  14.037  10.409  0.1575 -0.0209  0.3258
  446loPI   PO4 7124  12.442  14.640  10.562  0.1263 -0.2218 -0.0540
  446loPI   GL1 7125  12.507  14.817  10.108  0.2226 -0.1365 -0.0127
  446loPI   GL2 7126  12.464  15.140  10.145 -0.2341 -0.2547  0.0383
  446loPI   C1A 7127  12.601  14.803   9.704 -0.0250  0.0492  0.4660
  446loPI   C2A 7128  12.754  14.808   9.201  0.1582  0.1422  0.1541
  446loPI   C3A 7129  12.575  14.906   8.800  0.0639  0.0210 -0.2733
  446loPI   C4A 7130  12.747  14.803   8.404  0.1082  0.2696 -0.2485
  446loPI   C5A 7131  12.723  14.923   7.946 -0.2212 -0.0290 -0.0647
  446loPI   C6A 7132  12.592  14.600   7.618 -0.1062  0.0305 -0.3313
  446loPI   C1B 7133  12.443  15.273   9.719 -0.1533 -0.0095  0.0213
  446loPI   C2B 7134  12.452  15.243   9.272 -0.1458  0.0648 -0.0741
  446loPI   C3B 7135  12.374  15.391   8.840 -0.1266 -0.1388 -0.1750
  446loPI   C4B 7136  12.450  15.228   8.419  0.2442 -0.2066 -0.1178
  447loPI    C1 7137  17.048   0.183  10.626  0.0059 -0.2061 -0.0826
  447loPI    C2 7138  17.036   0.478  10.896 -0.2977 -0.2346 -0.0619
  447loPI    C3 7139  17.257   0.152  10.966  0.1340  0.0329 -0.1370
  447loPI   PO4 7140  17.158   0.415  10.419  0.2237 -0.0289  0.0365
  447loPI   GL1 7141  17.200   0.185  10.031  0.0876 -0.0971 -0.1458
  447loPI   GL2 7142  17.512   0.313   9.953 -0.0785  0.0359 -0.2351
  447loPI   C1A 7143  17.297   0.029   9.583 -0.3456 -0.0649  0.2604
  447loPI   C2A 7144  17.435   0.185   9.259 -0.1998  0.0296  0.1733
  447loPI   C3A 7145  17.630   0.328   8.899 -0.2045 -0.1461  0.1800
  447loPI   C4A 7146  17.670   0.271   8.449  0.2573 -0.0170 -0.0202
  447loPI   C5A 7147  18.066   0.081   8.316 -0.2748  0.1491 -0.1888
  447loPI   C6A 7148  18.458   0.107   8.047  0.0057  0.0135  0.1359
  447loPI   C1B 7149  17.462   0.539   9.579  0.1655  0.0898  0.1364
  447loPI   C2B 7150  17.328   0.686   9.135 -0.0046  0.0737  0.1542
  447loPI   C3B 7151  17.381   0.740   8.664 -0.0138  0.1836 -0.0581
  447loPI   C4B 7152  17.649   0.713   8.250 -0.0925 -0.1136  0.2084
  448loPI    C1 7153  12.171   9.392  10.859  0.1186  0.0205 -0.0927
  448loPI    C2 7154  11.872   9.516  11.094  0.0592 -0.1108 -0.0981
  448loPI    C3 7155  12.172   9.302  11.249  0.0487 -0.1491 -0.1310
  448loPI   PO4 7156  12.076   9.246  10.607  0.3477  0.1536  0.1751
  448loPI   GL1 7157  12.257   9.142  10.350 -0.2604 -0.0255 -0.0659
  448loPI   GL2 7158  12.472   9.332  10.354 -0.1459  0.0548 -0.0110
  448loPI   C1A 7159  12.261   9.029   9.883  0.1336 -0.5695  0.3916
  448loPI   C2A 7160  12.261   9.125   9.451  0.1017  0.2589 -0.1437
  448loPI   C3A 7161  12.129   9.108   9.047  0.1735 -0.0147 -0.1196
  448loPI   C4A 7162  11.885   8.830   8.660  0.0112 -0.2054  0.1045
  448loPI   C5A 7163  11.782   8.878   8.240 -0.0238  0.1711 -0.0418
  448loPI   C6A 7164  11.645   9.032   7.866  0.2224 -0.0535 -0.0081
  448loPI   C1B 7165  12.496   9.513   9.960  0.0562 -0.0687  0.1036
  448loPI   C2B 7166  12.587   9.503   9.489  0.3017  0.1377  0.2512
  448loPI   C3B 7167  12.428   9.462   9.129  0.0244  0.0089 -0.0174
  448loPI   C4B 7168  12.436   9.709   8.708  0.2712 -0.3153  0.0081
  449loPI    C1 7169  16.330  12.773  10.363 -0.0084  0.0294  0.1852
  449loPI    C2 7170  16.380  12.724  10.757  0.0706 -0.3847  0.1281
  449loPI    C3 7171  16.101  12.512  10.562  0.1051 -0.2615 -0.0576
  449loPI   PO4 7172  16.226  13.006  10.280  0.0496  0.2433  0.0800
  449loPI   GL1 7173  15.942  13.193  10.078 -0.2015 -0.2044  0.1954
  449loPI   GL2 7174  15.818  13.161   9.800  0.1636 -0.2529 -0.0533
  449loPI   C1A 7175  15.733  13.624   9.728  0.1487 -0.0289  0.2463
  449loPI   C2A 7176  15.655  13.736   9.342 -0.0018  0.0036  0.3552
  449loPI   C3A 7177  15.764  13.619   8.948  0.2579  0.1942 -0.2408
  449loPI   C4A 7178  15.860  13.733   8.535  0.0391 -0.2674 -0.0773
  449loPI   C5A 7179  15.686  13.891   8.182 -0.0075 -0.0588  0.1351
  449loPI   C6A 7180  15.207  13.789   8.047 -0.3193 -0.0833 -0.1707
  449loPI   C1B 7181  15.793  13.154   9.345  0.0937  0.0548  0.0747
  449loPI   C2B 7182  15.902  13.167   8.850  0.0519 -0.1895  0.1012
  449loPI   C3B 7183  16.185  13.353   8.506 -0.2558  0.1884 -0.0142
  449loPI   C4B 7184  16.200  13.660   8.191 -0.3577  0.0416  0.2708
  450loPI    C1 7185   0.348  15.689  11.132 -0.0553 -0.0233 -0.3416
  450loPI    C2 7186   0.035  15.750  11.375  0.0712  0.4454 -0.2870
  450loPI    C3 7187   0.043  15.430  11.135 -0.1785  0.1167  0.1295
  450loPI   PO4 7188   0.486  15.894  10.918 -0.1525 -0.0570  0.1338
  450loPI   GL1 7189   0.556  15.911  10.434  0.1942 -0.2469  0.0286
  450loPI   GL2 7190   0.508  15.704  10.331  0.0390 -0.1430  0.0488
  450loPI   C1A 7191   0.308  16.167  10.104 -0.0048  0.1478 -0.1102
  450loPI   C2A 7192   0.208  16.148   9.696  0.3876 -0.1324 -0.1774
  450loPI   C3A 7193   0.364  16.046   9.274 -0.2950 -0.4445  0.1412
  450loPI   C4A 7194   0.516  16.018   8.854  0.2829  0.2310  0.3342
  450loPI   C5A 7195   0.467  16.014   8.434 -0.1751  0.0914 -0.2041
  450loPI   C6A 7196   0.192  15.864   8.160  0.3423 -0.2266 -0.0578
  450loPI   C1B 7197   0.521  15.729   9.837 -0.1072 -0.1562  0.3863
  450loPI   C2B 7198   0.627  15.667   9.465  0.0395  0.0830 -0.0978
  450loPI   C3B 7199   0.708  15.641   9.077 -0.0996 -0.1665 -0.0078
  450loPI   C4B 7200   0.712  15.596   8.668  0.0670  0.2270  0.0483
  451loPI    C1 7201   1.589   8.279  10.472 -0.0630 -0.0578 -0.0084
  451loPI    C2 7202   1.602   8.329  10.869 -0.1265 -0.3278  0.0296
  451loPI    C3 7203   1.276   8.438  10.664 -0.0233 -0.0189  0.0243
  451loPI   PO4 7204   1.824   8.360  10.391 -0.0901  0.1498  0.4092
  451loPI   GL1 7205   1.821   8.419   9.952 -0.0993 -0.0863  0.2235
  451loPI   GL2 7206   1.830   8.084   9.911  0.4466  0.1695  0.0289
  451loPI   C1A 7207   1.745   8.699   9.564 -0.0201  0.0059  0.0303
  451loPI   C2A 7208   1.531   8.460   9.219  0.0130 -0.3823 -0.0784
  451loPI   C3A 7209   1.690   8.643   8.901  0.0027  0.0721 -0.2537
  451loPI   C4A 7210   1.628   8.675   8.420  0.2043 -0.2061 -0.0790
  451loPI   C5A 7211   1.307   8.829   8.104  0.0466  0.0160  0.2295
  451loPI   C6A 7212   1.190   8.584   7.809 -0.2156 -0.0718  0.1017
  451loPI   C1B 7213   1.884   8.171   9.388  0.3596  0.1348  0.2036
  451loPI   C2B 7214   1.982   8.149   8.973 -0.0044  0.0746  0.1218
  451loPI   C3B 7215   1.958   8.252   8.541 -0.1587  0.1412 -0.0551
  451loPI   C4B 7216   1.770   7.939   8.309 -0.2728  0.0466  0.2257
  452loPI    C1 7217  16.960   6.497  10.344  0.0923  0.1183  0.1123
  452loPI    C2 7218  17.324   6.416  10.488  0.1129 -0.0685 -0.0404
  452loPI    C3 7219  17.072   6.644  10.699  0.1917 -0.2238  0.2269
  452loPI   PO4 7220  16.954   6.317  10.172  0.0841  0.0526 -0.0458
  452loPI   GL1 7221  16.780   6.418   9.782  0.2217 -0.0505 -0.0891
  452loPI   GL2 7222  16.531   6.343   9.877  0.0934 -0.0599 -0.1646
  452loPI   C1A 7223  16.730   6.357   9.333 -0.0618 -0.0680  0.0170
  452loPI   C2A 7224  16.727   6.579   9.021 -0.0170  0.0405  0.1629
  452loPI   C3A 7225  16.721   6.722   8.547  0.1349  0.1263  0.2287
  452loPI   C4A 7226  17.020   6.933   8.241 -0.0008  0.1603 -0.1074
  452loPI   C5A 7227  17.367   7.089   8.054 -0.1714  0.0925 -0.1262
  452loPI   C6A 7228  17.231   7.521   8.211  0.1748  0.4774  0.0680
  452loPI   C1B 7229  16.257   6.031   9.564  0.3116 -0.1759 -0.0308
  452loPI   C2B 7230  16.482   5.895   9.235  0.1828  0.0452  0.0630
  452loPI   C3B 7231  16.844   5.923   9.017 -0.0627  0.0621  0.1611
  452loPI   C4B 7232  17.048   6.015   8.608 -0.2787 -0.2181 -0.4720
  453loPI    C1 7233  10.223  14.391  10.579 -0.0061  0.0003  0.1096
  453loPI    C2 7234  10.389  14.125  10.826  0.0562 -0.0769 -0.0140
  453loPI    C3 7235  10.422  14.516  10.902  0.1993 -0.0954  0.0221
  453loPI   PO4 7236  10.328  14.331  10.311  0.0543 -0.3601 -0.0344
  453loPI   GL1 7237  10.592  14.141   9.988  0.0759  0.2009  0.3096
  453loPI   GL2 7238  10.746  13.832  10.013  0.0025  0.0681 -0.0994
  453loPI   C1A 7239  10.496  14.235   9.545  0.0046  0.0869  0.1334
  453loPI   C2A 7240  10.428  14.073   9.145 -0.3045 -0.0737  0.1556
  453loPI   C3A 7241  10.383  14.148   8.744 -0.1631 -0.0369 -0.1473
  453loPI   C4A 7242  10.321  14.099   8.282 -0.2199  0.2239  0.2572
  453loPI   C5A 7243  10.568  14.122   7.895  0.0292  0.1592  0.0600
  453loPI   C6A 7244  10.752  14.409   7.579 -0.0460  0.3755 -0.0467
  453loPI   C1B 7245  10.633  13.765   9.481 -0.1804  0.3815 -0.0422
  453loPI   C2B 7246  10.531  13.614   9.013 -0.0124 -0.0365 -0.0167
  453loPI   C3B 7247  10.517  13.396   8.612 -0.0917 -0.2547  0.1135
  453loPI   C4B 7248  10.576  13.641   8.209  0.0746 -0.5038 -0.1583
  454loPI    C1 7249   9.195   1.539  11.011 -0.1922  0.1758 -0.0478
  454loPI    C2 7250   8.990   1.832  11.190 -0.1999  0.1462 -0.0079
  454loPI    C3 7251   9.329   1.697  11.354 -0.0811  0.2816 -0.1387
  454loPI   PO4 7252   9.044   1.503  10.799 -0.0010 -0.2782  0.1283
  454loPI   GL1 7253   8.839   1.288  10.505  0.0033  0.2620  0.0276
  454loPI   GL2 7254   8.630   0.960  10.549 -0.0888  0.1319 -0.0209
  454loPI   C1A 7255   8.610   1.576  10.107  0.1069 -0.1505 -0.0045
  454loPI   C2A 7256   8.520   1.716   9.741 -0.2550 -0.0006 -0.0925
  454loPI   C3A 7257   8.527   1.746   9.319 -0.0529 -0.1726  0.0882
  454loPI   C4A 7258   8.628   1.590   8.934  0.3859  0.1357  0.0883
  454loPI   C5A 7259   8.571   1.603   8.498 -0.1386  0.0266 -0.0141
  454loPI   C6A 7260   8.572   1.848   8.062  0.1236  0.0412  0.0902
  454loPI   C1B 7261   8.617   0.957  10.041 -0.1009  0.2121 -0.2331
  454loPI   C2B 7262   8.521   0.863   9.648 -0.3969 -0.0377 -0.1858
  454loPI   C3B 7263   8.496   0.799   9.259 -0.0182  0.1312  0.1110
  454loPI   C4B 7264   8.382   0.445   9.070 -0.1471  0.0521  0.3912
  455loPI    C1 7265   2.641  14.006  10.736 -0.2624  0.1230  0.3041
  455loPI    C2 7266   2.864  13.826  11.016 -0.1161 -0.0603  0.0735
  455loPI    C3 7267   2.835  14.225  11.009 -0.0514 -0.0505  0.2962
  455loPI   PO4 7268   2.751  13.806  10.536  0.2810  0.0176 -0.1627
  455loPI   GL1 7269   2.732  13.817  10.093  0.0003  0.2943 -0.0528
  455loPI   GL2 7270   2.473  13.785   9.974  0.0364  0.0848  0.0321
  455loPI   C1A 7271   2.897  14.054   9.738 -0.1259 -0.0760 -0.1679
  455loPI   C2A 7272   2.755  14.129   9.279  0.0269  0.2652 -0.0108
  455loPI   C3A 7273   2.761  14.108   8.780 -0.0367  0.1176  0.0980
  455loPI   C4A 7274   2.668  14.135   8.300  0.2288  0.2445 -0.1481
  455loPI   C5A 7275   2.873  14.104   7.964 -0.2383 -0.1132 -0.2392
  455loPI   C6A 7276   3.015  13.813   7.630  0.2156 -0.1105  0.1569
  455loPI   C1B 7277   2.397  13.780   9.457 -0.0037 -0.0123  0.3276
  455loPI   C2B 7278   2.543  13.704   9.014 -0.0405 -0.0965  0.0176
  455loPI   C3B 7279   2.585  13.684   8.590  0.1935 -0.1563  0.3319
  455loPI   C4B 7280   2.565  13.650   8.135 -0.1936 -0.3642 -0.0698
  456loPI    C1 7281  14.050  11.210  11.315  0.0717 -0.0359  0.0399
  456loPI    C2 7282  14.368  11.339  11.521 -0.1011  0.0022  0.2866
  456loPI    C3 7283  14.200  10.988  11.612 -0.0860 -0.0529  0.1072
  456loPI   PO4 7284  14.186  11.279  11.015 -0.1188  0.0094  0.2025
  456loPI   GL1 7285  14.361  11.213  10.590  0.2540  0.0934  0.2546
  456loPI   GL2 7286  14.586  11.402  10.704 -0.2245 -0.0661 -0.1204
  456loPI   C1A 7287  14.282  11.147  10.170 -0.0628  0.0119 -0.2148
  456loPI   C2A 7288  14.363  11.138   9.751 -0.3749 -0.0631 -0.0237
  456loPI   C3A 7289  14.244  11.104   9.298  0.0698  0.1710 -0.0740
  456loPI   C4A 7290  14.403  11.149   8.941  0.1086 -0.0374 -0.4652
  456loPI   C5A 7291  14.353  11.268   8.657  0.2393  0.2403  0.0516
  456loPI   C6A 7292  14.494  11.517   8.373  0.1123 -0.2829  0.0661
  456loPI   C1B 7293  14.622  11.530  10.287  0.0637  0.0862  0.1305
  456loPI   C2B 7294  14.616  11.553   9.842 -0.1527 -0.0486  0.3411
  456loPI   C3B 7295  14.582  11.528   9.373  0.1804 -0.0816  0.3617
  456loPI   C4B 7296  14.641  11.575   8.916  0.0543  0.0935 -0.2139
  457loPI    C1 7297   8.615   9.351  10.198  0.4175  0.0286 -0.1607
  457loPI    C2 7298   8.608   9.741  10.108  0.1937  0.0851  0.0886
  457loPI    C3 7299   8.839   9.608  10.406 -0.0121  0.0833  0.2494
  457loPI   PO4 7300   8.378   9.292  10.259  0.1359 -0.1637  0.2875
  457loPI   GL1 7301   8.147   8.854   9.977  0.1882  0.1259 -0.1654
  457loPI   GL2 7302   8.528   8.908   9.937 -0.3374 -0.0302 -0.0693
  457loPI   C1A 7303   8.103   8.514   9.753  0.1260  0.2678  0.2802
  457loPI   C2A 7304   8.076   8.441   9.316  0.0022 -0.0278  0.4893
  457loPI   C3A 7305   7.997   8.455   8.894 -0.4058 -0.2425  0.1054
  457loPI   C4A 7306   8.002   8.562   8.524  0.0692  0.2362 -0.1479
  457loPI   C5A 7307   7.952   8.462   8.155  0.2780 -0.0936  0.1771
  457loPI   C6A 7308   8.101   8.228   7.775  0.1330  0.3803 -0.0239
  457loPI   C1B 7309   8.377   8.821   9.483  0.2469  0.0228  0.2082
  457loPI   C2B 7310   8.287   8.874   9.093 -0.1254 -0.0314  0.1638
  457loPI   C3B 7311   8.253   8.929   8.674  0.2598 -0.3051  0.0008
  457loPI   C4B 7312   8.181   8.957   8.255 -0.1065 -0.1100  0.1585
  458loPI    C1 7313   0.210  17.014  10.684  0.0882 -0.0142  0.2185
  458loPI    C2 7314   0.182  16.667  10.487  0.0406  0.0992  0.0234
  458loPI    C3 7315   0.115  16.679  10.881 -0.1948 -0.0720 -0.0096
  458loPI   PO4 7316   0.315  17.155  10.509  0.0042 -0.0784 -0.0222
  458loPI   GL1 7317   0.374  17.322  10.091  0.0784  0.2522  0.1434
  458loPI   GL2 7318   0.328  17.040  10.049  0.0638 -0.1901 -0.1157
  458loPI   C1A 7319   0.180  17.522   9.804 -0.0042 -0.0991 -0.4482
  458loPI   C2A 7320   0.305  17.623   9.420  0.2172 -0.0303  0.0561
  458loPI   C3A 7321   0.212  17.467   8.995 -0.0676 -0.1945  0.1957
  458loPI   C4A 7322   0.379  17.435   8.571 -0.2601 -0.0427  0.1814
  458loPI   C5A 7323   0.480  17.360   8.073 -0.2514  0.2649 -0.2836
  458loPI   C6A 7324   0.371  17.067   7.853  0.1273 -0.2499  0.1821
  458loPI   C1B 7325   0.399  17.032   9.679 -0.1041 -0.1094 -0.2774
  458loPI   C2B 7326   0.406  16.935   9.193  0.2365  0.2130  0.1793
  458loPI   C3B 7327   0.401  16.958   8.764 -0.0349  0.0395 -0.0518
  458loPI   C4B 7328   0.626  17.057   8.409 -0.1658  0.0409 -0.1624
  459loPI    C1 7329  13.608  11.089  11.130  0.2223 -0.0282 -0.0802
  459loPI    C2 7330  13.318  11.044  11.402  0.1858  0.0412 -0.1071
  459loPI    C3 7331  13.683  10.899  11.474  0.1041 -0.1858 -0.1404
  459loPI   PO4 7332  13.473  11.052  10.880  0.3306 -0.1098 -0.1317
  459loPI   GL1 7333  13.609  11.260  10.547 -0.1454 -0.0262 -0.0604
  459loPI   GL2 7334  13.856  11.188  10.621  0.0553 -0.3485  0.1113
  459loPI   C1A 7335  13.770  11.141  10.116 -0.2671 -0.0672  0.3086
  459loPI   C2A 7336  13.849  11.183   9.739  0.0711  0.1804 -0.0594
  459loPI   C3A 7337  13.733  11.195   9.309 -0.2461 -0.2979 -0.0020
  459loPI   C4A 7338  13.842  11.210   8.817  0.3111  0.0226  0.0207
  459loPI   C5A 7339  13.947  10.906   8.476  0.3878  0.0695  0.0214
  459loPI   C6A 7340  13.838  10.492   8.234 -0.1088 -0.0199  0.0243
  459loPI   C1B 7341  14.016  10.733  10.282 -0.2605 -0.3122 -0.1585
  459loPI   C2B 7342  13.968  10.710   9.859 -0.1077 -0.0255 -0.1121
  459loPI   C3B 7343  13.910  10.736   9.352 -0.0917 -0.0969  0.2309
  459loPI   C4B 7344  14.024  10.709   8.936 -0.0554 -0.3472  0.0069
  460loPI    C1 7345   2.293   4.829  10.888 -0.0733  0.3581  0.2462
  460loPI    C2 7346   2.534   4.957  10.595 -0.0451 -0.1595  0.0329
  460loPI    C3 7347   2.690   4.799  10.927 -0.0849 -0.0056  0.1255
  460loPI   PO4 7348   2.070   4.591  10.735  0.0255  0.1536  0.0955
  460loPI   GL1 7349   1.909   4.483  10.286 -0.4184 -0.1166  0.0111
  460loPI   GL2 7350   2.267   4.576  10.300  0.0462  0.2009  0.1027
  460loPI   C1A 7351   1.781   4.303   9.970  0.1608  0.0378 -0.0284
  460loPI   C2A 7352   1.595   4.229   9.550  0.1303 -0.1265  0.2858
  460loPI   C3A 7353   1.569   4.244   9.119  0.1047 -0.3167  0.1532
  460loPI   C4A 7354   1.667   4.276   8.673  0.0668  0.1049 -0.2799
  460loPI   C5A 7355   1.658   4.311   8.262  0.1239  0.0213  0.0681
  460loPI   C6A 7356   1.803   4.120   7.915  0.1346 -0.0619  0.1417
  460loPI   C1B 7357   2.120   4.831   9.983 -0.0945  0.2289  0.1796
  460loPI   C2B 7358   2.202   5.035   9.575  0.2138 -0.4366 -0.2128
  460loPI   C3B 7359   2.173   5.055   9.144 -0.0914  0.0645 -0.1426
  460loPI   C4B 7360   2.133   5.094   8.670 -0.0418  0.1031 -0.1053
  461loPI    C1 7361  17.493  14.841  10.686 -0.0084  0.1362 -0.1097
  461loPI    C2 7362  17.278  14.513  10.607  0.2684 -0.0699 -0.0238
  461loPI    C3 7363  17.160  14.765  10.894  0.0313 -0.0693 -0.1194
  461loPI   PO4 7364  17.518  14.940  10.424  0.0236  0.0286  0.1950
  461loPI   GL1 7365  17.383  15.266  10.188  0.2607  0.2326  0.2836
  461loPI   GL2 7366  17.040  15.320  10.245  0.0977  0.2501  0.0613
  461loPI   C1A 7367  17.488  15.206   9.807  0.0218 -0.2798 -0.0854
  461loPI   C2A 7368  17.565  15.214   9.342  0.0083  0.0448 -0.1274
  461loPI   C3A 7369  17.445  15.277   8.968 -0.0338  0.3087  0.1381
  461loPI   C4A 7370  17.350  15.097   8.612 -0.0650  0.0789 -0.1358
  461loPI   C5A 7371  17.193  15.167   8.234 -0.0380  0.0480 -0.0426
  461loPI   C6A 7372  17.193  15.329   7.901  0.1546  0.0172  0.0326
  461loPI   C1B 7373  16.964  15.497   9.816 -0.0687  0.1742 -0.3012
  461loPI   C2B 7374  17.021  15.341   9.402  0.1889  0.2388 -0.0509
  461loPI   C3B 7375  16.925  15.377   8.970 -0.3405  0.0732 -0.0636
  461loPI   C4B 7376  16.781  15.214   8.607 -0.1583 -0.1925 -0.2386
  462loPI    C1 7377   2.817  15.962  10.639 -0.1128 -0.0683 -0.1377
  462loPI    C2 7378   2.502  15.838  10.852 -0.1393 -0.0268 -0.1528
  462loPI    C3 7379   2.788  16.055  11.027 -0.0751 -0.1392 -0.1177
  462loPI   PO4 7380   2.897  15.768  10.505 -0.1004 -0.0426 -0.1542
  462loPI   GL1 7381   3.090  15.756  10.170 -0.0528  0.0257 -0.1457
  462loPI   GL2 7382   3.134  15.395  10.192 -0.2530 -0.1008  0.1678
  462loPI   C1A 7383   3.319  16.013   9.994  0.0081 -0.1016 -0.1924
  462loPI   C2A 7384   3.305  16.348   9.740 -0.2333 -0.4740 -0.0110
  462loPI   C3A 7385   3.330  16.378   9.305  0.4294 -0.0411 -0.1926
  462loPI   C4A 7386   3.309  16.314   8.933  0.0186  0.2001 -0.1966
  462loPI   C5A 7387   3.432  16.292   8.486 -0.0132  0.0570 -0.0097
  462loPI   C6A 7388   3.477  16.462   8.171  0.0153  0.0818 -0.1866
  462loPI   C1B 7389   3.229  15.490   9.762  0.1301 -0.2187 -0.0286
  462loPI   C2B 7390   3.147  15.518   9.293 -0.2009 -0.1393  0.0294
  462loPI   C3B 7391   3.202  15.475   8.886 -0.1160 -0.1855  0.2465
  462loPI   C4B 7392   3.162  15.428   8.525  0.1433 -0.0955 -0.0170
  463loPI    C1 7393  18.048   1.070  10.945  0.1226 -0.0073 -0.0277
  463loPI    C2 7394  18.251   0.920  11.255  0.0242 -0.0958 -0.0056
  463loPI    C3 7395  17.891   1.086  11.313  0.0586 -0.0037 -0.0550
  463loPI   PO4 7396  18.310   1.190  10.832 -0.2623  0.0565  0.2531
  463loPI   GL1 7397  18.538   1.021  10.425  0.3061 -0.1749 -0.0589
  463loPI   GL2 7398  18.278   0.954  10.238 -0.1692 -0.0941  0.0158
  463loPI   C1A 7399  18.803   0.981  10.062 -0.1003 -0.1928  0.1128
  463loPI   C2A 7400  18.919   0.909   9.658  0.1476 -0.0234 -0.0344
  463loPI   C3A 7401  19.072   1.085   9.266  0.2148 -0.0344  0.1615
  463loPI   C4A 7402  19.059   0.912   8.887  0.0606 -0.3131 -0.1390
  463loPI   C5A 7403  18.867   0.543   8.685 -0.0065 -0.1914  0.3312
  463loPI   C6A 7404  18.817   0.118   8.453 -0.0056 -0.0656  0.0509
  463loPI   C1B 7405  18.437   1.027   9.770 -0.0257  0.1962 -0.0416
  463loPI   C2B 7406  18.673   1.433   9.702  0.1171 -0.0468 -0.0749
  463loPI   C3B 7407  18.925   1.529   9.355  0.1133 -0.0696  0.0515
  463loPI   C4B 7408  18.805   1.392   8.892 -0.0800  0.2242  0.2926
  464loPI    C1 7409   8.382  14.103  10.691  0.0177  0.1514 -0.2025
  464loPI    C2 7410   8.484  14.420  10.913  0.2046 -0.2028  0.2324
  464loPI    C3 7411   8.178  14.188  11.024 -0.1174 -0.0205 -0.2402
  464loPI   PO4 7412   8.405  14.165  10.446 -0.0435  0.1753 -0.0322
  464loPI   GL1 7413   8.365  14.255  10.048  0.2229  0.1504  0.1767
  464loPI   GL2 7414   8.025  14.258  10.143 -0.3224 -0.0302 -0.0097
  464loPI   C1A 7415   8.287  14.374   9.546  0.2407  0.2623 -0.2207
  464loPI   C2A 7416   8.271  14.321   9.129 -0.3474 -0.1094 -0.1043
  464loPI   C3A 7417   8.167  14.271   8.728 -0.1637  0.3934  0.1992
  464loPI   C4A 7418   8.193  14.272   8.314  0.2195 -0.1594 -0.0656
  464loPI   C5A 7419   7.949  14.501   8.144 -0.1587  0.0637 -0.0342
  464loPI   C6A 7420   7.677  14.859   8.287  0.0469 -0.0162  0.0427
  464loPI   C1B 7421   8.005  13.989   9.879 -0.2054 -0.0328 -0.0929
  464loPI   C2B 7422   7.901  13.885   9.445  0.0738  0.3154  0.0293
  464loPI   C3B 7423   7.969  13.813   8.946  0.0722 -0.4185  0.0391
  464loPI   C4B 7424   7.888  13.900   8.547  0.1599 -0.2268 -0.0035
  465loPI    C1 7425   9.194   6.304  10.762  0.0078 -0.1470 -0.0352
  465loPI    C2 7426   9.291   6.205  11.137 -0.1214  0.1196  0.0707
  465loPI    C3 7427   8.920   6.329  11.052 -0.1604 -0.1649 -0.1906
  465loPI   PO4 7428   9.447   6.242  10.651  0.0483  0.0199  0.1750
  465loPI   GL1 7429   9.502   6.005  10.273  0.1406 -0.0076  0.1344
  465loPI   GL2 7430   9.230   5.893  10.339 -0.1088  0.0622 -0.0055
  465loPI   C1A 7431   9.642   6.023   9.937  0.1929 -0.3570  0.1528
  465loPI   C2A 7432   9.704   6.146   9.526 -0.1135 -0.1679 -0.1540
  465loPI   C3A 7433   9.787   6.393   9.174 -0.1154 -0.0346  0.2061
  465loPI   C4A 7434   9.936   6.633   8.867  0.1800  0.1238 -0.0710
  465loPI   C5A 7435   9.818   6.502   8.386  0.0432 -0.0903  0.1241
  465loPI   C6A 7436   9.972   6.722   8.047  0.2581  0.1322 -0.2467
  465loPI   C1B 7437   9.107   6.155   9.882 -0.0418  0.2804  0.0071
  465loPI   C2B 7438   9.139   6.201   9.516 -0.1654 -0.2668  0.3734
  465loPI   C3B 7439   9.262   6.259   9.070  0.0470  0.3073 -0.1445
  465loPI   C4B 7440   9.623   6.144   8.739 -0.1185  0.0029  0.1344
  466loPI    C1 7441  12.258  10.477  10.633  0.4054  0.1613  0.0210
  466loPI    C2 7442  12.233  10.841  10.469  0.1212  0.1313 -0.0070
  466loPI    C3 7443  12.070  10.772  10.828 -0.1885 -0.0687 -0.1817
  466loPI   PO4 7444  12.291  10.305  10.418  0.0106  0.0446  0.0376
  466loPI   GL1 7445  12.624  10.433  10.160 -0.1525  0.1811 -0.1709
  466loPI   GL2 7446  12.641  10.768  10.217 -0.0573 -0.2217 -0.1325
  466loPI   C1A 7447  12.547  10.372   9.715  0.4045 -0.0307 -0.1415
  466loPI   C2A 7448  12.589  10.419   9.304  0.3072  0.3561  0.0247
  466loPI   C3A 7449  12.560  10.418   8.860  0.0111  0.1264 -0.0021
  466loPI   C4A 7450  12.513  10.289   8.459  0.3600 -0.0109  0.2190
  466loPI   C5A 7451  12.838  10.299   8.082 -0.1739  0.1396 -0.1940
  466loPI   C6A 7452  12.854  10.556   7.763 -0.0184 -0.2332 -0.0518
  466loPI   C1B 7453  12.970  10.893   9.908  0.2934 -0.0501  0.1575
  466loPI   C2B 7454  12.877  10.850   9.442  0.0067 -0.0046  0.3920
  466loPI   C3B 7455  12.952  10.789   9.023 -0.1509  0.3609  0.1156
  466loPI   C4B 7456  12.877  10.699   8.549 -0.0939 -0.3289 -0.0301
  467loPI    C1 7457   1.523  11.868  10.685  0.1067  0.1692 -0.0421
  467loPI    C2 7458   1.426  11.993  11.052  0.0489  0.3255 -0.1095
  467loPI    C3 7459   1.801  12.034  10.919  0.1235  0.0634  0.0134
  467loPI   PO4 7460   1.442  11.645  10.581 -0.0080  0.0281 -0.2466
  467loPI   GL1 7461   1.116  11.693  10.269  0.3299 -0.0411  0.1566
  467loPI   GL2 7462   0.921  11.460  10.128  0.0653 -0.1612  0.1905
  467loPI   C1A 7463   1.212  11.915   9.915 -0.0013 -0.0655  0.2970
  467loPI   C2A 7464   1.293  11.895   9.501  0.1620  0.3032  0.2019
  467loPI   C3A 7465   1.284  11.886   9.099  0.1738 -0.0162  0.0928
  467loPI   C4A 7466   1.212  11.996   8.611  0.0892  0.3008  0.0517
  467loPI   C5A 7467   0.998  11.960   8.207  0.0578  0.1803 -0.1078
  467loPI   C6A 7468   0.646  11.938   7.911  0.1270  0.2657  0.2639
  467loPI   C1B 7469   0.927  11.568   9.675  0.0354 -0.0738 -0.2388
  467loPI   C2B 7470   1.002  11.562   9.299 -0.1416  0.4253  0.1629
  467loPI   C3B 7471   0.958  11.534   8.884  0.1044  0.0253  0.0786
  467loPI   C4B 7472   1.068  11.502   8.412 -0.2508  0.0971 -0.0672
  468loPI    C1 7473   0.226   9.948  10.900  0.0108  0.0729 -0.0358
  468loPI    C2 7474   0.128   9.600  11.071  0.0550 -0.0580 -0.2730
  468loPI    C3 7475   0.449   9.802  11.198 -0.0958  0.0074  0.0125
  468loPI   PO4 7476   0.154   9.899  10.589 -0.0532 -0.0484  0.4281
  468loPI   GL1 7477  -0.088   9.881  10.240 -0.2252  0.1637  0.0470
  468loPI   GL2 7478   0.205  10.086  10.083  0.0691  0.1693  0.1053
  468loPI   C1A 7479  -0.304   9.772   9.808 -0.0118 -0.1965 -0.0817
  468loPI   C2A 7480  -0.365   9.780   9.508  0.1131 -0.0216 -0.0995
  468loPI   C3A 7481  -0.434   9.856   9.054  0.3392  0.0124  0.0459
  468loPI   C4A 7482  -0.287   9.732   8.617 -0.0732  0.2351  0.0423
  468loPI   C5A 7483  -0.064   9.522   8.228 -0.1203  0.3349 -0.0262
  468loPI   C6A 7484   0.025   9.205   7.921 -0.0590  0.2472  0.1491
  468loPI   C1B 7485  -0.027  10.181   9.746  0.0834 -0.1028 -0.4487
  468loPI   C2B 7486  -0.018  10.203   9.262 -0.0622 -0.4016  0.3151
  468loPI   C3B 7487   0.008  10.137   8.785  0.1848  0.1755  0.1728
  468loPI   C4B 7488   0.192  10.214   8.372  0.1482  0.0907  0.0541
  469loPI    C1 7489   7.156   8.743  10.743  0.0013 -0.0229 -0.0753
  469loPI    C2 7490   6.925   8.793  11.066 -0.1666  0.2409 -0.2329
  469loPI    C3 7491   7.287   8.962  11.051 -0.0231 -0.0418 -0.0514
  469loPI   PO4 7492   7.087   8.523  10.648  0.2615 -0.0225  0.1137
  469loPI   GL1 7493   7.159   8.321  10.273  0.2029 -0.2309  0.0329
  469loPI   GL2 7494   6.840   8.294  10.215  0.2230  0.1850  0.1887
  469loPI   C1A 7495   7.210   8.148   9.932 -0.0614  0.0020  0.1930
  469loPI   C2A 7496   7.247   8.130   9.480 -0.2601  0.4176 -0.1947
  469loPI   C3A 7497   7.259   8.032   9.047 -0.3712 -0.0089  0.0281
  469loPI   C4A 7498   7.200   8.096   8.618 -0.1558 -0.0724  0.2587
  469loPI   C5A 7499   7.206   8.057   8.135  0.0484  0.3922  0.3504
  469loPI   C6A 7500   7.643   8.043   7.856 -0.0796 -0.0368 -0.0803
  469loPI   C1B 7501   6.687   8.143   9.834  0.1656  0.0276 -0.0300
  469loPI   C2B 7502   6.659   8.112   9.411  0.0257 -0.1786 -0.0354
  469loPI   C3B 7503   6.677   8.113   9.001  0.0928 -0.1438 -0.0454
  469loPI   C4B 7504   6.733   8.147   8.509 -0.1153 -0.0939 -0.0396
  470loPI    C1 7505  17.032  12.135  10.629 -0.0963 -0.0031  0.0091
  470loPI    C2 7506  17.053  11.961  10.989 -0.1028 -0.0840 -0.0293
  470loPI    C3 7507  17.110  12.355  10.953  0.2232 -0.1239  0.0177
  470loPI   PO4 7508  17.062  11.992  10.483 -0.2257  0.0576  0.3248
  470loPI   GL1 7509  17.224  11.996  10.105  0.1827  0.0973  0.2078
  470loPI   GL2 7510  17.014  12.120   9.971  0.2259 -0.0524  0.1228
  470loPI   C1A 7511  17.295  12.050   9.593 -0.0150  0.0864  0.0414
  470loPI   C2A 7512  17.398  11.735   9.362  0.0105  0.2700  0.1816
  470loPI   C3A 7513  17.503  11.548   9.002  0.1241  0.1473 -0.3236
  470loPI   C4A 7514  17.516  11.626   8.622 -0.0542 -0.0731  0.0039
  470loPI   C5A 7515  17.281  11.708   8.169 -0.0536 -0.1186  0.3482
  470loPI   C6A 7516  17.328  12.078   7.921 -0.1413  0.0820  0.0314
  470loPI   C1B 7517  16.746  12.167   9.666 -0.1349  0.0787 -0.1711
  470loPI   C2B 7518  16.763  12.200   9.175  0.0857  0.0858  0.1600
  470loPI   C3B 7519  16.866  12.141   8.696  0.0322  0.3920  0.0012
  470loPI   C4B 7520  17.022  12.110   8.312  0.5334  0.1514 -0.0364
  471loPI    C1 7521  14.662   4.790  10.718 -0.1208 -0.1920 -0.1584
  471loPI    C2 7522  14.743   4.637  10.358  0.0653 -0.1733 -0.1256
  471loPI    C3 7523  14.976   4.547  10.670 -0.2102 -0.3488  0.0336
  471loPI   PO4 7524  14.350   5.025  10.532 -0.1817  0.0277  0.0042
  471loPI   GL1 7525  14.178   4.930  10.162  0.1846  0.0189 -0.1793
  471loPI   GL2 7526  14.503   5.038  10.060  0.1518  0.0980  0.1829
  471loPI   C1A 7527  14.087   4.948   9.650 -0.0168 -0.0734  0.1100
  471loPI   C2A 7528  13.974   4.980   9.206 -0.0463 -0.1188 -0.0489
  471loPI   C3A 7529  14.085   5.017   8.857 -0.0089 -0.1759 -0.0643
  471loPI   C4A 7530  14.140   5.100   8.435  0.0388 -0.0975  0.0636
  471loPI   C5A 7531  14.058   4.699   8.233 -0.3475  0.1188  0.1300
  471loPI   C6A 7532  13.860   4.364   7.951 -0.1295  0.0960  0.0957
  471loPI   C1B 7533  14.598   5.119   9.634 -0.0214  0.2833  0.1215
  471loPI   C2B 7534  14.589   5.147   9.232  0.0454  0.1085 -0.1603
  471loPI   C3B 7535  14.537   5.240   8.806 -0.0206 -0.0330  0.1110
  471loPI   C4B 7536  14.535   5.435   8.408  0.1241 -0.0956 -0.0265
  472loPI    C1 7537  15.543   3.000  10.582 -0.2097  0.1990  0.0203
  472loPI    C2 7538  15.277   2.951  10.877 -0.1132  0.4420  0.1502
  472loPI    C3 7539  15.520   3.270  10.877  0.0991  0.2834 -0.0291
  472loPI   PO4 7540  15.317   2.958  10.354 -0.1103  0.2830 -0.3722
  472loPI   GL1 7541  15.375   3.177   9.970  0.1811 -0.0007 -0.2168
  472loPI   GL2 7542  15.139   2.935   9.906  0.2989 -0.0539 -0.3565
  472loPI   C1A 7543  15.062   3.389   9.658  0.2101  0.1324  0.1897
  472loPI   C2A 7544  14.986   3.507   9.236 -0.0980  0.0201 -0.1535
  472loPI   C3A 7545  14.998   3.620   8.799 -0.3832  0.0517  0.0773
  472loPI   C4A 7546  15.005   3.569   8.430  0.1058 -0.1645  0.0228
  472loPI   C5A 7547  15.002   3.502   8.021 -0.0059 -0.0215 -0.0824
  472loPI   C6A 7548  15.305   3.364   7.725  0.3092 -0.0243  0.0367
  472loPI   C1B 7549  14.975   2.913   9.536 -0.0263 -0.0191  0.1777
  472loPI   C2B 7550  14.879   3.065   9.106 -0.0116  0.0709 -0.3991
  472loPI   C3B 7551  14.881   3.033   8.600 -0.1206  0.0904  0.0554
  472loPI   C4B 7552  14.957   2.852   8.184 -0.0498  0.2667  0.2200
  473loPI    C1 7553  12.916   8.374  10.596  0.0082 -0.3026  0.3497
  473loPI    C2 7554  12.576   8.465  10.785 -0.1950 -0.1658 -0.0699
  473loPI    C3 7555  12.591   8.147  10.543 -0.1853  0.1255 -0.4621
  473loPI   PO4 7556  12.971   8.517  10.492 -0.0108 -0.0196 -0.2978
  473loPI   GL1 7557  12.939   8.539  10.069  0.0606  0.0687  0.3597
  473loPI   GL2 7558  12.751   8.279  10.071 -0.2393  0.0636 -0.4402
  473loPI   C1A 7559  13.074   8.569   9.603  0.2162 -0.1752  0.0127
  473loPI   C2A 7560  12.866   8.530   9.193 -0.2380  0.0487 -0.1796
  473loPI   C3A 7561  12.907   8.630   8.719  0.2217  0.0296 -0.3528
  473loPI   C4A 7562  13.000   8.705   8.319  0.4153  0.0130 -0.1281
  473loPI   C5A 7563  13.038   9.011   8.082  0.0802  0.2392 -0.0620
  473loPI   C6A 7564  13.371   9.119   7.838 -0.0877 -0.1477  0.1674
  473loPI   C1B 7565  12.645   8.163   9.651  0.0782  0.0146 -0.1076
  473loPI   C2B 7566  12.705   8.040   9.258 -0.0506  0.0329  0.1376
  473loPI   C3B 7567  12.656   8.240   8.849 -0.1222  0.2537 -0.1090
  473loPI   C4B 7568  12.534   8.324   8.430 -0.1320  0.1850 -0.2002
  474loPI    C1 7569  12.881  14.443  10.631  0.2074 -0.2402 -0.1537
  474loPI    C2 7570  13.183  14.308  10.856  0.1010 -0.3602 -0.0815
  474loPI    C3 7571  13.157  14.698  10.769  0.2998 -0.3555 -0.1243
  474loPI   PO4 7572  12.873  14.219  10.494 -0.1529  0.1414 -0.2606
  474loPI   GL1 7573  12.969  13.912  10.091  0.3089  0.4066 -0.2601
  474loPI   GL2 7574  12.717  13.914  10.133  0.0689 -0.1116  0.0331
  474loPI   C1A 7575  13.115  13.916   9.593  0.1198  0.1344  0.0075
  474loPI   C2A 7576  13.148  13.887   9.180 -0.1072 -0.0769  0.0799
  474loPI   C3A 7577  13.072  13.910   8.770 -0.3257 -0.1195 -0.3303
  474loPI   C4A 7578  13.078  13.950   8.378 -0.1228 -0.2028 -0.2505
  474loPI   C5A 7579  12.993  13.882   7.911  0.1110 -0.1923 -0.1571
  474loPI   C6A 7580  12.903  13.499   7.683  0.1962  0.3569 -0.0049
  474loPI   C1B 7581  12.746  14.313   9.824  0.2005  0.1511  0.0979
  474loPI   C2B 7582  12.835  14.372   9.425 -0.3186  0.1158 -0.2441
  474loPI   C3B 7583  12.983  14.392   9.020 -0.2415  0.0852 -0.0034
  474loPI   C4B 7584  12.978  14.426   8.543 -0.2256 -0.1797 -0.0820
  475loPI    C1 7585   5.233   7.331  10.588  0.2439 -0.2730  0.0724
  475loPI    C2 7586   4.834   7.358  10.591  0.2617  0.0978 -0.1903
  475loPI    C3 7587   5.038   7.380  10.934  0.0672  0.0846 -0.0720
  475loPI   PO4 7588   5.357   7.076  10.420 -0.1620 -0.1605 -0.1468
  475loPI   GL1 7589   5.623   7.016  10.058  0.0043 -0.1981 -0.1536
  475loPI   GL2 7590   5.764   6.748   9.852 -0.1216 -0.3281 -0.2714
  475loPI   C1A 7591   5.666   7.232   9.722 -0.0022 -0.0727  0.0841
  475loPI   C2A 7592   5.719   7.179   9.335 -0.1776 -0.4546 -0.2570
  475loPI   C3A 7593   5.615   7.283   8.905 -0.0030 -0.2453 -0.2981
  475loPI   C4A 7594   5.673   7.301   8.494  0.0868  0.0942 -0.4294
  475loPI   C5A 7595   5.521   7.593   8.191 -0.1448 -0.0525 -0.4023
  475loPI   C6A 7596   5.575   8.130   8.225 -0.0632  0.0442  0.1118
  475loPI   C1B 7597   5.945   6.651   9.461 -0.1299 -0.1461  0.1828
  475loPI   C2B 7598   5.927   6.807   9.114  0.0347  0.1411 -0.0012
  475loPI   C3B 7599   5.835   6.756   8.684 -0.0856  0.0771 -0.0773
  475loPI   C4B 7600   5.909   6.637   8.298 -0.2663 -0.1510 -0.0523
  476loPI    C1 7601   3.410  14.569  10.540  0.0627  0.1490  0.0307
  476loPI    C2 7602   3.540  14.376  10.865  0.0022  0.0579  0.0013
  476loPI    C3 7603   3.200  14.586  10.880 -0.0575 -0.0361 -0.0331
  476loPI   PO4 7604   3.564  14.330  10.360  0.5016  0.1266 -0.3224
  476loPI   GL1 7605   3.897  14.338  10.086 -0.1533 -0.2432 -0.0349
  476loPI   GL2 7606   3.837  14.078   9.989 -0.1729  0.0870 -0.2826
  476loPI   C1A 7607   3.734  14.541   9.726  0.0039  0.1372  0.0756
  476loPI   C2A 7608   3.662  14.575   9.287 -0.0329 -0.1435  0.1023
  476loPI   C3A 7609   3.562  14.530   8.813  0.2494 -0.0871 -0.2509
  476loPI   C4A 7610   3.769  14.738   8.492 -0.5406  0.2228 -0.1337
  476loPI   C5A 7611   3.778  14.840   8.109  0.0054  0.2142 -0.1222
  476loPI   C6A 7612   3.960  14.727   7.733  0.1034 -0.0964 -0.0073
  476loPI   C1B 7613   3.897  13.741   9.691 -0.1087  0.0440  0.2875
  476loPI   C2B 7614   3.724  13.653   9.286 -0.0268  0.0335  0.2424
  476loPI   C3B 7615   3.508  13.594   8.875 -0.4556 -0.0087 -0.0747
  476loPI   C4B 7616   3.593  13.617   8.536  0.0985  0.1408 -0.0018
  477loPI    C1 7617   0.227   2.782  10.750 -0.1913 -0.1896  0.1303
  477loPI    C2 7618   0.488   2.513  10.890 -0.0483 -0.0810  0.0750
  477loPI    C3 7619   0.395   2.834  11.109  0.0291 -0.0096  0.0040
  477loPI   PO4 7620   0.374   2.824  10.523 -0.1203  0.0817 -0.1830
  477loPI   GL1 7621   0.501   2.647  10.068 -0.0719 -0.0233 -0.0673
  477loPI   GL2 7622   0.773   2.739   9.929  0.1663 -0.1595  0.3667
  477loPI   C1A 7623   0.314   2.842   9.670  0.2188 -0.0168  0.1275
  477loPI   C2A 7624   0.331   2.885   9.253 -0.3796 -0.1938  0.0781
  477loPI   C3A 7625   0.216   3.182   8.839  0.1079 -0.1567  0.0007
  477loPI   C4A 7626  -0.083   3.314   8.660  0.2736 -0.1409 -0.2667
  477loPI   C5A 7627  -0.174   3.692   8.564 -0.1233 -0.1468  0.2093
  477loPI   C6A 7628  -0.100   3.599   8.090 -0.1745 -0.2155  0.1753
  477loPI   C1B 7629   0.815   2.787   9.514  0.0330  0.3119 -0.0525
  477loPI   C2B 7630   0.883   2.794   8.998  0.2849 -0.0568 -0.2563
  477loPI   C3B 7631   1.001   2.904   8.630  0.3000  0.0794 -0.1443
  477loPI   C4B 7632   1.183   2.905   8.310 -0.1700  0.0695 -0.2156
  478loPI    C1 7633  12.117   1.019  10.578 -0.0221  0.0437 -0.0851
  478loPI    C2 7634  11.744   0.875  10.586 -0.1818  0.4526  0.2903
  478loPI    C3 7635  12.040   0.672  10.760 -0.1883  0.0432 -0.1537
  478loPI   PO4 7636  12.133   1.092  10.335  0.1273  0.2351  0.0240
  478loPI   GL1 7637  12.064   0.922  10.018  0.1884 -0.3227 -0.3422
  478loPI   GL2 7638  11.742   1.142  10.089  0.0095 -0.1367  0.4028
  478loPI   C1A 7639  12.154   1.059   9.680  0.1361  0.0100  0.1252
  478loPI   C2A 7640  12.264   1.111   9.253 -0.0772  0.0998  0.0047
  478loPI   C3A 7641  12.199   1.183   8.862 -0.3890 -0.2133 -0.2595
  478loPI   C4A 7642  12.049   1.214   8.404 -0.0884  0.0246 -0.1325
  478loPI   C5A 7643  11.993   1.194   7.922  0.1412  0.3638  0.3715
  478loPI   C6A 7644  12.084   1.186   7.539  0.2468 -0.0140  0.3020
  478loPI   C1B 7645  11.671   0.934   9.715  0.2313  0.1245  0.1937
  478loPI   C2B 7646  11.706   1.022   9.349  0.2023  0.0329 -0.1881
  478loPI   C3B 7647  11.658   1.036   8.862  0.0884  0.0487 -0.0042
  478loPI   C4B 7648  11.585   1.017   8.412  0.0558 -0.1197  0.0001
  479loPI    C1 7649   6.877   7.575  11.040 -0.0427  0.0842  0.1566
  479loPI    C2 7650   6.638   7.670  10.733 -0.1352 -0.1202  0.1644
  479loPI    C3 7651   6.656   7.908  11.054  0.0408  0.1498 -0.0418
  479loPI   PO4 7652   7.161   7.516  10.875  0.1227 -0.0937  0.1061
  479loPI   GL1 7653   7.466   7.491  10.599 -0.0555 -0.0127 -0.1225
  479loPI   GL2 7654   7.373   7.615  10.326  0.3087 -0.1387  0.3455
  479loPI   C1A 7655   7.776   7.313  10.157  0.1280 -0.1676  0.0916
  479loPI   C2A 7656   7.658   7.209   9.787 -0.2682  0.0723  0.2182
  479loPI   C3A 7657   7.663   7.196   9.309  0.4121 -0.0727  0.1124
  479loPI   C4A 7658   7.714   7.165   8.859 -0.0671  0.0043  0.1259
  479loPI   C5A 7659   7.676   7.104   8.429  0.4844  0.2383 -0.2531
  479loPI   C6A 7660   7.670   6.907   8.034 -0.2459 -0.1119 -0.0213
  479loPI   C1B 7661   7.435   7.670   9.897 -0.2257 -0.0973 -0.0278
  479loPI   C2B 7662   7.416   7.654   9.491 -0.0084  0.1367  0.2157
  479loPI   C3B 7663   7.395   7.539   9.055  0.0222  0.0193  0.1984
  479loPI   C4B 7664   7.471   7.609   8.674 -0.2015 -0.1851 -0.0514
  480loPI    C1 7665  16.118   7.602  10.643  0.0117 -0.0751  0.0624
  480loPI    C2 7666  15.891   7.923  10.568  0.0876 -0.0287  0.0290
  480loPI    C3 7667  16.153   7.930  10.870  0.0188 -0.0955  0.0907
  480loPI   PO4 7668  16.288   7.583  10.417  0.0615  0.0456  0.2681
  480loPI   GL1 7669  16.732   7.444  10.199 -0.0184 -0.3411  0.2968
  480loPI   GL2 7670  16.653   7.842  10.142  0.0478 -0.1271  0.0042
  480loPI   C1A 7671  16.373   7.478   9.850  0.1586  0.2226  0.3542
  480loPI   C2A 7672  16.018   7.371   9.636 -0.3257  0.3339  0.0886
  480loPI   C3A 7673  15.800   7.462   9.333  0.0202  0.0183 -0.2678
  480loPI   C4A 7674  15.624   7.464   8.955  0.0959  0.0327 -0.0829
  480loPI   C5A 7675  15.478   7.417   8.437 -0.2088 -0.0801  0.2473
  480loPI   C6A 7676  15.478   7.119   8.125 -0.0919 -0.0662 -0.1661
  480loPI   C1B 7677  16.735   7.817   9.721 -0.0161  0.1765 -0.1178
  480loPI   C2B 7678  16.615   7.749   9.271 -0.1049 -0.0715  0.0368
  480loPI   C3B 7679  16.488   7.682   8.870 -0.1103  0.1742  0.3080
  480loPI   C4B 7680  16.342   7.833   8.482 -0.0400 -0.0985  0.0329
  481loPI    C1 7681   6.882  10.488  10.351 -0.1126 -0.2805 -0.1732
  481loPI    C2 7682   6.627  10.649  10.614 -0.0049 -0.2103 -0.1112
  481loPI    C3 7683   6.713  10.259  10.631  0.0546 -0.1927  0.0021
  481loPI   PO4 7684   7.029  10.772  10.306 -0.2286 -0.0605 -0.0392
  481loPI   GL1 7685   7.215  10.887  10.045  0.3990 -0.1581 -0.2459
  481loPI   GL2 7686   7.422  10.736   9.836 -0.1463 -0.0858  0.0436
  481loPI   C1A 7687   7.285  11.155   9.692  0.0147 -0.2739  0.0977
  481loPI   C2A 7688   7.240  11.244   9.287 -0.2448 -0.1740 -0.2257
  481loPI   C3A 7689   7.180  11.189   8.923  0.0641  0.1641  0.0858
  481loPI   C4A 7690   7.149  11.233   8.515 -0.3110 -0.0166 -0.2083
  481loPI   C5A 7691   6.995  11.349   8.153  0.0323 -0.4825 -0.1617
  481loPI   C6A 7692   6.696  11.472   7.850  0.0710 -0.0063 -0.0539
  481loPI   C1B 7693   7.498  10.779   9.441  0.1990  0.2136  0.1507
  481loPI   C2B 7694   7.380  10.748   9.049 -0.0986 -0.3735  0.1476
  481loPI   C3B 7695   7.367  10.733   8.655 -0.1264  0.0457  0.2322
  481loPI   C4B 7696   7.213  10.796   8.204  0.1296 -0.1670 -0.3011
  482loPI    C1 7697   7.863   5.804  10.591 -0.0362 -0.2739  0.1788
  482loPI    C2 7698   7.910   6.167  10.755 -0.0003 -0.0889 -0.2286
  482loPI    C3 7699   8.174   5.877  10.832  0.0331  0.0031  0.0109
  482loPI   PO4 7700   7.811   5.865  10.416 -0.0431 -0.2229 -0.0281
  482loPI   GL1 7701   7.878   5.953   9.924 -0.0203 -0.1214 -0.1858
  482loPI   GL2 7702   7.515   5.874   9.978  0.1252  0.0307 -0.1278
  482loPI   C1A 7703   7.805   5.866   9.523  0.1641  0.0027 -0.0839
  482loPI   C2A 7704   7.857   5.747   9.084 -0.2879  0.2095 -0.2257
  482loPI   C3A 7705   7.894   5.728   8.661 -0.0947  0.0080 -0.1717
  482loPI   C4A 7706   7.876   5.700   8.245  0.1337  0.2189 -0.4314
  482loPI   C5A 7707   7.579   5.903   8.017 -0.1113 -0.2392  0.2669
  482loPI   C6A 7708   7.247   6.179   7.783 -0.0267  0.0211 -0.1284
  482loPI   C1B 7709   7.281   5.907   9.600  0.0300 -0.1860 -0.1966
  482loPI   C2B 7710   7.366   5.812   9.197 -0.3321 -0.0209  0.1342
  482loPI   C3B 7711   7.426   5.793   8.818  0.2347  0.0990 -0.0441
  482loPI   C4B 7712   7.383   5.664   8.450 -0.0255  0.1654  0.0808
  483loPI    C1 7713  16.735   3.776  10.736  0.1729  0.1066 -0.1258
  483loPI    C2 7714  16.845   4.145  10.846  0.3441 -0.0441  0.2265
  483loPI    C3 7715  16.617   3.923  11.089  0.1043 -0.1139 -0.0550
  483loPI   PO4 7716  16.680   3.793  10.538  0.1591  0.1161 -0.2249
  483loPI   GL1 7717  16.602   3.489  10.184  0.1237  0.1571  0.0966
  483loPI   GL2 7718  16.540   3.676   9.956  0.2783 -0.0735  0.0358
  483loPI   C1A 7719  16.535   3.217   9.843 -0.0193  0.1267  0.0471
  483loPI   C2A 7720  16.324   3.051   9.501  0.0645  0.0555  0.3723
  483loPI   C3A 7721  15.954   3.059   9.240 -0.3150  0.0913 -0.3746
  483loPI   C4A 7722  15.781   2.901   8.864  0.0658 -0.0303 -0.0087
  483loPI   C5A 7723  15.801   2.718   8.433 -0.0068  0.0482 -0.1631
  483loPI   C6A 7724  15.695   2.563   8.075 -0.0270  0.2172  0.0865
  483loPI   C1B 7725  16.650   3.872   9.570  0.4523  0.0610 -0.1463
  483loPI   C2B 7726  16.751   3.899   9.170 -0.3341 -0.0891  0.0878
  483loPI   C3B 7727  16.585   4.117   8.807  0.1035  0.1011  0.1476
  483loPI   C4B 7728  16.213   4.380   8.559 -0.3399  0.1761  0.0291
  484loPI    C1 7729   3.502   6.669  10.841  0.1659 -0.0543  0.0177
  484loPI    C2 7730   3.604   6.335  11.037  0.4070  0.0728  0.1135
  484loPI    C3 7731   3.226   6.467  11.049  0.2547 -0.3230 -0.1198
  484loPI   PO4 7732   3.740   6.642  10.670  0.1915  0.4949  0.0259
  484loPI   GL1 7733   3.718   6.728  10.258  0.0203  0.0965  0.1371
  484loPI   GL2 7734   3.414   6.570  10.276 -0.0321  0.1241 -0.2992
  484loPI   C1A 7735   3.698   6.923   9.745  0.0742  0.1001  0.1079
  484loPI   C2A 7736   3.774   6.856   9.396 -0.0439 -0.2096 -0.0545
  484loPI   C3A 7737   3.784   6.782   8.946 -0.3214  0.0964 -0.1854
  484loPI   C4A 7738   3.791   6.865   8.613 -0.3034  0.0290  0.2690
  484loPI   C5A 7739   3.948   6.847   8.193  0.1550 -0.2439 -0.2678
  484loPI   C6A 7740   4.231   6.478   8.018  0.0228 -0.1582  0.0184
  484loPI   C1B 7741   3.547   6.448   9.822 -0.0062  0.2185 -0.1792
  484loPI   C2B 7742   3.483   6.423   9.371 -0.2566  0.1412  0.1513
  484loPI   C3B 7743   3.469   6.423   8.861  0.1059 -0.0118 -0.0427
  484loPI   C4B 7744   3.585   6.361   8.547  0.2818  0.1235  0.2607
  485loPI    C1 7745  12.584   9.110  10.810  0.1748 -0.2658  0.1543
  485loPI    C2 7746  12.283   8.849  10.770  0.0258 -0.1107  0.2497
  485loPI    C3 7747  12.445   8.914  11.130  0.1374 -0.1532  0.2075
  485loPI   PO4 7748  12.732   9.018  10.629 -0.1177 -0.0749  0.3533
  485loPI   GL1 7749  12.977   8.974  10.310 -0.0284  0.1471  0.2369
  485loPI   GL2 7750  13.215   9.045  10.103 -0.2627  0.2192 -0.3190
  485loPI   C1A 7751  12.765   9.102   9.902  0.1042  0.3897  0.2707
  485loPI   C2A 7752  12.760   9.012   9.465  0.1029 -0.0548 -0.2512
  485loPI   C3A 7753  12.656   9.024   9.055  0.0013  0.2952  0.3557
  485loPI   C4A 7754  12.759   9.105   8.584 -0.1457 -0.0046  0.1163
  485loPI   C5A 7755  12.693   9.380   8.255 -0.1291  0.0113 -0.0983
  485loPI   C6A 7756  12.495   9.767   8.214 -0.2311  0.1025 -0.0024
  485loPI   C1B 7757  13.239   9.015   9.677 -0.0876 -0.2469  0.3810
  485loPI   C2B 7758  13.217   8.935   9.238  0.0145 -0.2679 -0.1403
  485loPI   C3B 7759  13.202   9.075   8.842  0.0328 -0.0297  0.1999
  485loPI   C4B 7760  13.336   9.221   8.477 -0.2459 -0.1798 -0.1486
  486loPI    C1 7761  13.173  13.604  11.051  0.1102 -0.0614  0.1066
  486loPI    C2 7762  13.172  13.780  11.410  0.0682 -0.1291  0.1398
  486loPI    C3 7763  13.303  13.404  11.371  0.1865 -0.0806  0.0637
  486loPI   PO4 7764  13.290  13.848  10.934 -0.3208  0.2182  0.2237
  486loPI   GL1 7765  13.336  14.056  10.493  0.0161  0.1862  0.1013
  486loPI   GL2 7766  13.347  14.365  10.258  0.1701 -0.1048 -0.0067
  486loPI   C1A 7767  13.499  13.891  10.053 -0.1550 -0.1967 -0.2829
  486loPI   C2A 7768  13.625  13.821   9.624 -0.1790 -0.2151 -0.0493
  486loPI   C3A 7769  13.664  13.917   9.177 -0.4128 -0.0161  0.1101
  486loPI   C4A 7770  13.639  13.847   8.706  0.1312 -0.3874 -0.0585
  486loPI   C5A 7771  13.748  13.581   8.264 -0.0510  0.1825  0.0839
  486loPI   C6A 7772  14.140  13.732   7.983  0.0436  0.2622  0.1480
  486loPI   C1B 7773  13.418  14.323   9.853 -0.0250 -0.0808 -0.1720
  486loPI   C2B 7774  13.479  14.298   9.351  0.2292  0.1001 -0.1629
  486loPI   C3B 7775  13.457  14.304   8.917 -0.0113 -0.0329 -0.0479
  486loPI   C4B 7776  13.501  14.346   8.510  0.1277 -0.1947  0.0197
  487loPI    C1 7777   4.065  14.797  10.734 -0.1278 -0.0611 -0.0171
  487loPI    C2 7778   3.938  14.646  11.082 -0.3976 -0.0305 -0.0999
  487loPI    C3 7779   4.290  14.531  10.930 -0.2496  0.0013  0.2109
  487loPI   PO4 7780   3.881  14.772  10.600 -0.5186 -0.2916 -0.0616
  487loPI   GL1 7781   3.862  14.829  10.079 -0.1379  0.0323  0.4419
  487loPI   GL2 7782   3.590  14.917  10.142 -0.1550  0.1473 -0.2008
  487loPI   C1A 7783   3.939  14.963   9.612  0.1094 -0.0093 -0.0281
  487loPI   C2A 7784   3.857  15.045   9.313 -0.2124 -0.2242  0.3009
  487loPI   C3A 7785   3.945  15.037   8.924 -0.1078 -0.0530  0.2287
  487loPI   C4A 7786   4.313  14.778   8.504  0.1579 -0.0846 -0.0305
  487loPI   C5A 7787   4.667  14.856   8.327 -0.2860 -0.0465  0.2742
  487loPI   C6A 7788   4.863  14.554   8.144  0.0795 -0.0407 -0.6141
  487loPI   C1B 7789   3.408  15.038   9.747  0.1830  0.0369 -0.5783
  487loPI   C2B 7790   3.379  15.101   9.293  0.0932  0.2430 -0.2181
  487loPI   C3B 7791   3.360  14.984   8.842  0.1381 -0.2007 -0.0687
  487loPI   C4B 7792   3.297  14.929   8.411 -0.3236 -0.1864  0.2664
  488loPI    C1 7793   9.741  12.217  10.283 -0.1963  0.0436  0.1553
  488loPI    C2 7794   9.895  12.472  10.551 -0.1819  0.0293  0.1608
  488loPI    C3 7795   9.854  12.085  10.644  0.1619 -0.0460  0.0148
  488loPI   PO4 7796   9.685  12.331  10.063 -0.0307  0.0187  0.0857
  488loPI   GL1 7797   9.496  12.190   9.628  0.2795 -0.0364 -0.3003
  488loPI   GL2 7798   9.253  12.211   9.654  0.1912 -0.2538  0.0230
  488loPI   C1A 7799   9.722  11.922   9.393  0.2530 -0.0030  0.3820
  488loPI   C2A 7800  10.108  11.785   9.410  0.0201  0.1240  0.3566
  488loPI   C3A 7801  10.390  11.841   9.037 -0.1828  0.0175  0.1044
  488loPI   C4A 7802  10.774  12.018   8.739 -0.1887  0.1101  0.0239
  488loPI   C5A 7803  10.911  11.770   8.295 -0.1643 -0.2333 -0.1877
  488loPI   C6A 7804  10.809  11.899   7.874  0.1429  0.2563 -0.2295
  488loPI   C1B 7805   9.394  12.184   9.143 -0.1650  0.1348  0.1085
  488loPI   C2B 7806   9.402  11.901   8.773  0.0481  0.0378 -0.0732
  488loPI   C3B 7807   9.459  11.739   8.405 -0.1496  0.0497 -0.0061
  488loPI   C4B 7808   9.910  11.653   8.280 -0.0973 -0.0411 -0.0178
  489loPI    C1 7809   2.785   9.411  10.840 -0.0303 -0.1217 -0.1237
  489loPI    C2 7810   2.597   9.072  10.942  0.0236 -0.0150  0.3522
  489loPI    C3 7811   2.618   9.375  11.202 -0.0347  0.3634 -0.0722
  489loPI   PO4 7812   2.674   9.499  10.680 -0.0333 -0.1268  0.1086
  489loPI   GL1 7813   2.778   9.496  10.260  0.0899  0.1391 -0.1197
  489loPI   GL2 7814   3.037   9.309   9.961  0.3110  0.1543 -0.3057
  489loPI   C1A 7815   2.553   9.192   9.982 -0.1820 -0.1511  0.0167
  489loPI   C2A 7816   2.493   9.039   9.556 -0.1841  0.1203  0.2046
  489loPI   C3A 7817   2.490   9.048   9.094  0.0801  0.0618 -0.1285
  489loPI   C4A 7818   2.673   8.945   8.664 -0.1355 -0.1550  0.1534
  489loPI   C5A 7819   2.878   9.082   8.303 -0.3112  0.3305 -0.3709
  489loPI   C6A 7820   3.068   9.511   8.176 -0.2118  0.0115  0.3603
  489loPI   C1B 7821   2.794   9.468   9.644 -0.1998  0.0367  0.0546
  489loPI   C2B 7822   2.792   9.450   9.239 -0.0267 -0.1130  0.0350
  489loPI   C3B 7823   2.975   9.280   8.884  0.0199  0.0629 -0.0404
  489loPI   C4B 7824   3.342   9.003   8.771 -0.0387  0.0439 -0.0696
  490loPI    C1 7825  10.867   3.932  10.946  0.3639  0.1048 -0.2981
  490loPI    C2 7826  11.151   3.655  10.994 -0.0667 -0.2900  0.0661
  490loPI    C3 7827  11.026   3.870  11.307  0.0134  0.0734 -0.1455
  490loPI   PO4 7828  10.833   3.921  10.686  0.1982 -0.0319 -0.0079
  490loPI   GL1 7829  10.775   4.082  10.275 -0.2090  0.0072  0.0796
  490loPI   GL2 7830  10.995   3.832  10.174 -0.0367 -0.2350  0.0519
  490loPI   C1A 7831  10.682   4.117   9.778  0.2925  0.0862 -0.0947
  490loPI   C2A 7832  10.627   4.099   9.354 -0.0355  0.0268 -0.0085
  490loPI   C3A 7833  10.556   4.104   8.921 -0.0192  0.1902 -0.2439
  490loPI   C4A 7834  10.555   3.993   8.494 -0.0559 -0.0166  0.0353
  490loPI   C5A 7835  10.713   3.638   8.228 -0.1142 -0.3702 -0.0839
  490loPI   C6A 7836  10.980   3.459   7.998  0.0585  0.0405  0.0346
  490loPI   C1B 7837  11.060   3.689   9.769  0.1089 -0.0400  0.0129
  490loPI   C2B 7838  11.093   3.646   9.416 -0.0347  0.0701  0.2039
  490loPI   C3B 7839  11.014   3.717   9.025  0.2877 -0.1187 -0.3929
  490loPI   C4B 7840  10.978   3.714   8.617 -0.0986  0.2636  0.1439
  491loPI    C1 7841  11.610   5.379  10.980  0.0779  0.0282 -0.0797
  491loPI    C2 7842  11.852   5.680  11.086  0.0920  0.0276 -0.1098
  491loPI    C3 7843  11.455   5.729  11.098  0.0921  0.0014  0.0191
  491loPI   PO4 7844  11.633   5.323  10.695 -0.2653  0.0320 -0.0267
  491loPI   GL1 7845  11.849   5.121  10.435  0.3004 -0.0699 -0.0830
  491loPI   GL2 7846  11.602   4.869  10.463  0.2890 -0.0701  0.1201
  491loPI   C1A 7847  11.826   4.877  10.058  0.0549 -0.4109 -0.0515
  491loPI   C2A 7848  11.781   4.823   9.631 -0.3923 -0.1050 -0.2760
  491loPI   C3A 7849  11.755   4.804   9.216 -0.1058 -0.1343 -0.0431
  491loPI   C4A 7850  11.739   4.826   8.753 -0.1666 -0.0269  0.0839
  491loPI   C5A 7851  11.697   4.849   8.404 -0.2342  0.2228  0.2486
  491loPI   C6A 7852  11.502   4.771   7.988 -0.2667 -0.1889  0.1484
  491loPI   C1B 7853  11.322   4.793  10.123 -0.0824  0.0320 -0.2051
  491loPI   C2B 7854  11.255   4.715   9.660 -0.1228  0.1848 -0.1475
  491loPI   C3B 7855  11.240   4.701   9.222 -0.0055 -0.0884 -0.0469
  491loPI   C4B 7856  11.230   4.701   8.705  0.1445 -0.3097  0.0277
  492loPI    C1 7857  11.526  15.698  10.512 -0.2276  0.3535  0.0013
  492loPI    C2 7858  11.289  15.818  10.811  0.0001  0.2690  0.2194
  492loPI    C3 7859  11.602  15.582  10.887 -0.0279  0.1205 -0.1087
  492loPI   PO4 7860  11.586  15.825  10.361 -0.0332  0.4191  0.2383
  492loPI   GL1 7861  11.935  15.713  10.120 -0.1716 -0.2377 -0.1924
  492loPI   GL2 7862  12.249  15.657  10.008 -0.3197  0.1393 -0.2160
  492loPI   C1A 7863  11.831  15.908   9.703  0.0811  0.3717  0.0406
  492loPI   C2A 7864  11.735  15.910   9.314  0.0062 -0.1776  0.1391
  492loPI   C3A 7865  11.597  15.924   8.923 -0.0876  0.3026 -0.1809
  492loPI   C4A 7866  11.187  15.942   8.729 -0.2005 -0.0339 -0.3602
  492loPI   C5A 7867  11.092  15.598   8.595  0.5402  0.2408  0.0061
  492loPI   C6A 7868  10.926  15.237   8.592 -0.2438 -0.0725  0.1542
  492loPI   C1B 7869  12.433  15.737   9.676 -0.4597 -0.0996 -0.1762
  492loPI   C2B 7870  12.692  15.671   9.358 -0.1133 -0.0597  0.1371
  492loPI   C3B 7871  12.757  15.886   8.923  0.2000  0.0082  0.0372
  492loPI   C4B 7872  12.455  16.133   8.824 -0.1047 -0.1374 -0.0781
  493loPI    C1 7873   9.541   1.821  10.786  0.0480  0.2751  0.1190
  493loPI    C2 7874   9.843   1.583  10.673 -0.2126  0.1199 -0.2734
  493loPI    C3 7875   9.684   1.546  11.039  0.2013  0.1654 -0.0840
  493loPI   PO4 7876   9.483   1.928  10.523 -0.2747  0.0740  0.0910
  493loPI   GL1 7877   9.490   1.837  10.084 -0.2413  0.3195 -0.2371
  493loPI   GL2 7878   9.689   1.960   9.982 -0.0733  0.1023  0.1431
  493loPI   C1A 7879   9.149   1.635   9.812  0.0486  0.2013 -0.0475
  493loPI   C2A 7880   9.109   1.700   9.429 -0.1938  0.1703  0.0246
  493loPI   C3A 7881   9.121   1.671   9.055  0.2527  0.0752 -0.0684
  493loPI   C4A 7882   9.202   1.402   8.667  0.0269 -0.1018  0.2657
  493loPI   C5A 7883   8.951   1.409   8.261 -0.0028 -0.2453 -0.1145
  493loPI   C6A 7884   8.473   1.347   8.127  0.1047  0.0184  0.1481
  493loPI   C1B 7885   9.524   1.918   9.653 -0.0909 -0.2178 -0.0582
  493loPI   C2B 7886   9.433   2.083   9.296  0.2122  0.0375  0.1765
  493loPI   C3B 7887   9.252   2.188   8.950 -0.1886  0.1392 -0.1596
  493loPI   C4B 7888   9.144   2.400   8.543 -0.2701  0.0064  0.1339
  494loPI    C1 7889  16.894  11.137  10.785 -0.0050 -0.0395  0.0635
  494loPI    C2 7890  16.889  11.515  10.654  0.1177 -0.0721 -0.0389
  494loPI    C3 7891  17.029  11.432  11.019 -0.1143  0.0058  0.0701
  494loPI   PO4 7892  16.778  11.005  10.680 -0.1131  0.2114  0.0967
  494loPI   GL1 7893  16.580  10.774  10.349  0.2280 -0.2361 -0.0427
  494loPI   GL2 7894  16.853  10.613  10.309  0.4607  0.0890  0.0489
  494loPI   C1A 7895  16.435  10.890   9.943  0.0909 -0.0882  0.0921
  494loPI   C2A 7896  16.303  10.851   9.594  0.2154 -0.0269  0.0253
  494loPI   C3A 7897  16.345  10.950   9.200  0.0134 -0.0886  0.0055
  494loPI   C4A 7898  16.342  10.947   8.799 -0.1488 -0.0465  0.2313
  494loPI   C5A 7899  16.295  10.912   8.321 -0.1253 -0.0868  0.1114
  494loPI   C6A 7900  16.102  11.139   8.008  0.2416 -0.3704 -0.1447
  494loPI   C1B 7901  16.635  10.395  10.032 -0.0786 -0.0609 -0.0587
  494loPI   C2B 7902  16.589  10.389   9.588 -0.0865  0.3344  0.1256
  494loPI   C3B 7903  16.560  10.395   9.118 -0.2346  0.2930  0.0439
  494loPI   C4B 7904  16.486  10.468   8.697  0.2777 -0.2103 -0.1357
  495loPI    C1 7905  17.465   5.138  10.062 -0.3011 -0.1643 -0.0499
  495loPI    C2 7906  17.350   5.226  10.435 -0.2905  0.0503 -0.0960
  495loPI    C3 7907  17.428   5.520  10.175  0.1934 -0.0897 -0.1188
  495loPI   PO4 7908  17.640   4.978   9.982 -0.0351 -0.3291  0.0641
  495loPI   GL1 7909  17.679   4.836   9.633  0.0683 -0.0492 -0.0391
  495loPI   GL2 7910  17.992   4.735   9.687  0.1206 -0.2720  0.3955
  495loPI   C1A 7911  17.333   4.701   9.302  0.2294 -0.0909 -0.3322
  495loPI   C2A 7912  17.287   4.595   8.847  0.2180  0.1094  0.1512
  495loPI   C3A 7913  17.284   4.308   8.626  0.0999  0.2261  0.0207
  495loPI   C4A 7914  17.230   4.072   8.258 -0.1945 -0.2995  0.0003
  495loPI   C5A 7915  17.099   3.866   7.936 -0.0809 -0.3012 -0.2959
  495loPI   C6A 7916  17.128   3.588   7.536 -0.0717  0.0946  0.0196
  495loPI   C1B 7917  17.995   4.930   9.235 -0.3069 -0.0041 -0.2157
  495loPI   C2B 7918  17.740   4.881   8.834  0.1490 -0.0639  0.0392
  495loPI   C3B 7919  17.572   4.674   8.461  0.0385 -0.0498  0.3795
  495loPI   C4B 7920  17.132   4.678   8.308 -0.3730 -0.1743 -0.1992
  496loPI    C1 7921  13.346  11.652  10.824 -0.0040  0.1059  0.2052
  496loPI    C2 7922  13.118  11.340  10.720  0.2524 -0.0273  0.0299
  496loPI    C3 7923  13.189  11.416  11.106  0.1762 -0.1775  0.0743
  496loPI   PO4 7924  13.235  11.881  10.746  0.0269  0.2154 -0.0815
  496loPI   GL1 7925  13.248  11.978  10.344  0.0770  0.1129  0.1175
  496loPI   GL2 7926  12.892  12.055  10.192  0.0765 -0.1783  0.2361
  496loPI   C1A 7927  13.375  12.060   9.924 -0.0526 -0.2721  0.0295
  496loPI   C2A 7928  13.366  12.126   9.451  0.2471 -0.3923  0.1789
  496loPI   C3A 7929  13.433  12.165   9.028  0.2755 -0.0550  0.0340
  496loPI   C4A 7930  13.399  12.137   8.539 -0.0196  0.4320  0.0723
  496loPI   C5A 7931  13.657  12.291   8.164  0.2540  0.2777  0.4446
  496loPI   C6A 7932  13.977  12.302   7.881 -0.2519  0.0068  0.0512
  496loPI   C1B 7933  13.004  12.353   9.782 -0.3047  0.1740 -0.0540
  496loPI   C2B 7934  13.255  12.582   9.535 -0.5881 -0.1514  0.2296
  496loPI   C3B 7935  13.261  12.659   9.209  0.0111 -0.2221 -0.0675
  496loPI   C4B 7936  13.093  12.574   8.841 -0.3517  0.2704 -0.1209
  497loPI    C1 7937  16.507   2.354  10.484  0.1734 -0.0274 -0.0164
  497loPI    C2 7938  16.201   2.509  10.278  0.2124 -0.0337 -0.0793
  497loPI    C3 7939  16.178   2.478  10.676  0.1628  0.0378 -0.0763
  497loPI   PO4 7940  16.782   2.438  10.350 -0.2875  0.1120  0.3254
  497loPI   GL1 7941  16.777   2.421   9.892 -0.0394  0.2058 -0.0197
  497loPI   GL2 7942  16.457   2.350   9.884  0.1014 -0.0478 -0.0239
  497loPI   C1A 7943  17.002   2.042   9.723 -0.2200 -0.3003  0.1182
  497loPI   C2A 7944  16.926   1.894   9.243  0.1784 -0.0562 -0.1416
  497loPI   C3A 7945  17.125   2.131   8.853  0.0479 -0.0266 -0.0136
  497loPI   C4A 7946  17.140   2.189   8.473  0.1633  0.0531  0.2086
  497loPI   C5A 7947  16.993   2.333   8.108  0.1620 -0.0748 -0.0531
  497loPI   C6A 7948  16.590   2.365   7.981 -0.0611  0.1226 -0.2867
  497loPI   C1B 7949  16.439   2.574   9.454 -0.0484 -0.0108  0.0529
  497loPI   C2B 7950  16.280   2.668   8.995  0.2348 -0.0653  0.1375
  497loPI   C3B 7951  16.143   2.420   8.670 -0.2146 -0.1770  0.0519
  497loPI   C4B 7952  16.179   2.390   8.263 -0.0632  0.1109  0.0892
  498loPI    C1 7953   8.582   5.597  11.041  0.0595  0.1530 -0.3232
  498loPI    C2 7954   8.887   5.830  11.156  0.0288  0.0383  0.0020
  498loPI    C3 7955   8.510   5.962  11.190  0.0182 -0.0067  0.0604
  498loPI   PO4 7956   8.625   5.518  10.837  0.0019  0.1210  0.1938
  498loPI   GL1 7957   8.551   5.627  10.463  0.2866 -0.0198  0.0325
  498loPI   GL2 7958   8.301   5.740  10.235 -0.3394 -0.1019  0.1424
  498loPI   C1A 7959   8.765   5.730  10.142  0.0584  0.1696  0.2105
  498loPI   C2A 7960   8.848   5.744   9.768 -0.2231 -0.1987  0.0898
  498loPI   C3A 7961   8.936   5.762   9.357 -0.1864  0.1668 -0.2234
  498loPI   C4A 7962   8.950   5.722   8.911  0.2208  0.4090 -0.0067
  498loPI   C5A 7963   8.877   5.649   8.495  0.0022 -0.0629  0.3908
  498loPI   C6A 7964   8.901   5.853   8.149 -0.2126  0.4569  0.0120
  498loPI   C1B 7965   8.366   5.787   9.767 -0.2857 -0.2037  0.1453
  498loPI   C2B 7966   8.426   5.821   9.349 -0.0353 -0.1762 -0.1916
  498loPI   C3B 7967   8.365   5.789   8.862 -0.0579  0.0085  0.0125
  498loPI   C4B 7968   8.336   5.867   8.438  0.1926  0.0892 -0.0244
  499loPI    C1 7969   2.015   8.544  10.821  0.1543 -0.0763  0.0353
  499loPI    C2 7970   2.224   8.223  10.704  0.1953 -0.0607  0.0658
  499loPI    C3 7971   2.093   8.250  11.081  0.1698 -0.0536  0.0565
  499loPI   PO4 7972   2.136   8.741  10.735 -0.0402  0.1647 -0.1413
  499loPI   GL1 7973   2.011   8.871  10.299  0.0158 -0.2152 -0.2008
  499loPI   GL2 7974   1.789   9.065  10.056  0.0970  0.0080 -0.3076
  499loPI   C1A 7975   2.193   8.752   9.911  0.0248 -0.2889  0.2592
  499loPI   C2A 7976   2.199   8.549   9.547  0.3735  0.5004 -0.3394
  499loPI   C3A 7977   2.184   8.568   9.094 -0.1466  0.1762  0.0431
  499loPI   C4A 7978   2.293   8.602   8.656  0.2563  0.0097  0.3781
  499loPI   C5A 7979   2.682   8.545   8.377 -0.1761  0.0077 -0.0954
  499loPI   C6A 7980   2.908   8.599   8.010 -0.0530 -0.1327 -0.0154
  499loPI   C1B 7981   2.017   9.117   9.689 -0.0363 -0.1098  0.0374
  499loPI   C2B 7982   2.033   9.007   9.329  0.1709  0.1750 -0.1027
  499loPI   C3B 7983   1.979   9.121   9.007 -0.1350  0.1598 -0.1805
  499loPI   C4B 7984   2.029   8.994   8.632  0.0962  0.1323 -0.1435
  500loPI    C1 7985   2.300  17.603  10.909  0.0899 -0.2463 -0.1114
  500loPI    C2 7986   2.249  17.410  11.255 -0.2377 -0.2928 -0.1820
  500loPI    C3 7987   2.203  17.807  11.239  0.2034 -0.2334 -0.0859
  500loPI   PO4 7988   2.497  17.488  10.771 -0.0731  0.0591  0.0707
  500loPI   GL1 7989   2.512  17.250  10.374  0.0877  0.0083  0.0867
  500loPI   GL2 7990   2.251  17.316  10.143  0.0383 -0.3201  0.0774
  500loPI   C1A 7991   2.766  17.200   9.999  0.2980 -0.3123 -0.2688
  500loPI   C2A 7992   2.860  17.222   9.699  0.0883  0.0807  0.2052
  500loPI   C3A 7993   2.858  17.327   9.202  0.0545  0.0684 -0.2350
  500loPI   C4A 7994   2.845  17.283   8.714 -0.1498 -0.0006 -0.2393
  500loPI   C5A 7995   3.084  17.203   8.304  0.1453  0.1340  0.2269
  500loPI   C6A 7996   3.167  16.855   8.035  0.2098 -0.3339 -0.0915
  500loPI   C1B 7997   2.382  17.345   9.715  0.2117  0.0137 -0.1002
  500loPI   C2B 7998   2.326  17.404   9.295 -0.1237  0.2042  0.0412
  500loPI   C3B 7999   2.374  17.392   8.943  0.3180 -0.0869 -0.0805
  500loPI   C4B 8000   2.381  17.246   8.532  0.2677  0.0137  0.0474
  501loPI    C1 8001  16.488   9.745  11.111 -0.1796 -0.1150  0.0723
  501loPI    C2 8002  16.519   9.496  11.423  0.0594 -0.0496  0.1028
  501loPI    C3 8003  16.259   9.800  11.434 -0.0305 -0.1288  0.1818
  501loPI   PO4 8004  16.473   9.644  10.812 -0.0557 -0.2333 -0.1992
  501loPI   GL1 8005  16.368   9.463  10.495  0.0268 -0.0216  0.0063
  501loPI   GL2 8006  16.042   9.545  10.517  0.0288  0.2192 -0.0290
  501loPI   C1A 8007  16.382   9.577  10.078 -0.1077 -0.0285  0.3142
  501loPI   C2A 8008  16.423   9.544   9.680 -0.1290  0.0621 -0.0035
  501loPI   C3A 8009  16.399   9.590   9.312 -0.0261  0.2575  0.0259
  501loPI   C4A 8010  16.564   9.573   8.909 -0.1013 -0.2339  0.1296
  501loPI   C5A 8011  16.698   9.499   8.532  0.1992  0.3676 -0.2148
  501loPI   C6A 8012  16.784   9.764   8.218  0.1174  0.0264 -0.2820
  501loPI   C1B 8013  15.888   9.586  10.122  0.4046  0.0394 -0.0105
  501loPI   C2B 8014  15.899   9.674   9.667  0.1654 -0.2062  0.3207
  501loPI   C3B 8015  15.918   9.633   9.184  0.3192 -0.0918 -0.2205
  501loPI   C4B 8016  16.111   9.597   8.794 -0.0480  0.0965  0.4029
  502loPI    C1 8017   6.612   3.873  10.795 -0.0792  0.2097 -0.1684
  502loPI    C2 8018   6.548   4.207  11.006 -0.1755  0.0192  0.1106
  502loPI    C3 8019   6.762   3.908  11.164 -0.1318 -0.0729 -0.1180
  502loPI   PO4 8020   6.705   4.035  10.551  0.1029  0.1075 -0.0350
  502loPI   GL1 8021   6.582   4.018  10.132  0.0722 -0.0013  0.1786
  502loPI   GL2 8022   6.335   4.107  10.198  0.2201  0.0589  0.4112
  502loPI   C1A 8023   6.846   4.040   9.707  0.2326 -0.0503 -0.4398
  502loPI   C2A 8024   6.762   4.022   9.195 -0.0310 -0.0627  0.1440
  502loPI   C3A 8025   6.772   4.099   8.732 -0.4146 -0.0127 -0.1030
  502loPI   C4A 8026   6.791   4.024   8.299  0.0469 -0.0650  0.0106
  502loPI   C5A 8027   6.860   4.289   8.011 -0.2618 -0.2067  0.4591
  502loPI   C6A 8028   6.644   4.591   7.687  0.4614 -0.1786  0.0354
  502loPI   C1B 8029   6.184   4.031   9.813 -0.2537 -0.1250 -0.1802
  502loPI   C2B 8030   6.314   4.055   9.427 -0.0515  0.3925  0.1592
  502loPI   C3B 8031   6.296   4.010   8.951  0.0182 -0.0233 -0.0304
  502loPI   C4B 8032   6.318   4.044   8.439 -0.2895  0.0678 -0.1028
  503loPI    C1 8033   1.757   9.929  10.747  0.0324 -0.1314 -0.0536
  503loPI    C2 8034   1.808   9.857  11.137  0.0968 -0.1762 -0.0703
  503loPI    C3 8035   1.510  10.094  11.015 -0.0369 -0.3099 -0.0065
  503loPI   PO4 8036   1.930   9.721  10.664 -0.1203  0.2147 -0.1961
  503loPI   GL1 8037   1.921   9.435  10.351 -0.0398 -0.0542 -0.0586
  503loPI   GL2 8038   2.267   9.510  10.191  0.3477 -0.1408  0.1751
  503loPI   C1A 8039   1.826   9.535   9.900  0.1813 -0.1180 -0.0438
  503loPI   C2A 8040   1.841   9.521   9.522 -0.0535  0.1304  0.1616
  503loPI   C3A 8041   1.833   9.582   9.100 -0.0265  0.0577  0.0882
  503loPI   C4A 8042   1.869   9.558   8.723 -0.2633 -0.0183  0.3308
  503loPI   C5A 8043   2.159   9.435   8.326 -0.0982 -0.3290  0.0232
  503loPI   C6A 8044   2.383   9.004   8.285  0.0282 -0.0224  0.1456
  503loPI   C1B 8045   2.311   9.518   9.722 -0.1713 -0.0183 -0.0570
  503loPI   C2B 8046   2.317   9.503   9.250 -0.1946 -0.2064 -0.0582
  503loPI   C3B 8047   2.431   9.474   8.890  0.1235 -0.0134  0.1178
  503loPI   C4B 8048   2.604   9.436   8.589 -0.1499 -0.0869 -0.0079
  504loPI    C1 8049  13.287  13.022  10.974  0.2120  0.0093  0.1352
  504loPI    C2 8050  13.146  12.675  11.114 -0.3353  0.0944 -0.1750
  504loPI    C3 8051  12.989  13.020  11.240  0.0465  0.2260 -0.0449
  504loPI   PO4 8052  13.328  12.852  10.646  0.0058 -0.1130 -0.0978
  504loPI   GL1 8053  13.471  13.038  10.279  0.1668  0.3722 -0.3318
  504loPI   GL2 8054  13.772  13.300  10.279  0.2293 -0.0542 -0.0873
  504loPI   C1A 8055  13.430  12.926   9.877 -0.1719 -0.2685 -0.0120
  504loPI   C2A 8056  13.557  12.984   9.586  0.2188  0.1628  0.0779
  504loPI   C3A 8057  13.642  13.062   9.198  0.0994 -0.3791  0.1048
  504loPI   C4A 8058  13.489  13.055   8.772 -0.1775 -0.3801  0.2020
  504loPI   C5A 8059  13.576  13.095   8.320  0.0726  0.2430 -0.2278
  504loPI   C6A 8060  13.911  13.209   7.982 -0.0263  0.0174 -0.0191
  504loPI   C1B 8061  13.768  13.378   9.903 -0.2094  0.3515 -0.1522
  504loPI   C2B 8062  13.818  13.438   9.460 -0.0887  0.0800  0.1841
  504loPI   C3B 8063  13.918  13.479   9.095  0.2591 -0.1236 -0.1176
  504loPI   C4B 8064  13.907  13.407   8.681 -0.0046 -0.0641  0.1946
  505loPI    C1 8065  14.460   9.497  10.906  0.0646 -0.1123 -0.0050
  505loPI    C2 8066  14.271   9.631  11.232  0.3079 -0.0557  0.1155
  505loPI    C3 8067  14.294   9.238  11.161 -0.1428 -0.0530 -0.0782
  505loPI   PO4 8068  14.677   9.649  10.924 -0.0260 -0.0781 -0.0552
  505loPI   GL1 8069  14.866   9.618  10.496  0.1353  0.3661 -0.4969
  505loPI   GL2 8070  15.148   9.382  10.544 -0.1147 -0.1358  0.0437
  505loPI   C1A 8071  14.818   9.737  10.069 -0.1725 -0.1306  0.4190
  505loPI   C2A 8072  14.828   9.813   9.641 -0.2289  0.2898  0.1992
  505loPI   C3A 8073  14.843   9.785   9.197  0.4311 -0.0598  0.1406
  505loPI   C4A 8074  14.859   9.792   8.765  0.0961 -0.0311 -0.1671
  505loPI   C5A 8075  14.911   9.629   8.416 -0.2226  0.1625 -0.0105
  505loPI   C6A 8076  15.208   9.860   8.186 -0.1586 -0.0594  0.1552
  505loPI   C1B 8077  15.130   9.361  10.190  0.1445 -0.2470 -0.4191
  505loPI   C2B 8078  15.035   9.285   9.808 -0.2154 -0.0446  0.3860
  505loPI   C3B 8079  15.110   9.322   9.353  0.0607  0.0344  0.1439
  505loPI   C4B 8080  15.101   9.373   8.910 -0.3534 -0.0076  0.3059
  506loPI    C1 8081  11.560  16.713  10.466 -0.1874  0.2197  0.0459
  506loPI    C2 8082  11.886  16.594  10.666 -0.2335 -0.1143 -0.0720
  506loPI    C3 8083  11.863  16.968  10.525  0.0593 -0.0616  0.0146
  506loPI   PO4 8084  11.523  16.421  10.375 -0.2392 -0.0273  0.1147
  506loPI   GL1 8085  11.497  16.141   9.977 -0.0365 -0.1142  0.0677
  506loPI   GL2 8086  11.264  15.923  10.012  0.1598 -0.0337  0.0747
  506loPI   C1A 8087  11.370  16.259   9.513  0.1854  0.1456 -0.1143
  506loPI   C2A 8088  11.335  16.310   9.127  0.0883 -0.2325 -0.1932
  506loPI   C3A 8089  11.518  16.360   8.722 -0.2870 -0.1820  0.0151
  506loPI   C4A 8090  11.649  16.150   8.446 -0.0610  0.0600 -0.0024
  506loPI   C5A 8091  11.982  16.255   8.097 -0.0179 -0.2283  0.1526
  506loPI   C6A 8092  11.979  16.260   7.755 -0.0296  0.0292  0.1054
  506loPI   C1B 8093  11.305  15.764   9.588 -0.1835 -0.3378  0.0704
  506loPI   C2B 8094  11.297  15.589   9.110  0.0733  0.0860  0.1405
  506loPI   C3B 8095  11.394  15.273   8.829  0.2261 -0.2308 -0.0824
  506loPI   C4B 8096  11.414  15.174   8.379 -0.0565  0.0808  0.1474
  507loPI    C1 8097  16.593   8.654  11.300 -0.1168 -0.0491  0.1004
  507loPI    C2 8098  16.798   8.339  11.435  0.2725  0.1047 -0.1164
  507loPI    C3 8099  16.775   8.671  11.656  0.2703  0.0926 -0.0983
  507loPI   PO4 8100  16.679   8.656  11.039  0.0324 -0.0412  0.0359
  507loPI   GL1 8101  16.667   8.737  10.548 -0.0752  0.3035 -0.0797
  507loPI   GL2 8102  16.659   9.005  10.449 -0.2967  0.1351 -0.0280
  507loPI   C1A 8103  16.838   8.713  10.039 -0.0735 -0.1178  0.1111
  507loPI   C2A 8104  16.828   8.655   9.601  0.0699 -0.0828  0.1434
  507loPI   C3A 8105  16.896   8.574   9.153 -0.2361  0.1592 -0.3332
  507loPI   C4A 8106  16.904   8.538   8.716  0.0207 -0.1748  0.1972
  507loPI   C5A 8107  17.065   8.396   8.311 -0.0555 -0.1631 -0.2303
  507loPI   C6A 8108  17.212   8.412   7.996  0.0138 -0.1502 -0.0277
  507loPI   C1B 8109  16.516   9.033  10.135 -0.1244  0.2059 -0.0841
  507loPI   C2B 8110  16.632   9.132   9.772  0.1339  0.1718 -0.2191
  507loPI   C3B 8111  16.692   9.095   9.397 -0.5632  0.3295 -0.0579
  507loPI   C4B 8112  16.717   9.056   8.972 -0.1029 -0.1546 -0.2141
  508loPI    C1 8113  13.902  15.866  10.555  0.1845 -0.1550 -0.2813
  508loPI    C2 8114  13.890  15.575  10.281 -0.1161 -0.1741 -0.2514
  508loPI    C3 8115  13.718  15.521  10.638  0.3466 -0.1816 -0.0223
  508loPI   PO4 8116  14.159  15.930  10.555  0.0668  0.4579 -0.0752
  508loPI   GL1 8117  14.473  15.887  10.276  0.1954 -0.2068  0.3375
  508loPI   GL2 8118  14.590  16.135  10.420  0.0864  0.1353 -0.3418
  508loPI   C1A 8119  14.548  15.904   9.806  0.3567  0.0142  0.1585
  508loPI   C2A 8120  14.584  15.966   9.301 -0.1192  0.1027 -0.0453
  508loPI   C3A 8121  14.654  16.051   8.908  0.0820 -0.4055  0.0884
  508loPI   C4A 8122  14.746  15.963   8.426 -0.0404  0.0496 -0.5677
  508loPI   C5A 8123  15.232  15.936   8.315 -0.0306 -0.2100 -0.3017
  508loPI   C6A 8124  15.617  15.918   8.597 -0.0462  0.3996 -0.0844
  508loPI   C1B 8125  14.860  16.172   9.999  0.0313 -0.2086 -0.0718
  508loPI   C2B 8126  14.780  16.397   9.714  0.0289  0.2413  0.1062
  508loPI   C3B 8127  14.895  16.393   9.284  0.0819  0.0859 -0.3270
  508loPI   C4B 8128  14.950  16.468   8.982 -0.1684  0.0422 -0.0170
  509loPI    C1 8129  13.577   1.314  10.801  0.1311 -0.0588 -0.0124
  509loPI    C2 8130  13.521   1.698  10.898  0.0533 -0.0687 -0.0180
  509loPI    C3 8131  13.716   1.455  11.149 -0.0071 -0.0555  0.0421
  509loPI   PO4 8132  13.624   1.329  10.532 -0.3089  0.2295 -0.0305
  509loPI   GL1 8133  13.671   1.279  10.127 -0.0485 -0.0617  0.1157
  509loPI   GL2 8134  13.340   1.181  10.132  0.1252  0.1130  0.0436
  509loPI   C1A 8135  13.755   1.249   9.680 -0.1730 -0.5100 -0.2438
  509loPI   C2A 8136  13.586   1.197   9.271 -0.0191  0.1693  0.1076
  509loPI   C3A 8137  13.616   1.162   8.889 -0.0596 -0.2489  0.1933
  509loPI   C4A 8138  13.584   1.067   8.457 -0.0189  0.0944  0.0038
  509loPI   C5A 8139  13.346   1.054   8.055 -0.0234  0.0230 -0.3250
  509loPI   C6A 8140  13.236   1.368   7.781  0.0492 -0.1824  0.2011
  509loPI   C1B 8141  13.304   0.988   9.765 -0.0729 -0.1057  0.6995
  509loPI   C2B 8142  13.203   0.948   9.378  0.4382 -0.0299  0.1099
  509loPI   C3B 8143  13.100   0.985   9.037 -0.0827 -0.1671  0.2523
  509loPI   C4B 8144  13.069   1.059   8.562 -0.0523  0.0359 -0.1921
  510loPI    C1 8145  16.107  13.912  10.923 -0.1552  0.0432  0.1635
  510loPI    C2 8146  15.776  13.986  11.134 -0.1406 -0.1299  0.2487
  510loPI    C3 8147  16.117  13.896  11.322  0.0018  0.2242  0.1683
  510loPI   PO4 8148  16.033  13.865  10.695 -0.1769 -0.2061  0.0519
  510loPI   GL1 8149  16.221  14.082  10.290  0.1009  0.0840 -0.0447
  510loPI   GL2 8150  16.540  14.013  10.261  0.3532  0.0537 -0.0703
  510loPI   C1A 8151  15.961  14.061   9.947  0.3796 -0.2669 -0.1423
  510loPI   C2A 8152  15.986  14.162   9.517  0.2536  0.0299 -0.0430
  510loPI   C3A 8153  15.991  14.054   9.015 -0.0695  0.2200  0.0300
  510loPI   C4A 8154  15.966  14.201   8.565  0.4014  0.1036  0.1106
  510loPI   C5A 8155  16.123  14.141   8.274  0.0026 -0.3347  0.0830
  510loPI   C6A 8156  16.462  14.375   8.233  0.0890 -0.1120 -0.1059
  510loPI   C1B 8157  16.554  14.119   9.856 -0.0538 -0.0032 -0.0833
  510loPI   C2B 8158  16.480  13.969   9.405  0.1690  0.2540 -0.0385
  510loPI   C3B 8159  16.553  14.107   9.057  0.2267 -0.0827 -0.1248
  510loPI   C4B 8160  16.602  14.406   8.680 -0.2296 -0.1021 -0.2044
  511loPI    C1 8161  10.318  18.074  10.849 -0.3337 -0.1795  0.0154
  511loPI    C2 8162  10.451  17.742  11.029 -0.1251 -0.0273  0.1477
  511loPI    C3 8163  10.498  18.098  11.206 -0.2301  0.0879 -0.0523
  511loPI   PO4 8164  10.021  18.059  10.674 -0.0844 -0.1512 -0.1420
  511loPI   GL1 8165   9.801  18.150  10.354 -0.1394 -0.5361 -0.2254
  511loPI   GL2 8166   9.700  18.354  10.405  0.0035 -0.0956 -0.1064
  511loPI   C1A 8167  10.146  18.205  10.012 -0.4082 -0.0798 -0.1929
  511loPI   C2A 8168  10.172  18.228   9.656  0.0143  0.0835  0.1537
  511loPI   C3A 8169  10.200  18.134   9.214 -0.0537 -0.0298 -0.1523
  511loPI   C4A 8170  10.263  18.082   8.860  0.0848 -0.1120 -0.0345
  511loPI   C5A 8171   9.976  17.874   8.613 -0.2555  0.0514  0.1528
  511loPI   C6A 8172   9.550  17.728   8.836 -0.4101 -0.1410  0.2167
  511loPI   C1B 8173   9.684  18.258   9.891 -0.0281 -0.3049 -0.3429
  511loPI   C2B 8174   9.690  18.180   9.407  0.2866  0.3338 -0.1757
  511loPI   C3B 8175   9.696  18.203   8.966  0.0103  0.1553  0.0313
  511loPI   C4B 8176   9.543  18.239   8.530 -0.0826 -0.1050  0.4605
  512loPI    C1 8177  14.051  14.694  10.852 -0.2426 -0.0421  0.2663
  512loPI    C2 8178  14.181  14.352  11.013  0.1917 -0.0488 -0.0794
  512loPI    C3 8179  14.261  14.700  11.193  0.0159 -0.1044  0.1109
  512loPI   PO4 8180  14.108  14.656  10.574 -0.0760  0.1439 -0.0487
  512loPI   GL1 8181  13.936  14.787  10.234 -0.1834 -0.1836 -0.0627
  512loPI   GL2 8182  13.881  14.444  10.092 -0.0291  0.2918 -0.1133
  512loPI   C1A 8183  13.918  15.093   9.926 -0.3146  0.5599 -0.0561
  512loPI   C2A 8184  13.855  15.165   9.520  0.0045  0.2083  0.1447
  512loPI   C3A 8185  14.017  15.197   9.117 -0.0045 -0.2130  0.0110
  512loPI   C4A 8186  14.106  15.138   8.701 -0.1012 -0.1398  0.1057
  512loPI   C5A 8187  13.844  15.074   8.268  0.1293  0.2009  0.0826
  512loPI   C6A 8188  13.538  15.071   7.941  0.1693 -0.1706  0.3106
  512loPI   C1B 8189  13.941  14.223   9.655  0.0425  0.0016  0.1349
  512loPI   C2B 8190  13.953  14.332   9.240  0.1943  0.2521  0.1505
  512loPI   C3B 8191  13.904  14.267   8.784  0.3263 -0.1250  0.1748
  512loPI   C4B 8192  13.947  14.073   8.380  0.1462  0.1425 -0.1452
  513loPI    C1 8193  14.832   1.865  10.619  0.0136 -0.0151  0.0397
  513loPI    C2 8194  14.500   1.649  10.565 -0.0860  0.1699 -0.1011
  513loPI    C3 8195  14.518   1.917  10.861 -0.0241  0.0887 -0.0307
  513loPI   PO4 8196  14.874   2.053  10.377 -0.1179 -0.0124  0.1016
  513loPI   GL1 8197  14.704   1.912  10.012 -0.1342  0.2104  0.0531
  513loPI   GL2 8198  14.397   1.895  10.066 -0.4031 -0.2635  0.0408
  513loPI   C1A 8199  14.825   2.023   9.650  0.2463  0.2531  0.0821
  513loPI   C2A 8200  14.743   2.030   9.175 -0.0310 -0.1083  0.2156
  513loPI   C3A 8201  14.653   1.977   8.696 -0.2359 -0.0580 -0.0242
  513loPI   C4A 8202  14.553   1.869   8.196 -0.1153 -0.1178 -0.0377
  513loPI   C5A 8203  14.492   1.891   7.839 -0.1590  0.1680 -0.2813
  513loPI   C6A 8204  14.237   1.986   7.507  0.0165 -0.2323 -0.0097
  513loPI   C1B 8205  14.360   1.892   9.603 -0.1925  0.0251 -0.0875
  513loPI   C2B 8206  14.254   1.770   9.118  0.0294  0.3097 -0.0062
  513loPI   C3B 8207  14.238   1.725   8.631 -0.0171  0.0274 -0.0661
  513loPI   C4B 8208  14.064   1.645   8.133  0.0377  0.0104 -0.2206
  514loPI    C1 8209   9.326   8.047  10.393 -0.0818 -0.2109  0.0176
  514loPI    C2 8210   9.647   7.810  10.367  0.1938  0.1152  0.3277
  514loPI    C3 8211   9.343   7.708  10.605  0.1117 -0.1397  0.1191
  514loPI   PO4 8212   9.221   8.095  10.127 -0.0207 -0.1830 -0.0882
  514loPI   GL1 8213   9.057   7.928   9.777  0.1889  0.0813 -0.0252
  514loPI   GL2 8214   9.347   7.912   9.717  0.1715 -0.1445  0.1614
  514loPI   C1A 8215   8.820   7.992   9.458  0.0038  0.0354 -0.1824
  514loPI   C2A 8216   8.726   8.001   8.995  0.0067 -0.0754 -0.1493
  514loPI   C3A 8217   8.773   7.992   8.600  0.0236 -0.1975 -0.2887
  514loPI   C4A 8218   8.715   7.946   8.130 -0.4610  0.1946 -0.0995
  514loPI   C5A 8219   8.695   8.376   7.917 -0.1691 -0.3804  0.1416
  514loPI   C6A 8220   8.386   8.612   7.918  0.0154  0.0285 -0.0394
  514loPI   C1B 8221   9.305   8.005   9.272 -0.1697  0.0140  0.0803
  514loPI   C2B 8222   9.239   8.001   8.843  0.0182  0.1675  0.1948
  514loPI   C3B 8223   9.183   8.010   8.350 -0.2179  0.2061 -0.2536
  514loPI   C4B 8224   9.203   7.953   7.922 -0.1750  0.0701 -0.2004
  515loPI    C1 8225   5.969   1.737  10.279  0.0246  0.0699 -0.0357
  515loPI    C2 8226   5.634   1.602  10.107  0.0628  0.0082 -0.0617
  515loPI    C3 8227   5.615   1.796  10.457 -0.0007  0.0095 -0.0658
  515loPI   PO4 8228   6.097   1.917  10.049 -0.1478 -0.1272  0.1860
  515loPI   GL1 8229   5.853   2.299   9.914 -0.1151  0.3657 -0.0234
  515loPI   GL2 8230   5.661   2.085  10.011 -0.1932 -0.1428 -0.0976
  515loPI   C1A 8231   5.824   2.388   9.442 -0.1095 -0.0751 -0.0251
  515loPI   C2A 8232   6.032   2.701   9.228 -0.1294 -0.0756  0.1273
  515loPI   C3A 8233   6.107   2.755   8.758 -0.0161  0.2164  0.0480
  515loPI   C4A 8234   6.184   2.408   8.703  0.0760 -0.1320  0.0019
  515loPI   C5A 8235   6.284   2.119   8.421 -0.2077 -0.5583 -0.1438
  515loPI   C6A 8236   6.673   1.902   8.224 -0.0596 -0.0402  0.4162
  515loPI   C1B 8237   5.465   1.838   9.674 -0.1606 -0.1779 -0.2321
  515loPI   C2B 8238   5.570   1.718   9.321  0.0289 -0.1893 -0.1447
  515loPI   C3B 8239   5.519   1.904   9.004 -0.2612 -0.0998 -0.0238
  515loPI   C4B 8240   5.712   2.266   8.907  0.1091 -0.0633  0.0666
  516loPI    C1 8241  12.145   9.890  10.748  0.1305 -0.0236  0.0287
  516loPI    C2 8242  12.420  10.118  10.928 -0.0076  0.0887  0.0993
  516loPI    C3 8243  12.221   9.842  11.138 -0.0716  0.1262  0.0883
  516loPI   PO4 8244  12.278   9.777  10.550  0.1312  0.0294 -0.3087
  516loPI   GL1 8245  12.106   9.836  10.225  0.0663  0.0906  0.0712
  516loPI   GL2 8246  11.970   9.587  10.082 -0.0269 -0.0091 -0.1373
  516loPI   C1A 8247  12.260   9.996   9.858  0.0957  0.0193 -0.2522
  516loPI   C2A 8248  12.257  10.011   9.423  0.0838  0.4651 -0.0712
  516loPI   C3A 8249  12.321  10.011   9.067  0.0917 -0.0413  0.1743
  516loPI   C4A 8250  12.164  10.120   8.782  0.2237 -0.0064  0.1738
  516loPI   C5A 8251  11.916  10.222   8.365  0.1698 -0.2272  0.0202
  516loPI   C6A 8252  11.975  10.461   7.958  0.0492  0.1640 -0.2641
  516loPI   C1B 8253  12.080   9.509   9.691 -0.0006  0.0302  0.2762
  516loPI   C2B 8254  11.888   9.574   9.340  0.0295 -0.1481  0.2749
  516loPI   C3B 8255  11.895   9.556   8.881 -0.0188  0.2670 -0.0371
  516loPI   C4B 8256  12.138   9.370   8.617 -0.1343  0.4759  0.2687
  517loPI    C1 8257   3.472   4.457  10.901 -0.1662  0.0678  0.1673
  517loPI    C2 8258   3.739   4.359  11.182 -0.1464 -0.0850  0.0961
  517loPI    C3 8259   3.394   4.531  11.286 -0.0252  0.1048  0.1891
  517loPI   PO4 8260   3.623   4.546  10.661  0.1611  0.1691  0.2478
  517loPI   GL1 8261   3.404   4.459  10.328  0.1231 -0.1388  0.0329
  517loPI   GL2 8262   3.525   4.280  10.215  0.2307 -0.1229 -0.0472
  517loPI   C1A 8263   3.469   4.727   9.936 -0.1382 -0.1133  0.0727
  517loPI   C2A 8264   3.352   4.597   9.519 -0.0105  0.1183 -0.0221
  517loPI   C3A 8265   3.433   4.624   9.071 -0.0266 -0.1067 -0.2727
  517loPI   C4A 8266   3.518   4.634   8.646 -0.0512  0.1826  0.2216
  517loPI   C5A 8267   3.539   4.494   8.176 -0.2148 -0.2145 -0.3163
  517loPI   C6A 8268   3.706   4.523   7.822 -0.0348  0.1075  0.0217
  517loPI   C1B 8269   3.661   4.255   9.825 -0.1370  0.1463 -0.0594
  517loPI   C2B 8270   3.637   4.173   9.439 -0.2052  0.3661 -0.0536
  517loPI   C3B 8271   3.770   4.138   8.983 -0.0340  0.1785  0.0825
  517loPI   C4B 8272   3.683   4.106   8.571 -0.0392  0.1817  0.1294
  518loPI    C1 8273  17.881  16.904  10.668  0.0072 -0.0853 -0.1476
  518loPI    C2 8274  17.501  16.823  10.764 -0.0196  0.1620 -0.0354
  518loPI    C3 8275  17.799  16.682  10.990 -0.0438 -0.0151 -0.1119
  518loPI   PO4 8276  17.937  17.108  10.527 -0.2200  0.1208  0.0836
  518loPI   GL1 8277  18.025  17.268  10.153 -0.0957 -0.2300  0.0060
  518loPI   GL2 8278  17.824  17.466  10.007 -0.1932  0.2879 -0.0907
  518loPI   C1A 8279  18.086  17.112   9.712  0.1516  0.1703  0.0090
  518loPI   C2A 8280  18.182  17.150   9.374 -0.1861  0.0272 -0.0260
  518loPI   C3A 8281  18.075  16.968   9.044  0.0900  0.0228 -0.0936
  518loPI   C4A 8282  17.991  16.889   8.580  0.0520  0.2255 -0.2651
  518loPI   C5A 8283  18.378  16.928   8.260  0.2112 -0.0208  0.0376
  518loPI   C6A 8284  18.786  16.614   8.236  0.0679 -0.2527  0.4134
  518loPI   C1B 8285  17.726  17.482   9.591  0.0385  0.0378  0.2617
  518loPI   C2B 8286  17.947  17.534   9.139 -0.1251  0.2482 -0.3267
  518loPI   C3B 8287  18.012  17.408   8.674  0.0640  0.2565 -0.1697
  518loPI   C4B 8288  18.124  17.363   8.305 -0.3799  0.3024  0.2821
  519loPI    C1 8289   1.148  10.706  10.775  0.0641  0.0451 -0.1499
  519loPI    C2 8290   1.006  10.335  10.735 -0.1696  0.1221 -0.0479
  519loPI    C3 8291   1.131  10.464  11.092  0.1110  0.0725 -0.1261
  519loPI   PO4 8292   1.210  10.778  10.553  0.0585 -0.1787 -0.3207
  519loPI   GL1 8293   1.170  10.965  10.223 -0.2512 -0.1626  0.1437
  519loPI   GL2 8294   1.416  11.183  10.363  0.0779 -0.2305  0.0122
  519loPI   C1A 8295   1.132  11.039   9.718  0.3295 -0.1403 -0.2013
  519loPI   C2A 8296   1.164  10.955   9.238 -0.0967 -0.2654  0.2528
  519loPI   C3A 8297   1.166  11.086   8.802 -0.2385 -0.1088  0.1115
  519loPI   C4A 8298   1.156  10.918   8.417 -0.1999  0.0849 -0.1109
  519loPI   C5A 8299   1.206  11.202   8.041 -0.0912 -0.2362  0.0802
  519loPI   C6A 8300   1.498  11.193   7.742  0.3041 -0.2877 -0.0594
  519loPI   C1B 8301   1.402  11.402   9.929  0.1129 -0.2873  0.2719
  519loPI   C2B 8302   1.472  11.407   9.537  0.3124  0.2974  0.1958
  519loPI   C3B 8303   1.465  11.422   9.156 -0.3440  0.0460  0.0785
  519loPI   C4B 8304   1.486  11.556   8.752 -0.0772 -0.3804 -0.1893
  520loPI    C1 8305   9.086  14.129  10.341 -0.0476 -0.0347  0.0551
  520loPI    C2 8306   8.802  13.867  10.241  0.1466 -0.2727  0.1159
  520loPI    C3 8307   8.914  13.903  10.623  0.0291 -0.0041  0.1272
  520loPI   PO4 8308   9.014  14.340  10.243 -0.3530  0.1334  0.0094
  520loPI   GL1 8309   8.990  14.530   9.827  0.0869  0.0071 -0.2221
  520loPI   GL2 8310   9.180  14.880   9.744  0.2271  0.2717 -0.1453
  520loPI   C1A 8311   8.765  14.275   9.529  0.0131 -0.1107  0.0008
  520loPI   C2A 8312   8.836  14.145   9.187 -0.0340 -0.3812  0.0277
  520loPI   C3A 8313   8.853  14.134   8.770 -0.2809 -0.0735  0.1594
  520loPI   C4A 8314   8.809  14.161   8.293 -0.3824  0.2890  0.2006
  520loPI   C5A 8315   8.644  14.282   7.989  0.2534 -0.4993  0.2257
  520loPI   C6A 8316   8.420  14.628   7.995 -0.0643  0.2922 -0.1383
  520loPI   C1B 8317   9.062  14.633   9.350 -0.0757 -0.3379  0.2997
  520loPI   C2B 8318   9.087  14.527   8.851 -0.0106 -0.1792 -0.1033
  520loPI   C3B 8319   9.146  14.537   8.506 -0.2592  0.1757 -0.1312
  520loPI   C4B 8320   9.294  14.372   8.135  0.0646 -0.0219 -0.0039
  521loPI    C1 8321   1.252   5.026  11.136  0.3184  0.2516 -0.2043
  521loPI    C2 8322   1.603   5.045  11.327  0.1800  0.1860  0.0616
  521loPI    C3 8323   1.290   5.255  11.462  0.0225 -0.0276  0.0325
  521loPI   PO4 8324   1.301   5.024  10.937  0.0711 -0.0954  0.5625
  521loPI   GL1 8325   1.546   4.912  10.495 -0.1609  0.1318 -0.1108
  521loPI   GL2 8326   1.260   5.111  10.398 -0.1805 -0.2513 -0.0416
  521loPI   C1A 8327   1.656   4.809  10.065 -0.0413 -0.1841  0.3009
  521loPI   C2A 8328   1.836   4.652   9.648  0.0868 -0.1477 -0.1864
  521loPI   C3A 8329   1.856   4.644   9.171 -0.1346  0.1619 -0.0262
  521loPI   C4A 8330   1.960   4.668   8.808  0.3112  0.1804  0.0320
  521loPI   C5A 8331   1.876   4.830   8.382  0.0056 -0.0183 -0.1552
  521loPI   C6A 8332   2.037   4.653   7.972  0.0956  0.3616 -0.1546
  521loPI   C1B 8333   1.237   5.153   9.948  0.3485 -0.0932  0.2182
  521loPI   C2B 8334   1.163   5.189   9.456  0.3047  0.1910 -0.3770
  521loPI   C3B 8335   1.171   5.211   9.027 -0.2053 -0.1381  0.0548
  521loPI   C4B 8336   1.091   5.197   8.569 -0.3086 -0.1683  0.3701
  522loPI    C1 8337   3.370  12.124  10.915 -0.0440 -0.0351  0.0469
  522loPI    C2 8338   3.189  11.902  11.194  0.0718  0.1246  0.2525
  522loPI    C3 8339   3.586  11.882  11.148  0.0224 -0.1248 -0.1069
  522loPI   PO4 8340   3.197  12.062  10.618  0.1959 -0.1457  0.0999
  522loPI   GL1 8341   3.383  12.111  10.145 -0.2134 -0.3144 -0.2084
  522loPI   GL2 8342   3.449  12.453  10.046  0.0959  0.1556  0.1377
  522loPI   C1A 8343   3.094  12.071   9.763 -0.1925  0.1326 -0.2158
  522loPI   C2A 8344   3.094  12.217   9.389 -0.4922 -0.2423  0.0087
  522loPI   C3A 8345   3.022  12.249   8.968 -0.3030 -0.1228 -0.0216
  522loPI   C4A 8346   3.387  12.576   8.778  0.2106  0.2597  0.3317
  522loPI   C5A 8347   3.796  12.651   8.845 -0.1905 -0.1462  0.1866
  522loPI   C6A 8348   4.294  12.688   8.714 -0.1919 -0.1996  0.1315
  522loPI   C1B 8349   3.529  12.352   9.582  0.1350 -0.0268  0.0997
  522loPI   C2B 8350   3.582  12.276   9.179 -0.0549  0.2406 -0.0078
  522loPI   C3B 8351   3.463  12.026   8.913  0.1354  0.0440 -0.0830
  522loPI   C4B 8352   3.293  11.673   8.893  0.2874 -0.0041  0.0496
  523loPI    C1 8353  13.888   3.768  10.648  0.0036 -0.1190  0.0494
  523loPI    C2 8354  14.191   4.006  10.755 -0.0505 -0.1461  0.2689
  523loPI    C3 8355  13.897   4.148  10.523  0.1957 -0.1578 -0.0583
  523loPI   PO4 8356  14.027   3.551  10.545 -0.4560  0.0902 -0.1745
  523loPI   GL1 8357  14.064   3.406  10.166 -0.1642  0.4154 -0.0999
  523loPI   GL2 8358  13.829   3.497  10.014 -0.0432 -0.1140  0.0363
  523loPI   C1A 8359  14.132   3.183   9.749  0.0883  0.2532  0.0329
  523loPI   C2A 8360  14.033   3.180   9.386 -0.2134  0.1096 -0.2494
  523loPI   C3A 8361  14.041   3.232   8.987  0.0721 -0.1206  0.1261
  523loPI   C4A 8362  13.971   3.160   8.507 -0.0111 -0.0123 -0.0140
  523loPI   C5A 8363  14.038   3.344   8.048  0.1526 -0.2335 -0.1467
  523loPI   C6A 8364  14.394   3.536   7.801  0.0493 -0.0854  0.0608
  523loPI   C1B 8365  13.690   3.544   9.609 -0.0043 -0.1614  0.0516
  523loPI   C2B 8366  13.648   3.582   9.219 -0.1023  0.1951 -0.0174
  523loPI   C3B 8367  13.685   3.548   8.722 -0.0464 -0.0497 -0.5471
  523loPI   C4B 8368  13.615   3.544   8.268 -0.0272 -0.1429 -0.2752
  524loPI    C1 8369   3.939  16.397  11.097 -0.2794  0.2219 -0.0893
  524loPI    C2 8370   3.688  16.141  11.274  0.2884 -0.1466  0.2153
  524loPI    C3 8371   3.637  16.535  11.320 -0.4046 -0.1993  0.0118
  524loPI   PO4 8372   3.953  16.311  10.836 -0.0961 -0.2130 -0.1913
  524loPI   GL1 8373   4.008  16.460  10.363 -0.2084 -0.0551 -0.1220
  524loPI   GL2 8374   3.794  16.253  10.358 -0.1790 -0.2319 -0.0073
  524loPI   C1A 8375   4.243  16.702  10.137  0.1852  0.2094 -0.1484
  524loPI   C2A 8376   4.148  16.813   9.722 -0.0715  0.1115 -0.0115
  524loPI   C3A 8377   4.138  16.806   9.304 -0.1437 -0.2737 -0.2337
  524loPI   C4A 8378   4.111  16.819   8.856 -0.2718  0.1180 -0.1326
  524loPI   C5A 8379   4.215  16.727   8.485 -0.0187 -0.0975  0.0332
  524loPI   C6A 8380   4.451  16.550   8.151 -0.1881 -0.2028  0.2739
  524loPI   C1B 8381   3.719  16.302  10.027 -0.2679  0.0309 -0.0354
  524loPI   C2B 8382   4.005  16.306   9.646  0.1477 -0.0424  0.0465
  524loPI   C3B 8383   3.928  16.361   9.253 -0.0621 -0.1888 -0.1579
  524loPI   C4B 8384   3.811  16.361   8.874  0.1314  0.0060 -0.4957
  525loPI    C1 8385  16.676   7.402  10.684 -0.1127  0.1282 -0.2166
  525loPI    C2 8386  16.498   7.322  11.033 -0.0907 -0.2349 -0.2849
  525loPI    C3 8387  16.831   7.543  11.024 -0.3042  0.1005 -0.1163
  525loPI   PO4 8388  16.781   7.089  10.627  0.1004  0.0554  0.0045
  525loPI   GL1 8389  17.138   7.174  10.324  0.3254 -0.1808  0.0936
  525loPI   GL2 8390  17.244   6.872  10.213  0.3645 -0.0077  0.0216
  525loPI   C1A 8391  17.124   7.265   9.861 -0.0180 -0.1367 -0.0093
  525loPI   C2A 8392  16.992   7.307   9.396  0.0847  0.0448 -0.3096
  525loPI   C3A 8393  16.922   7.441   8.969  0.1678 -0.0994 -0.0959
  525loPI   C4A 8394  16.783   7.366   8.423  0.0282 -0.0824  0.1680
  525loPI   C5A 8395  16.858   7.287   7.923 -0.0276  0.0802 -0.1504
  525loPI   C6A 8396  16.981   7.012   7.660  0.1722  0.1555  0.2867
  525loPI   C1B 8397  17.127   6.770   9.784  0.2731  0.1547  0.1795
  525loPI   C2B 8398  17.142   6.827   9.343 -0.0408 -0.0831 -0.5525
  525loPI   C3B 8399  17.118   6.901   8.936 -0.1347  0.4269  0.2781
  525loPI   C4B 8400  17.192   7.134   8.675  0.3121  0.2651  0.3406
  526loPI    C1 8401  13.558  14.880  11.013  0.0123  0.0326  0.0351
  526loPI    C2 8402  13.793  15.069  11.276 -0.0679  0.0799  0.0728
  526loPI    C3 8403  13.404  15.017  11.356 -0.1077  0.1568 -0.0672
  526loPI   PO4 8404  13.598  15.056  10.786  0.4480  0.2077 -0.0580
  526loPI   GL1 8405  13.524  15.165  10.286  0.2080 -0.1523  0.1900
  526loPI   GL2 8406  13.301  14.934  10.388 -0.0726  0.0205 -0.2189
  526loPI   C1A 8407  13.371  15.206   9.797 -0.1521 -0.1572  0.3512
  526loPI   C2A 8408  13.399  15.330   9.368  0.0268  0.1340 -0.1912
  526loPI   C3A 8409  13.517  15.217   8.927  0.1467 -0.1073 -0.1547
  526loPI   C4A 8410  13.472  15.267   8.509  0.0541  0.0677 -0.1734
  526loPI   C5A 8411  13.075  15.215   8.214  0.1293  0.1217 -0.1437
  526loPI   C6A 8412  12.796  15.431   8.086  0.2715 -0.0309  0.0653
  526loPI   C1B 8413  13.492  14.775   9.959 -0.1532  0.0792 -0.1702
  526loPI   C2B 8414  13.730  14.672   9.633 -0.1476 -0.0079 -0.0391
  526loPI   C3B 8415  13.737  14.768   9.224  0.0469  0.3352  0.2442
  526loPI   C4B 8416  13.766  14.823   8.747  0.4364 -0.1293 -0.2366
  527loPI    C1 8417  16.605  16.304  10.851 -0.2577  0.0420 -0.0873
  527loPI    C2 8418  16.636  16.441  11.225 -0.2842  0.0773 -0.0980
  527loPI    C3 8419  16.463  16.087  11.155 -0.1566  0.0079 -0.0640
  527loPI   PO4 8420  16.814  16.230  10.724 -0.1081 -0.0559 -0.1080
  527loPI   GL1 8421  17.017  16.154  10.278  0.0372 -0.0183  0.3266
  527loPI   GL2 8422  17.135  15.849  10.222 -0.0993 -0.1974 -0.2211
  527loPI   C1A 8423  17.021  16.194   9.829  0.0845 -0.5428  0.0188
  527loPI   C2A 8424  16.914  15.900   9.569  0.1576 -0.0881  0.0390
  527loPI   C3A 8425  16.849  15.815   9.161  0.1331 -0.2017 -0.1914
  527loPI   C4A 8426  16.779  15.919   8.777  0.1618  0.2477  0.0034
  527loPI   C5A 8427  16.580  16.144   8.395  0.0680 -0.0841 -0.2064
  527loPI   C6A 8428  16.778  16.039   8.034 -0.0751 -0.1754 -0.3984
  527loPI   C1B 8429  17.363  15.870   9.820 -0.2487  0.3668  0.0498
  527loPI   C2B 8430  17.418  15.920   9.485  0.3671 -0.0943 -0.0794
  527loPI   C3B 8431  17.331  15.699   9.241 -0.0112  0.1920 -0.2555
  527loPI   C4B 8432  17.245  15.722   8.819  0.3750  0.2140  0.2573
  528loPI    C1 8433  10.922  10.169  10.757  0.0997 -0.1254 -0.0383
  528loPI    C2 8434  10.940   9.848  10.995 -0.0299 -0.0261  0.1070
  528loPI    C3 8435  11.201  10.148  11.043  0.0368 -0.0710  0.0272
  528loPI   PO4 8436  10.825  10.134  10.590  0.1103 -0.1859 -0.0217
  528loPI   GL1 8437  10.812  10.212  10.126 -0.1294  0.0728  0.2826
  528loPI   GL2 8438  11.005   9.886  10.125  0.1996  0.0758  0.0804
  528loPI   C1A 8439  10.790  10.185   9.717 -0.0749  0.0347  0.0328
  528loPI   C2A 8440  10.632  10.259   9.205 -0.1172 -0.0056  0.2349
  528loPI   C3A 8441  10.499  10.210   8.856 -0.1196 -0.0305 -0.0651
  528loPI   C4A 8442  10.506  10.193   8.393  0.4851 -0.2817  0.1037
  528loPI   C5A 8443  10.252  10.098   8.130  0.0553 -0.2149 -0.0855
  528loPI   C6A 8444  10.139  10.196   7.807  0.2300  0.1562 -0.0503
  528loPI   C1B 8445  10.932   9.680   9.730 -0.1207  0.0851 -0.3498
  528loPI   C2B 8446  10.978   9.639   9.382  0.1316 -0.2044 -0.1779
  528loPI   C3B 8447  10.908   9.702   9.019  0.2178 -0.0971  0.0740
  528loPI   C4B 8448  10.840   9.851   8.615 -0.0864 -0.0485 -0.2423
  529loPI    C1 8449  11.276   9.137  10.807 -0.0021 -0.0402  0.0938
  529loPI    C2 8450  11.040   9.056  10.495 -0.2413  0.2580  0.1924
  529loPI    C3 8451  11.086   8.786  10.786  0.2293 -0.1507 -0.2414
  529loPI   PO4 8452  11.568   9.160  10.662 -0.3635 -0.0296 -0.1751
  529loPI   GL1 8453  11.749   9.155  10.237  0.3729  0.2811  0.0947
  529loPI   GL2 8454  11.417   8.960  10.230 -0.3515  0.1859  0.1349
  529loPI   C1A 8455  11.675   9.232   9.834  0.0892  0.1967  0.0016
  529loPI   C2A 8456  11.694   9.154   9.383 -0.1682  0.0122 -0.0816
  529loPI   C3A 8457  11.586   9.198   8.936 -0.2393 -0.0410 -0.2031
  529loPI   C4A 8458  11.573   9.286   8.543  0.0707 -0.0229  0.0264
  529loPI   C5A 8459  11.508   9.485   8.109 -0.1390  0.0193 -0.2401
  529loPI   C6A 8460  11.711   9.884   7.947 -0.2927  0.0784 -0.1338
  529loPI   C1B 8461  11.360   8.787   9.771 -0.0109  0.0729 -0.3240
  529loPI   C2B 8462  11.365   8.740   9.395  0.1409  0.2488 -0.0197
  529loPI   C3B 8463  10.926   8.817   9.172 -0.0863 -0.1073  0.1329
  529loPI   C4B 8464  10.772   8.912   8.815  0.0548 -0.1449 -0.1272
  530loPI    C1 8465   4.950   4.181  10.794  0.1137 -0.1344 -0.1558
  530loPI    C2 8466   4.680   4.460  10.696 -0.2385 -0.4152 -0.0046
  530loPI    C3 8467   4.890   4.495  11.034 -0.0700 -0.1884 -0.1299
  530loPI   PO4 8468   4.778   3.976  10.729 -0.0299  0.0185 -0.2252
  530loPI   GL1 8469   4.381   4.086  10.554 -0.2732 -0.2557  0.0361
  530loPI   GL2 8470   4.475   3.938  10.324  0.3523  0.3276  0.0180
  530loPI   C1A 8471   4.021   4.080  10.274 -0.0750 -0.0703  0.1952
  530loPI   C2A 8472   4.142   4.152   9.843  0.2416  0.0188  0.0259
  530loPI   C3A 8473   4.212   4.094   9.334 -0.1012  0.1196 -0.0044
  530loPI   C4A 8474   4.273   4.194   8.883  0.2036 -0.0398  0.2595
  530loPI   C5A 8475   4.389   4.228   8.433  0.0051  0.1236  0.2582
  530loPI   C6A 8476   4.814   4.210   8.261 -0.0883 -0.0622 -0.1531
  530loPI   C1B 8477   4.662   3.970   9.904 -0.3074  0.0034 -0.2253
  530loPI   C2B 8478   4.675   4.028   9.521  0.0389 -0.1191  0.2457
  530loPI   C3B 8479   4.777   4.068   9.146 -0.3715 -0.1932 -0.1541
  530loPI   C4B 8480   4.762   4.100   8.741 -0.0247 -0.1432  0.1941
  531loPI    C1 8481  10.634   7.033  10.865  0.0659  0.1044 -0.0760
  531loPI    C2 8482  10.899   7.175  11.129  0.0830 -0.0661 -0.0004
  531loPI    C3 8483  10.520   7.113  11.240  0.0694 -0.0550 -0.0403
  531loPI   PO4 8484  10.667   7.125  10.697  0.2492  0.0754 -0.4527
  531loPI   GL1 8485  10.701   7.245  10.264 -0.1738  0.0996 -0.2335
  531loPI   GL2 8486  10.905   7.136  10.065  0.3545  0.2969  0.4117
  531loPI   C1A 8487  10.485   7.355   9.893  0.1497 -0.2086  0.0681
  531loPI   C2A 8488  10.577   7.446   9.398 -0.0664 -0.0689  0.1108
  531loPI   C3A 8489  10.660   7.322   8.993  0.0587 -0.1378 -0.1372
  531loPI   C4A 8490  10.561   7.450   8.540 -0.1856  0.0232 -0.0738
  531loPI   C5A 8491  10.428   7.606   8.127  0.0096 -0.0477  0.0181
  531loPI   C6A 8492  10.128   7.953   7.837 -0.2420 -0.0430  0.0522
  531loPI   C1B 8493  10.903   7.036   9.572  0.0537 -0.0831  0.1074
  531loPI   C2B 8494  10.727   6.821   9.238 -0.1919  0.0389  0.1592
  531loPI   C3B 8495  10.725   6.950   8.694 -0.2859 -0.0375  0.0846
  531loPI   C4B 8496  10.711   6.820   8.253 -0.0444  0.0377 -0.3489
  532loPI    C1 8497  16.030   2.078  10.416 -0.0743  0.1878  0.1155
  532loPI    C2 8498  16.345   1.974  10.193 -0.1590 -0.1214  0.1364
  532loPI    C3 8499  16.343   1.895  10.585 -0.2381 -0.0673  0.1471
  532loPI   PO4 8500  15.772   1.941  10.304 -0.4237  0.0023 -0.0047
  532loPI   GL1 8501  15.685   1.807   9.857 -0.0096  0.1655 -0.1355
  532loPI   GL2 8502  15.945   1.640   9.922 -0.0046  0.0572  0.0050
  532loPI   C1A 8503  15.322   1.728   9.511  0.1419  0.0292  0.2138
  532loPI   C2A 8504  15.084   1.688   9.141 -0.2208  0.1024 -0.0060
  532loPI   C3A 8505  15.076   1.647   8.659  0.1254  0.2287  0.0880
  532loPI   C4A 8506  15.098   1.511   8.332 -0.1033  0.3601  0.0100
  532loPI   C5A 8507  14.978   1.660   8.001  0.0904 -0.1245 -0.0219
  532loPI   C6A 8508  14.898   1.677   7.591  0.1893  0.0452 -0.1303
  532loPI   C1B 8509  16.110   1.599   9.526  0.0683  0.3056 -0.2569
  532loPI   C2B 8510  16.424   1.694   9.103 -0.0403 -0.1793  0.0375
  532loPI   C3B 8511  16.598   2.035   8.813 -0.0636 -0.0168 -0.2382
  532loPI   C4B 8512  16.610   2.129   8.408 -0.0872 -0.1599 -0.1251
  533loPI    C1 8513  14.509   7.433  10.871 -0.0807 -0.1876  0.0731
  533loPI    C2 8514  14.743   7.315  11.174 -0.1014  0.0653  0.1908
  533loPI    C3 8515  14.346   7.274  11.200 -0.0868 -0.1630  0.0821
  533loPI   PO4 8516  14.457   7.707  10.713 -0.3331  0.1156  0.0235
  533loPI   GL1 8517  14.518   7.573  10.243  0.0700  0.0692  0.1559
  533loPI   GL2 8518  14.359   7.863  10.244  0.2236 -0.2408 -0.3173
  533loPI   C1A 8519  14.449   7.491   9.773  0.2137 -0.0976 -0.1554
  533loPI   C2A 8520  14.365   7.513   9.354 -0.1626  0.0306 -0.0274
  533loPI   C3A 8521  14.252   7.407   8.846  0.1723  0.1045  0.2055
  533loPI   C4A 8522  14.396   7.604   8.436 -0.0021  0.0468 -0.0845
  533loPI   C5A 8523  14.082   7.841   8.156 -0.1336  0.0217 -0.0799
  533loPI   C6A 8524  13.630   7.786   8.067 -0.4157 -0.2800 -0.3045
  533loPI   C1B 8525  14.233   7.999   9.774 -0.2609  0.0826  0.2932
  533loPI   C2B 8526  14.120   8.000   9.377  0.5224 -0.0743 -0.0049
  533loPI   C3B 8527  14.154   8.058   8.973 -0.0589  0.1642 -0.0029
  533loPI   C4B 8528  14.147   8.158   8.497  0.0804 -0.1274 -0.2326
  534loPI    C1 8529  12.587  13.377  10.738  0.0429  0.3047 -0.1381
  534loPI    C2 8530  12.466  13.033  10.574  0.1935  0.2343 -0.1034
  534loPI    C3 8531  12.209  13.336  10.616  0.0476  0.1099 -0.0909
  534loPI   PO4 8532  12.865  13.298  10.778  0.0570 -0.0640 -0.1458
  534loPI   GL1 8533  12.978  13.115  10.390  0.1144 -0.0390  0.0567
  534loPI   GL2 8534  12.770  13.416  10.256 -0.3229  0.0973 -0.0712
  534loPI   C1A 8535  13.299  13.439  10.150  0.3143 -0.2786 -0.0697
  534loPI   C2A 8536  13.304  13.458   9.740 -0.0071  0.1413 -0.1169
  534loPI   C3A 8537  13.354  13.434   9.294  0.0679 -0.1475 -0.1434
  534loPI   C4A 8538  13.273  13.479   8.973  0.2658 -0.1204  0.1423
  534loPI   C5A 8539  13.299  13.464   8.521  0.2073 -0.2043  0.1219
  534loPI   C6A 8540  13.146  13.400   8.147  0.0001  0.1687 -0.0486
  534loPI   C1B 8541  12.783  13.616   9.755 -0.0372  0.0742 -0.2210
  534loPI   C2B 8542  12.852  13.482   9.332 -0.2698 -0.0222 -0.1448
  534loPI   C3B 8543  12.751  13.514   8.920 -0.2991 -0.2098  0.0471
  534loPI   C4B 8544  12.774  13.496   8.495  0.3350 -0.0840 -0.4063
  535loPI    C1 8545  13.868  14.220  10.531 -0.0216 -0.0622  0.0032
  535loPI    C2 8546  13.727  14.186  10.904 -0.0675 -0.3113 -0.0352
  535loPI    C3 8547  13.605  14.487  10.671 -0.0715 -0.1793  0.1353
  535loPI   PO4 8548  14.116  14.167  10.541  0.1524 -0.1974  0.1097
  535loPI   GL1 8549  14.275  13.794  10.305 -0.1358 -0.0493  0.3033
  535loPI   GL2 8550  13.986  13.837  10.189 -0.0834  0.0022  0.1268
  535loPI   C1A 8551  14.514  13.766   9.998 -0.2198  0.0024  0.0426
  535loPI   C2A 8552  14.649  13.703   9.612  0.0548  0.2303 -0.0341
  535loPI   C3A 8553  14.614  13.793   9.116 -0.2260  0.1562  0.0536
  535loPI   C4A 8554  14.742  13.794   8.694 -0.1697 -0.0563  0.0451
  535loPI   C5A 8555  14.697  13.774   8.233 -0.0029 -0.0884  0.3107
  535loPI   C6A 8556  14.637  13.373   8.134 -0.0688  0.0709 -0.0744
  535loPI   C1B 8557  14.115  13.750   9.758  0.1911  0.0315  0.2495
  535loPI   C2B 8558  14.165  13.834   9.379 -0.0076  0.1974  0.0443
  535loPI   C3B 8559  14.166  13.866   8.933  0.1730  0.3104 -0.0033
  535loPI   C4B 8560  14.278  13.648   8.482  0.2304  0.0545  0.2898
  536loPI    C1 8561   0.353   4.555  10.645 -0.0156 -0.1975  0.2693
  536loPI    C2 8562   0.035   4.797  10.670  0.0363 -0.1161  0.1526
  536loPI    C3 8563   0.143   4.575  10.985 -0.1639 -0.1798  0.1779
  536loPI   PO4 8564   0.361   4.576  10.368  0.0265 -0.1003 -0.0751
  536loPI   GL1 8565   0.434   4.787   9.976  0.1172 -0.1813  0.1045
  536loPI   GL2 8566   0.703   4.708   9.905  0.0932 -0.0459 -0.0072
  536loPI   C1A 8567   0.288   4.883   9.550 -0.0034 -0.2769  0.3009
  536loPI   C2A 8568   0.426   4.844   9.171 -0.1334  0.1474  0.2547
  536loPI   C3A 8569   0.492   4.667   8.725 -0.0053  0.2921 -0.0849
  536loPI   C4A 8570   0.343   4.490   8.267 -0.1114  0.1704  0.0583
  536loPI   C5A 8571   0.095   4.156   8.070 -0.1198 -0.0010  0.5219
  536loPI   C6A 8572  -0.180   4.292   7.730  0.1437  0.0907 -0.3407
  536loPI   C1B 8573   0.829   4.767   9.500  0.2181  0.0099  0.2165
  536loPI   C2B 8574   0.954   4.769   9.095 -0.1481 -0.0020  0.2168
  536loPI   C3B 8575   0.961   4.700   8.677  0.0170 -0.1821  0.2344
  536loPI   C4B 8576   0.821   4.744   8.308 -0.2389 -0.0463 -0.0996
  537loPI    C1 8577   3.059  17.637  11.101  0.1974 -0.1719  0.1318
  537loPI    C2 8578   2.748  17.397  11.174 -0.0782  0.0390 -0.3027
  537loPI    C3 8579   2.735  17.780  11.289  0.2079 -0.0547  0.0621
  537loPI   PO4 8580   3.065  17.613  10.835  0.2418 -0.1572  0.1854
  537loPI   GL1 8581   2.896  17.635  10.463  0.2398  0.1301 -0.2471
  537loPI   GL2 8582   3.142  17.363  10.410 -0.1641 -0.0089 -0.0173
  537loPI   C1A 8583   3.131  17.777  10.020 -0.0826  0.1425 -0.1613
  537loPI   C2A 8584   3.164  17.668   9.578 -0.1063 -0.4427 -0.0548
  537loPI   C3A 8585   3.089  17.751   9.125  0.0255 -0.2501  0.4432
  537loPI   C4A 8586   3.121  17.683   8.726  0.1069  0.2761 -0.0883
  537loPI   C5A 8587   2.845  17.666   8.372  0.0892  0.1233  0.0538
  537loPI   C6A 8588   2.621  17.855   8.142  0.0495 -0.2990  0.3330
  537loPI   C1B 8589   3.273  17.223  10.015 -0.1274 -0.1376 -0.0760
  537loPI   C2B 8590   3.427  17.204   9.579 -0.3139  0.1695 -0.1802
  537loPI   C3B 8591   3.376  17.308   9.126 -0.3178  0.0769  0.1012
  537loPI   C4B 8592   3.377  17.249   8.682  0.1776 -0.1300  0.6282
  538loPI    C1 8593   4.689   1.289  11.046  0.1969  0.3688 -0.2112
  538loPI    C2 8594   4.869   1.107  11.353 -0.2302  0.2228 -0.0398
  538loPI    C3 8595   4.810   1.502  11.362 -0.2152  0.2232  0.0542
  538loPI   PO4 8596   4.626   1.049  10.897 -0.0168 -0.2936 -0.1803
  538loPI   GL1 8597   4.511   0.716  10.640  0.0171 -0.1773  0.0147
  538loPI   GL2 8598   4.774   0.804  10.558 -0.3699 -0.2125 -0.0802
  538loPI   C1A 8599   4.317   0.734  10.191 -0.0781 -0.1207  0.1760
  538loPI   C2A 8600   4.350   0.845   9.754 -0.2863  0.2494  0.1834
  538loPI   C3A 8601   4.492   0.929   9.420 -0.0986 -0.0717 -0.0149
  538loPI   C4A 8602   4.360   0.919   9.056 -0.1162 -0.0938 -0.1706
  538loPI   C5A 8603   4.461   0.939   8.634 -0.0112 -0.0272 -0.0031
  538loPI   C6A 8604   4.924   0.860   8.278  0.1491  0.0339 -0.1660
  538loPI   C1B 8605   4.875   0.905  10.154  0.3057  0.0050  0.4437
  538loPI   C2B 8606   4.887   0.885   9.675 -0.0692 -0.0207 -0.2531
  538loPI   C3B 8607   5.000   0.983   9.267 -0.0300 -0.0301  0.2199
  538loPI   C4B 8608   4.887   0.861   8.948  0.2030 -0.0311  0.1920
  539loPI    C1 8609  18.035   2.756   9.969  0.1446 -0.0553 -0.1113
  539loPI    C2 8610  18.036   2.915  10.336 -0.1185 -0.1158 -0.0823
  539loPI    C3 8611  18.337   2.992  10.084  0.0837 -0.1047  0.1578
  539loPI   PO4 8612  17.761   2.832   9.889  0.0901  0.0967 -0.4027
  539loPI   GL1 8613  17.685   2.834   9.500  0.1757  0.1833 -0.0906
  539loPI   GL2 8614  18.042   2.738   9.443 -0.0499  0.1552 -0.1254
  539loPI   C1A 8615  17.574   2.703   9.202  0.3936 -0.1373 -0.0397
  539loPI   C2A 8616  17.601   2.869   8.838 -0.3478  0.6007 -0.0801
  539loPI   C3A 8617  17.704   3.066   8.463 -0.1137  0.0974  0.1090
  539loPI   C4A 8618  18.015   3.116   8.207 -0.0111  0.2682  0.0592
  539loPI   C5A 8619  18.448   3.135   8.360  0.1082 -0.1413  0.0895
  539loPI   C6A 8620  18.655   2.845   8.598 -0.0819 -0.0733 -0.2481
  539loPI   C1B 8621  18.079   2.863   9.060  0.2872 -0.0282 -0.0398
  539loPI   C2B 8622  18.154   2.762   8.654  0.2441  0.0006  0.3073
  539loPI   C3B 8623  17.897   2.620   8.260  0.1695  0.2166  0.1554
  539loPI   C4B 8624  18.021   2.243   7.927 -0.0993 -0.0646 -0.0259
  540loPI    C1 8625   9.232   2.922  10.601 -0.1877 -0.1474  0.0160
  540loPI    C2 8626   8.852   3.043  10.639 -0.0634  0.2648 -0.0116
  540loPI    C3 8627   9.147   3.248  10.816  0.1491 -0.0572  0.0170
  540loPI   PO4 8628   9.172   2.617  10.667  0.1616 -0.1429  0.1189
  540loPI   GL1 8629   9.076   2.368  10.347 -0.1376 -0.0056 -0.0086
  540loPI   GL2 8630   9.082   2.670  10.155 -0.2371 -0.0878  0.0220
  540loPI   C1A 8631   9.317   2.278   9.925 -0.1116  0.0100  0.1612
  540loPI   C2A 8632   9.581   2.475   9.631 -0.2792 -0.0234 -0.1263
  540loPI   C3A 8633   9.865   2.226   9.495  0.1452  0.0688 -0.0822
  540loPI   C4A 8634  10.026   1.974   9.267  0.1511 -0.0509  0.2659
  540loPI   C5A 8635  10.140   1.985   8.818  0.1548  0.0627  0.0262
  540loPI   C6A 8636   9.981   1.731   8.479 -0.0808 -0.0266  0.0723
  540loPI   C1B 8637   9.055   2.660   9.766 -0.0810 -0.1293  0.1809
  540loPI   C2B 8638   9.092   2.500   9.362 -0.3362 -0.0440 -0.1046
  540loPI   C3B 8639   9.467   2.607   9.124 -0.0686  0.2144  0.1038
  540loPI   C4B 8640   9.742   2.375   8.945  0.1011 -0.0819 -0.0379
  541loPI    C1 8641  16.941  16.715  10.677  0.1909 -0.0061 -0.0740
  541loPI    C2 8642  16.854  16.882  11.030  0.1354  0.1261 -0.1497
  541loPI    C3 8643  17.088  16.559  11.015  0.0430  0.0498  0.0173
  541loPI   PO4 8644  17.075  16.905  10.499  0.0475  0.0168  0.0598
  541loPI   GL1 8645  17.323  16.750  10.185  0.1209  0.0136  0.3273
  541loPI   GL2 8646  17.635  16.771  10.209 -0.0118  0.0506 -0.0152
  541loPI   C1A 8647  17.113  16.747   9.776 -0.2880 -0.0185 -0.2766
  541loPI   C2A 8648  16.984  16.606   9.419  0.1027 -0.2874  0.1720
  541loPI   C3A 8649  17.064  16.323   9.125 -0.0787  0.2411  0.2731
  541loPI   C4A 8650  17.173  16.303   8.659  0.0086  0.0235  0.1109
  541loPI   C5A 8651  17.215  16.231   8.204  0.2595 -0.3532  0.0446
  541loPI   C6A 8652  17.484  16.257   7.824  0.1881 -0.3294 -0.1346
  541loPI   C1B 8653  17.654  16.866   9.789  0.3860 -0.0607  0.3226
  541loPI   C2B 8654  17.668  16.933   9.342  0.0563 -0.0090  0.3764
  541loPI   C3B 8655  17.598  17.161   8.907 -0.1867  0.0766 -0.1018
  541loPI   C4B 8656  17.515  17.595   8.839 -0.0850 -0.2869  0.0231
  542loPI    C1 8657   5.701  12.319  10.308  0.2827  0.1616 -0.0368
  542loPI    C2 8658   6.037  12.283  10.522  0.0234 -0.1241  0.3351
  542loPI    C3 8659   5.682  12.296  10.707 -0.1614  0.4446 -0.0348
  542loPI   PO4 8660   5.712  12.493  10.156 -0.0537  0.1576  0.0635
  542loPI   GL1 8661   5.988  12.505   9.769 -0.0085  0.1250  0.0104
  542loPI   GL2 8662   5.965  12.857   9.734 -0.0710  0.2208  0.0819
  542loPI   C1A 8663   5.807  12.491   9.377 -0.0425  0.2160  0.1694
  542loPI   C2A 8664   5.917  12.540   8.957 -0.0480 -0.1224  0.1189
  542loPI   C3A 8665   6.040  12.748   8.606 -0.3710 -0.1281  0.1053
  542loPI   C4A 8666   5.832  12.962   8.316  0.1068  0.2167  0.2677
  542loPI   C5A 8667   5.835  12.882   7.929 -0.0161 -0.0194  0.1594
  542loPI   C6A 8668   5.810  13.096   7.596  0.2118  0.3639 -0.0573
  542loPI   C1B 8669   6.050  12.964   9.298  0.0442 -0.0792 -0.2796
  542loPI   C2B 8670   6.353  13.128   8.895  0.0461  0.2254  0.0293
  542loPI   C3B 8671   6.319  13.122   8.413 -0.0800 -0.0746 -0.3642
  542loPI   C4B 8672   6.099  13.309   8.018 -0.2624  0.0278  0.1729
  543loPI    C1 8673   4.769   7.811  10.780  0.0173  0.1379  0.0397
  543loPI    C2 8674   4.851   8.151  10.973  0.2872  0.1387 -0.0724
  543loPI    C3 8675   4.909   7.799  11.154  0.3584  0.1443 -0.0839
  543loPI   PO4 8676   4.826   7.899  10.545 -0.1578 -0.0882  0.0449
  543loPI   GL1 8677   5.112   7.715  10.292  0.0705 -0.0066 -0.0147
  543loPI   GL2 8678   5.358   8.003  10.252 -0.0271 -0.0294  0.0627
  543loPI   C1A 8679   4.825   7.775   9.904 -0.0619  0.0473  0.1497
  543loPI   C2A 8680   4.854   7.783   9.487 -0.0852 -0.0055 -0.1009
  543loPI   C3A 8681   4.808   7.705   9.137 -0.4596 -0.1996  0.0083
  543loPI   C4A 8682   4.803   7.727   8.749 -0.0581 -0.0927  0.0333
  543loPI   C5A 8683   4.691   7.729   8.296 -0.1886 -0.0247  0.0352
  543loPI   C6A 8684   4.486   7.470   8.046  0.3058  0.2504 -0.0056
  543loPI   C1B 8685   5.240   8.080   9.798  0.0810  0.0672 -0.1393
  543loPI   C2B 8686   5.191   8.163   9.434 -0.0020 -0.1535 -0.1486
  543loPI   C3B 8687   5.148   8.149   9.002  0.0286  0.3047 -0.1511
  543loPI   C4B 8688   5.031   8.285   8.620 -0.4067 -0.1426 -0.0343
  544loPI    C1 8689   4.439   2.045  10.785 -0.1296  0.2384 -0.0639
  544loPI    C2 8690   4.433   1.646  10.814  0.1402  0.2304 -0.0921
  544loPI    C3 8691   4.687   1.859  11.037 -0.0004  0.3875 -0.0795
  544loPI   PO4 8692   4.208   2.021  10.540  0.0993 -0.0647  0.2082
  544loPI   GL1 8693   4.031   2.048  10.174 -0.0375  0.1575 -0.1427
  544loPI   GL2 8694   3.920   1.765  10.037  0.1659 -0.1072  0.2074
  544loPI   C1A 8695   3.826   2.249   9.851 -0.1011 -0.1108 -0.0663
  544loPI   C2A 8696   3.720   2.339   9.437 -0.2780  0.0504 -0.1792
  544loPI   C3A 8697   3.679   2.328   8.946  0.0841 -0.0414  0.0860
  544loPI   C4A 8698   3.560   2.311   8.521  0.0952  0.0490  0.1982
  544loPI   C5A 8699   3.828   2.265   8.155 -0.0409  0.1234  0.1750
  544loPI   C6A 8700   3.739   1.944   7.841  0.3363 -0.0592 -0.0681
  544loPI   C1B 8701   3.970   1.796   9.664  0.0949 -0.0539 -0.1301
  544loPI   C2B 8702   3.957   1.949   9.251  0.0432  0.1998 -0.0399
  544loPI   C3B 8703   3.855   1.887   8.806  0.3365  0.2287 -0.1572
  544loPI   C4B 8704   3.987   1.886   8.418  0.0299  0.2394  0.0305
  545loPI    C1 8705  16.311   8.405  10.849  0.1190 -0.1186  0.2667
  545loPI    C2 8706  16.095   8.607  11.119 -0.1218 -0.0049 -0.0047
  545loPI    C3 8707  16.289   8.274  11.226 -0.3343 -0.0431  0.2728
  545loPI   PO4 8708  16.124   8.393  10.660  0.0065 -0.0586  0.0060
  545loPI   GL1 8709  16.422   8.326  10.283  0.0115  0.1708 -0.1148
  545loPI   GL2 8710  16.323   8.611  10.169  0.3645 -0.2038 -0.0683
  545loPI   C1A 8711  16.536   8.312   9.795 -0.3756  0.2214 -0.3321
  545loPI   C2A 8712  16.458   8.224   9.340 -0.2184  0.2034 -0.3213
  545loPI   C3A 8713  16.543   8.204   8.892 -0.1361 -0.1987  0.2858
  545loPI   C4A 8714  16.538   8.282   8.451  0.2375 -0.1064 -0.1756
  545loPI   C5A 8715  16.658   8.642   8.106 -0.0700  0.0197 -0.0741
  545loPI   C6A 8716  16.802   9.092   8.068  0.0029  0.0525 -0.1542
  545loPI   C1B 8717  16.331   8.760   9.754  0.2014  0.3917  0.2973
  545loPI   C2B 8718  16.360   8.738   9.335  0.0315 -0.0083 -0.2785
  545loPI   C3B 8719  16.407   8.658   8.794 -0.0059 -0.1869 -0.0776
  545loPI   C4B 8720  16.622   8.878   8.508 -0.4200  0.0537 -0.3733
  546loPI    C1 8721   7.526  11.552  10.781 -0.1293 -0.0079 -0.1115
  546loPI    C2 8722   7.221  11.422  11.006 -0.0157 -0.1224 -0.0220
  546loPI    C3 8723   7.512  11.170  10.899 -0.0528 -0.0614 -0.2730
  546loPI   PO4 8724   7.393  11.669  10.495 -0.5442  0.0874 -0.2875
  546loPI   GL1 8725   7.171  11.545  10.117  0.0182 -0.0541 -0.0529
  546loPI   GL2 8726   6.839  11.351   9.972  0.1453  0.0740 -0.0270
  546loPI   C1A 8727   7.138  11.617   9.672 -0.0287 -0.1949  0.1268
  546loPI   C2A 8728   6.909  11.694   9.299  0.3696  0.0513  0.2373
  546loPI   C3A 8729   6.978  11.662   8.882  0.1160 -0.0684  0.0210
  546loPI   C4A 8730   6.910  11.728   8.544  0.0362  0.0228  0.2733
  546loPI   C5A 8731   6.962  11.832   8.067  0.1549 -0.2588 -0.1296
  546loPI   C6A 8732   6.684  11.929   7.640 -0.1247 -0.0176  0.0012
  546loPI   C1B 8733   6.756  11.316   9.535  0.0547  0.1189 -0.0463
  546loPI   C2B 8734   6.714  11.196   9.142 -0.4282  0.2158 -0.0455
  546loPI   C3B 8735   6.670  11.298   8.742 -0.0355  0.0102 -0.0369
  546loPI   C4B 8736   6.535  11.243   8.308 -0.3895 -0.1270  0.0268
  547loPI    C1 8737  15.939   4.268  10.583 -0.5557 -0.2378 -0.0271
  547loPI    C2 8738  16.254   4.046  10.688 -0.2110  0.3364  0.2020
  547loPI    C3 8739  15.886   3.939  10.803 -0.1017 -0.2995 -0.0013
  547loPI   PO4 8740  15.964   4.324  10.341 -0.0619 -0.0270  0.1661
  547loPI   GL1 8741  15.598   4.398  10.079  0.2132 -0.0141  0.0779
  547loPI   GL2 8742  15.694   4.696  10.020  0.2665  0.0317 -0.0348
  547loPI   C1A 8743  15.351   4.382   9.706  0.0009 -0.0209  0.1659
  547loPI   C2A 8744  15.314   4.367   9.383 -0.0307 -0.0009  0.1966
  547loPI   C3A 8745  15.150   4.193   9.039  0.0580  0.1750 -0.0781
  547loPI   C4A 8746  15.161   4.036   8.596 -0.0579 -0.0118  0.1374
  547loPI   C5A 8747  15.066   3.996   8.124  0.1480  0.0899 -0.1943
  547loPI   C6A 8748  14.907   4.105   7.721  0.3505  0.0844 -0.0892
  547loPI   C1B 8749  15.808   4.560   9.655 -0.2334  0.0730  0.1206
  547loPI   C2B 8750  15.901   4.548   9.238  0.2565 -0.1556 -0.1316
  547loPI   C3B 8751  15.835   4.642   8.904 -0.0901 -0.3126  0.1267
  547loPI   C4B 8752  15.731   4.824   8.503  0.0434  0.2464  0.3667
  548loPI    C1 8753  15.488   4.545  10.572  0.0370 -0.1284  0.0505
  548loPI    C2 8754  15.611   4.855  10.792 -0.1019  0.0307 -0.0934
  548loPI    C3 8755  15.652   4.483  10.931 -0.1352  0.1260  0.1764
  548loPI   PO4 8756  15.349   4.669  10.427 -0.1563 -0.0210  0.2959
  548loPI   GL1 8757  15.103   4.760  10.053 -0.0539  0.0975  0.1090
  548loPI   GL2 8758  14.960   4.880   9.880 -0.1117  0.0418  0.3894
  548loPI   C1A 8759  14.863   4.382   9.752 -0.0339 -0.1011 -0.0466
  548loPI   C2A 8760  14.710   4.336   9.296 -0.0088 -0.0488 -0.0292
  548loPI   C3A 8761  14.707   4.317   8.851 -0.3143  0.2867  0.0418
  548loPI   C4A 8762  14.779   4.279   8.386 -0.2177  0.0814  0.0042
  548loPI   C5A 8763  14.929   4.543   8.008  0.1536 -0.1474 -0.2312
  548loPI   C6A 8764  14.911   4.940   7.667 -0.0845  0.0144 -0.0331
  548loPI   C1B 8765  14.922   4.790   9.494 -0.1442  0.1176  0.1428
  548loPI   C2B 8766  14.914   4.737   9.080  0.0177 -0.3227 -0.2717
  548loPI   C3B 8767  14.889   4.910   8.689 -0.0435 -0.0557 -0.2073
  548loPI   C4B 8768  14.962   5.025   8.216 -0.1947 -0.0789 -0.0594
  549loPI    C1 8769  14.818  16.250  10.899 -0.0605 -0.0665  0.1060
  549loPI    C2 8770  15.118  16.214  11.162 -0.1193  0.0597  0.1912
  549loPI    C3 8771  14.750  16.088  11.258 -0.1383  0.0951  0.1651
  549loPI   PO4 8772  15.046  16.201  10.685  0.1241 -0.2869 -0.3396
  549loPI   GL1 8773  15.186  16.430  10.385 -0.1595 -0.2043  0.0589
  549loPI   GL2 8774  15.380  16.166  10.319  0.0144 -0.2238 -0.3402
  549loPI   C1A 8775  15.095  16.624  10.067 -0.0217 -0.0858 -0.1753
  549loPI   C2A 8776  15.216  16.724   9.693 -0.2734  0.1072  0.0710
  549loPI   C3A 8777  15.211  16.840   9.278  0.1261 -0.0853  0.2598
  549loPI   C4A 8778  15.266  16.884   8.759  0.0403  0.1842 -0.1137
  549loPI   C5A 8779  15.141  16.900   8.327 -0.0242 -0.0173  0.0266
  549loPI   C6A 8780  15.133  17.138   7.911 -0.0202  0.3115 -0.1105
  549loPI   C1B 8781  15.365  16.248   9.906  0.1440 -0.0847  0.3222
  549loPI   C2B 8782  15.433  16.274   9.412 -0.0049 -0.2709  0.0382
  549loPI   C3B 8783  15.482  16.385   8.979 -0.1294 -0.0149 -0.2196
  549loPI   C4B 8784  15.851  16.367   8.588  0.0240  0.0088 -0.2994
  550loPI    C1 8785  10.526  16.773  10.796  0.4126  0.0911 -0.0979
  550loPI    C2 8786  10.641  16.397  10.724  0.0405 -0.0336 -0.0602
  550loPI    C3 8787  10.664  16.546  11.095  0.1817 -0.0203 -0.0739
  550loPI   PO4 8788  10.521  16.907  10.482 -0.1713  0.1463 -0.1332
  550loPI   GL1 8789  10.432  16.945  10.091 -0.0202 -0.0414  0.0207
  550loPI   GL2 8790  10.786  16.956  10.001 -0.3751 -0.1524  0.4995
  550loPI   C1A 8791  10.143  16.905   9.796 -0.1505 -0.1815 -0.3063
  550loPI   C2A 8792   9.989  16.951   9.502 -0.1305 -0.0508 -0.2641
  550loPI   C3A 8793   9.799  17.203   9.188 -0.0456  0.1186  0.2809
  550loPI   C4A 8794   9.640  17.233   8.790  0.1040 -0.0391 -0.1808
  550loPI   C5A 8795   9.812  17.425   8.437  0.0593 -0.1458  0.1395
  550loPI   C6A 8796  10.086  17.519   8.111  0.0323 -0.1797  0.2045
  550loPI   C1B 8797  10.738  16.916   9.587 -0.1579  0.1549  0.3480
  550loPI   C2B 8798  10.859  16.673   9.299  0.1448  0.1365  0.2147
  550loPI   C3B 8799  10.802  16.580   8.941 -0.0342  0.2090  0.0081
  550loPI   C4B 8800  11.020  16.444   8.584 -0.2951 -0.0516  0.0984
  551loPI    C1 8801  10.389  11.934  10.437  0.0117 -0.1631  0.0916
  551loPI    C2 8802  10.220  11.728  10.735  0.0309 -0.2081  0.0715
  551loPI    C3 8803  10.592  11.868  10.775 -0.0539 -0.0056  0.1626
  551loPI   PO4 8804  10.234  12.140  10.332 -0.0253 -0.0929  0.1126
  551loPI   GL1 8805  10.142  12.450   9.994  0.1763  0.2889  0.3238
  551loPI   GL2 8806  10.103  12.244   9.813 -0.0918 -0.1633  0.0601
  551loPI   C1A 8807  10.382  12.679   9.689  0.1869  0.1197 -0.1669
  551loPI   C2A 8808  10.612  12.571   9.289 -0.1036  0.2406  0.2082
  551loPI   C3A 8809  10.503  12.319   9.001 -0.0265 -0.3471  0.2075
  551loPI   C4A 8810  10.305  12.132   8.672  0.1651 -0.1686  0.2530
  551loPI   C5A 8811  10.415  11.833   8.466  0.2165  0.1702  0.2226
  551loPI   C6A 8812  10.362  11.794   8.008 -0.1644  0.0375 -0.3244
  551loPI   C1B 8813  10.086  12.295   9.375  0.0031 -0.3245 -0.2562
  551loPI   C2B 8814   9.911  12.185   8.994 -0.0337  0.0125 -0.0696
  551loPI   C3B 8815   9.771  12.112   8.551 -0.0064 -0.0491  0.1301
  551loPI   C4B 8816   9.719  12.081   8.072 -0.1016 -0.0599  0.0155
  552loPI    C1 8817   7.300  13.707  10.684  0.1432  0.1058  0.2921
  552loPI    C2 8818   7.518  13.618  11.007  0.2016 -0.4853  0.1010
  552loPI    C3 8819   7.338  13.326  10.801 -0.4981 -0.0445  0.0548
  552loPI   PO4 8820   7.405  13.886  10.616  0.1781  0.2092 -0.2341
  552loPI   GL1 8821   7.408  14.084  10.407 -0.5887 -0.3656 -0.2884
  552loPI   GL2 8822   7.610  13.993  10.162 -0.1321 -0.3613  0.0552
  552loPI   C1A 8823   7.149  14.157  10.016  0.0320  0.2670  0.1718
  552loPI   C2A 8824   7.199  14.349   9.548 -0.1403  0.3791  0.0983
  552loPI   C3A 8825   7.225  14.393   9.137  0.2351 -0.2597 -0.0304
  552loPI   C4A 8826   7.163  14.439   8.764 -0.0509  0.0236 -0.0598
  552loPI   C5A 8827   7.197  14.518   8.338 -0.3729 -0.0867 -0.1975
  552loPI   C6A 8828   7.437  14.498   8.016  0.0089  0.1526  0.0541
  552loPI   C1B 8829   7.634  14.366   9.925  0.0479  0.0992  0.2417
  552loPI   C2B 8830   7.761  14.347   9.412  0.0443 -0.4864  0.0077
  552loPI   C3B 8831   7.693  14.351   8.978 -0.2107 -0.2107 -0.0304
  552loPI   C4B 8832   7.671  14.423   8.569  0.3173  0.0228  0.2164
  553loPI    C1 8833  16.916   7.950  10.693  0.0120 -0.1052 -0.0767
  553loPI    C2 8834  16.530   7.981  10.594  0.0320  0.0027 -0.1213
  553loPI    C3 8835  16.647   8.060  10.968 -0.0140 -0.2060 -0.0616
  553loPI   PO4 8836  17.037   7.715  10.540 -0.3052  0.4137 -0.1254
  553loPI   GL1 8837  17.211   7.678  10.107  0.2794  0.1194 -0.1307
  553loPI   GL2 8838  17.526   7.552  10.126 -0.0543  0.0154  0.4567
  553loPI   C1A 8839  17.172   7.724   9.639 -0.4142 -0.0749 -0.2253
  553loPI   C2A 8840  17.262   7.746   9.181 -0.0378 -0.0910  0.1731
  553loPI   C3A 8841  17.305   7.709   8.719  0.1981  0.1428 -0.0881
  553loPI   C4A 8842  17.379   7.960   8.337 -0.0146  0.0522 -0.2302
  553loPI   C5A 8843  17.566   8.332   8.320  0.3537 -0.2435  0.0473
  553loPI   C6A 8844  17.552   8.678   8.444  0.2420  0.0952  0.0976
  553loPI   C1B 8845  17.565   7.326   9.769 -0.0383 -0.1506 -0.1347
  553loPI   C2B 8846  17.478   7.317   9.343 -0.1245  0.0120  0.1029
  553loPI   C3B 8847  17.529   7.357   9.019  0.3816  0.3294 -0.2216
  553loPI   C4B 8848  17.649   7.395   8.545  0.0260 -0.2284 -0.1588
  554loPI    C1 8849   2.335   1.531  10.843 -0.0936  0.0393 -0.0307
  554loPI    C2 8850   2.510   1.306  11.124 -0.0985  0.1053  0.0254
  554loPI    C3 8851   2.239   1.581  11.228 -0.1472  0.0861 -0.0500
  554loPI   PO4 8852   2.260   1.326  10.588 -0.1463  0.0241 -0.0469
  554loPI   GL1 8853   2.281   1.125  10.215  0.0330  0.0879  0.1827
  554loPI   GL2 8854   2.654   1.002  10.205 -0.0334  0.2326 -0.1338
  554loPI   C1A 8855   2.415   1.001   9.745 -0.3438 -0.2175  0.2261
  554loPI   C2A 8856   2.373   1.040   9.332 -0.0030 -0.2578 -0.1262
  554loPI   C3A 8857   2.420   1.074   8.876  0.0607 -0.0242  0.2250
  554loPI   C4A 8858   2.437   0.893   8.464 -0.0344  0.0445  0.1241
  554loPI   C5A 8859   2.166   0.701   8.144  0.1735 -0.0415 -0.4064
  554loPI   C6A 8860   1.684   0.533   8.210 -0.0305  0.3991  0.0833
  554loPI   C1B 8861   2.919   0.987   9.883 -0.2321 -0.0137  0.5614
  554loPI   C2B 8862   2.915   0.990   9.466 -0.0895 -0.0300  0.2873
  554loPI   C3B 8863   2.865   0.995   9.046 -0.0170  0.1309  0.1133
  554loPI   C4B 8864   2.860   0.968   8.639 -0.2100  0.0654 -0.2546
  555loPI    C1 8865   0.856   5.247  10.821 -0.0120  0.0064 -0.0784
  555loPI    C2 8866   1.040   5.500  11.070 -0.1499 -0.1182  0.1539
  555loPI    C3 8867   0.832   5.191  11.217 -0.2004 -0.2162 -0.1188
  555loPI   PO4 8868   0.690   5.417  10.642 -0.0145  0.2941 -0.3564
  555loPI   GL1 8869   0.781   5.441  10.268 -0.1427  0.0371 -0.1230
  555loPI   GL2 8870   0.733   5.209  10.192 -0.0115  0.2471  0.0601
  555loPI   C1A 8871   0.930   5.679  10.032  0.1030  0.1466  0.1254
  555loPI   C2A 8872   0.942   5.614   9.612  0.0251 -0.2666  0.0378
  555loPI   C3A 8873   0.885   5.655   9.106 -0.1939  0.0706  0.0218
  555loPI   C4A 8874   0.856   5.667   8.683 -0.2495 -0.2674  0.2803
  555loPI   C5A 8875   0.999   5.587   8.197 -0.1154  0.1295  0.2227
  555loPI   C6A 8876   1.199   5.108   8.066  0.0100  0.1205  0.2145
  555loPI   C1B 8877   0.669   5.200   9.734 -0.0705 -0.0901 -0.0091
  555loPI   C2B 8878   0.638   5.247   9.307 -0.1265 -0.0832 -0.3158
  555loPI   C3B 8879   0.618   5.248   8.868  0.0043  0.1481 -0.1651
  555loPI   C4B 8880   0.598   5.369   8.405  0.2317  0.1790  0.0864
  556loPI    C1 8881  16.873  10.637  11.026  0.1953 -0.0443  0.0613
  556loPI    C2 8882  16.591  10.721  11.297  0.0178 -0.3748 -0.0145
  556loPI    C3 8883  16.841  10.415  11.358  0.1236 -0.3098 -0.1194
  556loPI   PO4 8884  16.794  10.524  10.824 -0.3527 -0.0004 -0.0115
  556loPI   GL1 8885  16.440  10.357  10.620  0.0006 -0.4107  0.0094
  556loPI   GL2 8886  16.581  10.094  10.699 -0.2169  0.1196  0.0631
  556loPI   C1A 8887  16.188  10.060  10.298 -0.0594 -0.0146 -0.0105
  556loPI   C2A 8888  16.246  10.034   9.818 -0.0295  0.3211  0.0070
  556loPI   C3A 8889  16.266  10.102   9.390 -0.0171  0.3602  0.2856
  556loPI   C4A 8890  16.220  10.037   8.942  0.0157 -0.1178  0.3208
  556loPI   C5A 8891  16.459   9.967   8.561  0.0025 -0.0993  0.1359
  556loPI   C6A 8892  16.862  10.216   8.466  0.3187  0.3267  0.3466
  556loPI   C1B 8893  16.712  10.007  10.330  0.0691  0.0795 -0.0382
  556loPI   C2B 8894  16.749   9.963   9.849  0.0408  0.0796 -0.0804
  556loPI   C3B 8895  16.805   9.947   9.427 -0.0333 -0.0349 -0.1131
  556loPI   C4B 8896  16.765   9.983   8.994 -0.0145  0.2196 -0.1460
  557loPI    C1 8897  15.592   2.496  10.498 -0.0794 -0.0456 -0.1009
  557loPI    C2 8898  15.383   2.472  10.838  0.1272  0.0382  0.0337
  557loPI    C3 8899  15.749   2.311  10.815 -0.0020 -0.2269 -0.2431
  557loPI   PO4 8900  15.517   2.411  10.273  0.2113 -0.0513 -0.1493
  557loPI   GL1 8901  15.643   2.294   9.996  0.0650  0.1846  0.1561
  557loPI   GL2 8902  15.963   2.229   9.932  0.0741  0.0172 -0.0342
  557loPI   C1A 8903  15.512   2.216   9.597  0.0058 -0.2298 -0.0831
  557loPI   C2A 8904  15.344   2.152   9.204  0.1484 -0.1193 -0.2018
  557loPI   C3A 8905  15.128   2.270   8.839  0.4003  0.1050  0.1489
  557loPI   C4A 8906  15.088   2.081   8.418  0.2862  0.2745  0.0587
  557loPI   C5A 8907  15.209   2.279   7.905 -0.0355  0.3612  0.0131
  557loPI   C6A 8908  14.984   2.583   7.723 -0.1656  0.0914 -0.1919
  557loPI   C1B 8909  16.003   2.082   9.598 -0.5681  0.2136  0.0567
  557loPI   C2B 8910  15.780   1.922   9.216 -0.0447  0.0382 -0.0268
  557loPI   C3B 8911  15.587   1.897   8.831  0.2673  0.3404 -0.2025
  557loPI   C4B 8912  15.511   1.815   8.311 -0.1299  0.0605 -0.0376
  558loPI    C1 8913  12.084   4.726  10.734  0.1803  0.1833 -0.1064
  558loPI    C2 8914  12.174   4.801  11.116 -0.1524  0.0655 -0.0014
  558loPI    C3 8915  11.797   4.838  10.989 -0.0448  0.0977 -0.3184
  558loPI   PO4 8916  12.358   4.887  10.549  0.0835  0.2087 -0.1185
  558loPI   GL1 8917  12.325   5.198  10.254 -0.0572  0.0872 -0.3284
  558loPI   GL2 8918  12.719   5.250  10.164 -0.2688 -0.2614  0.1651
  558loPI   C1A 8919  12.219   5.050   9.802  0.1436  0.1368  0.1300
  558loPI   C2A 8920  12.232   4.991   9.346 -0.1033 -0.1276  0.2662
  558loPI   C3A 8921  12.197   4.978   8.905 -0.1890 -0.1697 -0.0345
  558loPI   C4A 8922  12.148   5.071   8.403 -0.0508  0.0384 -0.0309
  558loPI   C5A 8923  12.156   5.266   7.991  0.2873  0.3165 -0.1181
  558loPI   C6A 8924  11.857   5.293   7.697  0.2866  0.0734  0.1641
  558loPI   C1B 8925  12.737   4.999   9.800  0.0557  0.1242  0.0583
  558loPI   C2B 8926  12.716   5.070   9.379 -0.1484  0.0816 -0.1419
  558loPI   C3B 8927  12.688   5.095   8.985 -0.0288  0.1344 -0.1085
  558loPI   C4B 8928  12.640   5.243   8.621  0.3217  0.3654 -0.2296
  559loPI    C1 8929   0.379  10.462  10.653  0.0043 -0.0975 -0.2037
  559loPI    C2 8930  -0.016  10.409  10.627  0.0296 -0.3954 -0.0316
  559loPI    C3 8931   0.156  10.456  10.985  0.1265 -0.0503 -0.1200
  559loPI   PO4 8932   0.468  10.267  10.527  0.2431 -0.0820  0.1502
  559loPI   GL1 8933   0.763  10.303  10.296  0.0447  0.0203 -0.0527
  559loPI   GL2 8934   0.722  10.696  10.437  0.0429 -0.2307  0.0403
  559loPI   C1A 8935   0.676  10.166   9.849  0.0043  0.1556  0.0890
  559loPI   C2A 8936   0.526  10.160   9.358  0.2773 -0.1601  0.1510
  559loPI   C3A 8937   0.442  10.107   8.975 -0.1709 -0.3054 -0.1542
  559loPI   C4A 8938   0.625  10.190   8.610  0.1384 -0.2655  0.1946
  559loPI   C5A 8939   0.732  10.445   8.333 -0.1644  0.1510 -0.1495
  559loPI   C6A 8940   0.924  10.415   8.054 -0.1205 -0.2267  0.0938
  559loPI   C1B 8941   0.833  10.662   9.984 -0.0836 -0.0127 -0.1905
  559loPI   C2B 8942   0.806  10.600   9.564  0.2125 -0.2619  0.0573
  559loPI   C3B 8943   0.770  10.554   9.102 -0.0562  0.2357 -0.1820
  559loPI   C4B 8944   0.874  10.691   8.775 -0.1117 -0.1138  0.3077
  560loPI    C1 8945  12.716  11.797  11.246 -0.1780 -0.1407 -0.2364
  560loPI    C2 8946  12.341  11.657  11.226 -0.1604 -0.2278  0.0125
  560loPI    C3 8947  12.515  11.715  11.582  0.0123 -0.0495 -0.0988
  560loPI   PO4 8948  12.785  11.673  10.970  0.0990 -0.2416 -0.0231
  560loPI   GL1 8949  12.690  11.610  10.484 -0.0372 -0.2997 -0.1045
  560loPI   GL2 8950  12.892  11.577  10.333  0.2642  0.2014 -0.3587
  560loPI   C1A 8951  12.466  11.299  10.186  0.2901  0.1354 -0.3648
  560loPI   C2A 8952  12.261  11.032   9.875 -0.0396 -0.1201 -0.0649
  560loPI   C3A 8953  12.374  10.824   9.547  0.1949 -0.0401 -0.1629
  560loPI   C4A 8954  12.444  10.913   9.154 -0.1811  0.1927  0.0144
  560loPI   C5A 8955  12.407  10.954   8.821 -0.0760 -0.2899 -0.0253
  560loPI   C6A 8956  12.404  11.349   8.656  0.1027  0.1463  0.3089
  560loPI   C1B 8957  13.033  11.669   9.933 -0.0669  0.2526  0.0643
  560loPI   C2B 8958  12.901  11.847   9.579  0.1275  0.4165  0.1590
  560loPI   C3B 8959  12.948  12.209   9.240 -0.0166  0.0287  0.0143
  560loPI   C4B 8960  12.756  12.620   9.293  0.1794  0.2850  0.0394
  561loPI    C1 8961   7.637  13.045  10.410  0.1389  0.3047  0.0521
  561loPI    C2 8962   7.810  12.709  10.540 -0.0990  0.1651  0.0133
  561loPI    C3 8963   7.488  12.854  10.728  0.0625  0.4293  0.0919
  561loPI   PO4 8964   7.591  13.032  10.109  0.1214  0.2674 -0.4555
  561loPI   GL1 8965   7.827  13.136   9.713  0.1749 -0.2648 -0.1932
  561loPI   GL2 8966   7.580  12.978   9.574  0.3122 -0.0751 -0.1289
  561loPI   C1A 8967   7.719  13.411   9.432  0.1433  0.2203  0.0649
  561loPI   C2A 8968   7.621  13.413   9.046 -0.1112  0.1415  0.3116
  561loPI   C3A 8969   7.579  13.565   8.664  0.0715 -0.1122  0.1494
  561loPI   C4A 8970   7.587  13.573   8.220  0.2193  0.1577  0.4786
  561loPI   C5A 8971   7.442  13.691   7.854  0.2532  0.0276  0.1527
  561loPI   C6A 8972   7.721  13.737   7.548 -0.1183 -0.2889  0.0678
  561loPI   C1B 8973   7.332  13.024   9.309 -0.1784  0.3211 -0.0602
  561loPI   C2B 8974   7.299  13.028   8.866 -0.2016  0.0598  0.5026
  561loPI   C3B 8975   7.372  13.136   8.550 -0.0597 -0.0741  0.1459
  561loPI   C4B 8976   7.316  13.140   8.111 -0.0451 -0.2715  0.0069
  562loPI    C1 8977   9.376  11.798  10.235 -0.1755 -0.2556 -0.2296
  562loPI    C2 8978   9.000  11.803  10.371 -0.0308  0.0305  0.1785
  562loPI    C3 8979   9.296  11.953  10.595  0.3118 -0.0789 -0.1896
  562loPI   PO4 8980   9.348  11.873   9.984 -0.1175 -0.3759  0.4166
  562loPI   GL1 8981   9.321  11.650   9.618 -0.2920 -0.0685  0.0453
  562loPI   GL2 8982   9.088  11.455   9.797  0.0898 -0.1455 -0.0029
  562loPI   C1A 8983   9.302  11.617   9.164 -0.1760  0.1185 -0.1037
  562loPI   C2A 8984   9.052  11.526   8.832 -0.0446  0.0538  0.2270
  562loPI   C3A 8985   8.941  11.546   8.332 -0.5081  0.0422 -0.2511
  562loPI   C4A 8986   8.715  11.773   7.976 -0.2435  0.2838  0.0642
  562loPI   C5A 8987   8.644  12.162   7.756 -0.2518 -0.4090  0.1380
  562loPI   C6A 8988   9.080  12.457   7.763 -0.0619  0.1856 -0.1361
  562loPI   C1B 8989   8.917  11.232   9.450  0.3279 -0.0149 -0.0025
  562loPI   C2B 8990   8.807  11.084   9.028 -0.1587  0.0503 -0.1326
  562loPI   C3B 8991   8.650  11.207   8.610 -0.0985  0.2235  0.3152
  562loPI   C4B 8992   8.559  11.113   8.209 -0.2527  0.0452  0.0804
  563loPI    C1 8993   8.919  12.821  10.493  0.3458 -0.1017  0.1586
  563loPI    C2 8994   8.628  13.072  10.603  0.2426  0.0002 -0.3229
  563loPI    C3 8995   8.691  12.736  10.810 -0.2254 -0.0298 -0.2179
  563loPI   PO4 8996   9.004  12.836  10.289 -0.1308 -0.1534 -0.1585
  563loPI   GL1 8997   8.961  12.812   9.954  0.0275  0.1717  0.2933
  563loPI   GL2 8998   9.281  12.655   9.878 -0.0126  0.0396 -0.2667
  563loPI   C1A 8999   8.761  12.891   9.585  0.0106 -0.3057  0.1509
  563loPI   C2A 9000   8.573  12.874   9.152 -0.0214 -0.1140 -0.2058
  563loPI   C3A 9001   8.331  12.864   8.764 -0.2203 -0.0272 -0.0123
  563loPI   C4A 9002   8.290  12.909   8.337 -0.0495  0.1964 -0.2710
  563loPI   C5A 9003   8.340  12.757   7.983 -0.0903  0.0450  0.3122
  563loPI   C6A 9004   7.912  12.778   7.725  0.2279 -0.2641  0.0963
  563loPI   C1B 9005   9.239  12.694   9.477  0.0671  0.0513  0.2325
  563loPI   C2B 9006   9.135  12.546   9.073  0.0818 -0.1585 -0.0820
  563loPI   C3B 9007   9.109  12.401   8.706  0.0070  0.0136 -0.1022
  563loPI   C4B 9008   9.312  12.284   8.390 -0.1041  0.1387 -0.2251
  564loPI    C1 9009   3.640   1.905  10.844  0.1242  0.4501 -0.1624
  564loPI    C2 9010   4.006   1.809  10.973 -0.0807 -0.0481  0.0738
  564loPI    C3 9011   3.740   1.966  11.227 -0.0898  0.1461 -0.0542
  564loPI   PO4 9012   3.669   2.046  10.580 -0.2924  0.0746 -0.1773
  564loPI   GL1 9013   3.419   1.868  10.198  0.0214 -0.1109  0.1126
  564loPI   GL2 9014   3.174   1.891  10.344 -0.0666  0.2130  0.0171
  564loPI   C1A 9015   3.473   1.862   9.749  0.2847  0.0023  0.1946
  564loPI   C2A 9016   3.428   1.892   9.266 -0.1201 -0.1827 -0.2094
  564loPI   C3A 9017   3.387   1.886   8.793 -0.3383  0.0343 -0.0079
  564loPI   C4A 9018   3.291   1.939   8.315 -0.0023 -0.1688 -0.0684
  564loPI   C5A 9019   3.010   1.741   8.080  0.0171  0.0941  0.0191
  564loPI   C6A 9020   2.583   1.633   8.066 -0.0156  0.1212  0.3869
  564loPI   C1B 9021   3.012   1.849   9.989  0.0334 -0.1399  0.1468
  564loPI   C2B 9022   2.963   1.934   9.527  0.3633  0.0918 -0.0328
  564loPI   C3B 9023   2.906   1.860   9.152  0.0874 -0.0836  0.0763
  564loPI   C4B 9024   2.900   1.904   8.687  0.1259 -0.1279 -0.1975
  565loPI    C1 9025   1.967   4.255  11.204  0.2841  0.3450  0.0354
  565loPI    C2 9026   2.231   4.056  11.428 -0.0998 -0.1784  0.0410
  565loPI    C3 9027   2.009   4.345  11.591  0.3903  0.2013  0.0582
  565loPI   PO4 9028   2.106   4.141  10.907 -0.3628  0.2314 -0.0616
  565loPI   GL1 9029   2.235   3.877  10.500 -0.1915 -0.0866  0.0710
  565loPI   GL2 9030   2.124   4.071  10.413 -0.0164  0.1224  0.1179
  565loPI   C1A 9031   2.390   3.594  10.120 -0.0189 -0.0456 -0.1985
  565loPI   C2A 9032   2.385   3.733   9.571 -0.1338  0.1186  0.3453
  565loPI   C3A 9033   2.452   3.750   9.158 -0.4042  0.0240  0.2744
  565loPI   C4A 9034   2.426   3.757   8.744 -0.0709  0.2681  0.1110
  565loPI   C5A 9035   2.491   3.877   8.354  0.0682  0.0424  0.1426
  565loPI   C6A 9036   2.288   4.168   8.208  0.1274 -0.1900 -0.0725
  565loPI   C1B 9037   2.225   4.089  10.047 -0.0129 -0.1669  0.0051
  565loPI   C2B 9038   2.203   4.199   9.630 -0.3341  0.0129  0.0758
  565loPI   C3B 9039   2.167   4.160   9.170  0.4830  0.0343 -0.0623
  565loPI   C4B 9040   2.219   4.182   8.732  0.3543  0.0811  0.1976
  566loPI    C1 9041  10.627   1.427  10.900  0.2271 -0.0800  0.0880
  566loPI    C2 9042  10.536   1.762  11.098 -0.0248 -0.1181  0.0399
  566loPI    C3 9043  10.585   1.419  11.298  0.2628 -0.0492  0.0924
  566loPI   PO4 9044  10.816   1.538  10.705  0.0052 -0.0362  0.2198
  566loPI   GL1 9045  10.738   1.612  10.310  0.0073 -0.1696 -0.0739
  566loPI   GL2 9046  10.741   1.275  10.200  0.1035 -0.1592  0.0651
  566loPI   C1A 9047  10.475   1.604   9.943  0.0408 -0.0359  0.0231
  566loPI   C2A 9048  10.539   1.658   9.493  0.0720 -0.0424  0.1642
  566loPI   C3A 9049  10.442   1.690   9.100  0.0598  0.1101 -0.3207
  566loPI   C4A 9050  10.507   1.561   8.652  0.1565 -0.1687  0.2305
  566loPI   C5A 9051  10.199   1.260   8.482  0.0198 -0.0080 -0.1030
  566loPI   C6A 9052  10.006   0.895   8.190  0.2193  0.0648  0.0222
  566loPI   C1B 9053  10.829   1.238   9.759  0.3863  0.0357  0.0698
  566loPI   C2B 9054  10.899   1.317   9.401  0.0015 -0.0010  0.1448
  566loPI   C3B 9055  10.826   1.220   8.969 -0.0484 -0.1722 -0.0124
  566loPI   C4B 9056  10.795   1.201   8.437  0.2179 -0.1054  0.1860
  567loPI    C1 9057   1.634   8.791  10.622 -0.0374  0.0885  0.1652
  567loPI    C2 9058   1.590   9.175  10.725  0.1169  0.0988  0.1965
  567loPI    C3 9059   1.711   8.909  10.997 -0.2789 -0.0293  0.2536
  567loPI   PO4 9060   1.497   8.810  10.379  0.2347 -0.1921 -0.0160
  567loPI   GL1 9061   1.369   8.628   9.986 -0.0112 -0.1251  0.0702
  567loPI   GL2 9062   1.331   8.912   9.914 -0.0713 -0.0158  0.1230
  567loPI   C1A 9063   1.166   8.794   9.511  0.0531 -0.2215  0.0553
  567loPI   C2A 9064   1.086   8.767   9.118 -0.0287  0.3466  0.2341
  567loPI   C3A 9065   1.123   8.810   8.714 -0.1301  0.0239 -0.0933
  567loPI   C4A 9066   0.746   8.919   8.498 -0.0655  0.1580  0.0222
  567loPI   C5A 9067   0.708   8.802   8.059 -0.0071  0.1806  0.0594
  567loPI   C6A 9068   0.487   8.980   7.868 -0.4737  0.0844  0.2546
  567loPI   C1B 9069   1.517   9.186   9.591  0.2855 -0.0148 -0.1499
  567loPI   C2B 9070   1.507   9.080   9.199  0.1669 -0.1585 -0.0242
  567loPI   C3B 9071   1.479   9.231   8.774 -0.2063 -0.1153 -0.2152
  567loPI   C4B 9072   1.418   9.220   8.433 -0.2410 -0.1155 -0.1892
  568loPI    C1 9073   0.882   9.345  11.105 -0.0620  0.0818  0.1852
  568loPI    C2 9074   1.263   9.241  11.168 -0.0669 -0.0292  0.0381
  568loPI    C3 9075   0.967   9.000  11.289 -0.0940  0.0996  0.2334
  568loPI   PO4 9076   0.952   9.457  10.743  0.1903  0.1773  0.1959
  568loPI   GL1 9077   1.008   9.515  10.268  0.3011  0.2255 -0.3182
  568loPI   GL2 9078   1.157   9.261  10.242 -0.2344  0.0487 -0.0074
  568loPI   C1A 9079   0.804   9.628   9.931 -0.2402 -0.3635  0.0206
  568loPI   C2A 9080   0.727   9.700   9.499 -0.2275 -0.1372  0.0234
  568loPI   C3A 9081   0.676   9.617   9.077  0.2556 -0.0569 -0.2200
  568loPI   C4A 9082   0.840   9.781   8.797  0.0604 -0.3000  0.0614
  568loPI   C5A 9083   1.005   9.923   8.400 -0.1594 -0.1367  0.0563
  568loPI   C6A 9084   0.934   9.865   8.006 -0.0975  0.0879  0.2383
  568loPI   C1B 9085   1.358   9.533   9.935 -0.0538  0.3838  0.1789
  568loPI   C2B 9086   1.233   9.544   9.530  0.2314 -0.0635 -0.2848
  568loPI   C3B 9087   1.319   9.612   9.082  0.1987  0.1236  0.3405
  568loPI   C4B 9088   1.323   9.678   8.733  0.0479  0.0911 -0.1344
  569loPI    C1 9089  12.887  16.559  10.729  0.0328 -0.0408 -0.1846
  569loPI    C2 9090  13.095  16.245  10.863  0.1240  0.0654 -0.0731
  569loPI    C3 9091  12.714  16.199  10.748  0.1049 -0.0654  0.0397
  569loPI   PO4 9092  13.074  16.697  10.537 -0.0396  0.3092 -0.0678
  569loPI   GL1 9093  13.257  16.567  10.083  0.0745  0.0831 -0.0083
  569loPI   GL2 9094  13.339  16.356   9.893 -0.0160  0.0739  0.1246
  569loPI   C1A 9095  12.994  16.725   9.666  0.1372 -0.2990  0.0918
  569loPI   C2A 9096  12.832  16.873   9.288  0.3114 -0.1464  0.3041
  569loPI   C3A 9097  12.642  17.119   8.877  0.1047 -0.1997  0.0461
  569loPI   C4A 9098  12.618  17.198   8.493 -0.0341 -0.1434 -0.3433
  569loPI   C5A 9099  12.492  17.465   8.132  0.2652 -0.2071  0.2998
  569loPI   C6A 9100  12.395  17.963   8.059 -0.0750 -0.0536  0.1183
  569loPI   C1B 9101  13.446  16.599   9.470 -0.1715  0.0841  0.4167
  569loPI   C2B 9102  13.368  16.689   9.046 -0.0365  0.0012  0.0607
  569loPI   C3B 9103  13.032  16.834   8.728 -0.0229  0.1146 -0.0713
  569loPI   C4B 9104  12.984  16.928   8.236 -0.1731 -0.1534  0.0458
  570loPI    C1 9105  12.104   8.519  11.095  0.0803  0.1528  0.1665
  570loPI    C2 9106  11.822   8.346  11.320  0.0373  0.2435  0.1825
  570loPI    C3 9107  12.208   8.268  11.388  0.0099 -0.0317  0.0356
  570loPI   PO4 9108  12.025   8.422  10.860  0.0413  0.1235 -0.0983
  570loPI   GL1 9109  12.196   8.459  10.391 -0.2420  0.1655 -0.2143
  570loPI   GL2 9110  12.484   8.660  10.292  0.0405  0.3378 -0.0924
  570loPI   C1A 9111  12.180   8.368   9.982  0.2071 -0.2586 -0.1154
  570loPI   C2A 9112  12.115   8.240   9.603 -0.0473 -0.1190 -0.0342
  570loPI   C3A 9113  12.102   8.176   9.187  0.0591  0.0633  0.0178
  570loPI   C4A 9114  12.065   8.277   8.688  0.1622  0.3187 -0.1837
  570loPI   C5A 9115  12.119   8.527   8.329  0.0162  0.2408 -0.0325
  570loPI   C6A 9116  11.996   8.671   7.872  0.1450 -0.2313  0.0279
  570loPI   C1B 9117  12.576   8.662   9.763 -0.2386 -0.0092  0.2606
  570loPI   C2B 9118  12.390   8.649   9.401  0.2012  0.0348 -0.2843
  570loPI   C3B 9119  12.342   8.631   9.014 -0.3084  0.0780  0.1848
  570loPI   C4B 9120  12.443   8.750   8.669 -0.0589  0.0138 -0.0783
  571loPI    C1 9121  11.856   1.978  10.707 -0.0751  0.0191  0.0815
  571loPI    C2 9122  11.804   1.660  10.944  0.2750 -0.1659 -0.0826
  571loPI    C3 9123  12.117   1.904  11.000 -0.0859  0.2575  0.1534
  571loPI   PO4 9124  11.850   1.882  10.442 -0.1928 -0.0581  0.1578
  571loPI   GL1 9125  11.654   1.655  10.157 -0.0658  0.0579  0.1734
  571loPI   GL2 9126  12.043   1.514  10.067 -0.0062  0.1114 -0.0825
  571loPI   C1A 9127  11.217   1.777  10.110 -0.1081 -0.0212  0.1213
  571loPI   C2A 9128  10.992   1.715   9.695  0.0838 -0.0099 -0.1265
  571loPI   C3A 9129  10.992   1.799   9.265 -0.0307 -0.1791  0.0591
  571loPI   C4A 9130  10.920   1.783   8.846  0.1577 -0.1980  0.0303
  571loPI   C5A 9131  10.920   1.783   8.447 -0.2936 -0.0233  0.1361
  571loPI   C6A 9132  11.124   1.582   8.145  0.0338 -0.2287 -0.1672
  571loPI   C1B 9133  11.849   1.467   9.667  0.1280 -0.2753 -0.2766
  571loPI   C2B 9134  11.888   1.498   9.262  0.0137 -0.1627 -0.1830
  571loPI   C3B 9135  11.777   1.599   8.867 -0.1053  0.1086 -0.3760
  571loPI   C4B 9136  11.644   1.508   8.532  0.0510 -0.0187 -0.0913
  572loPI    C1 9137  10.568   8.681  10.806  0.2231  0.0218  0.1342
  572loPI    C2 9138  10.339   8.690  11.134 -0.0673 -0.2029 -0.0566
  572loPI    C3 9139  10.633   8.421  11.103 -0.0072 -0.1487  0.0388
  572loPI   PO4 9140  10.589   8.920  10.725 -0.1581 -0.2387 -0.0469
  572loPI   GL1 9141  10.581   8.970  10.267 -0.0268 -0.4547  0.1282
  572loPI   GL2 9142  10.406   8.844  10.131  0.0032  0.2814  0.2133
  572loPI   C1A 9143  10.890   8.851   9.996  0.2980 -0.0249  0.2401
  572loPI   C2A 9144  10.831   8.756   9.633  0.2069 -0.2565 -0.0293
  572loPI   C3A 9145  10.427   8.787   9.314  0.2997  0.0240 -0.0405
  572loPI   C4A 9146  10.303   8.783   8.940 -0.0311 -0.2163 -0.1218
  572loPI   C5A 9147  10.323   8.666   8.419 -0.0569  0.4336 -0.0107
  572loPI   C6A 9148  10.455   8.693   8.009 -0.4164  0.0222  0.2585
  572loPI   C1B 9149  10.392   8.614   9.801 -0.1639 -0.1618  0.2698
  572loPI   C2B 9150  10.553   8.311   9.554  0.0256 -0.1713  0.5649
  572loPI   C3B 9151  10.557   8.316   9.070 -0.0693  0.2770 -0.0600
  572loPI   C4B 9152  10.529   8.309   8.647  0.2650  0.0225 -0.0676
  573loPI    C1 9153   4.539  14.085  10.777 -0.1966 -0.0511  0.0735
  573loPI    C2 9154   4.507  14.041  11.173 -0.1362  0.3375  0.1254
  573loPI    C3 9155   4.753  14.318  11.022 -0.1280  0.1642 -0.1863
  573loPI   PO4 9156   4.394  13.964  10.627 -0.0609  0.1810  0.2204
  573loPI   GL1 9157   4.280  13.952  10.271  0.1271 -0.2555  0.0496
  573loPI   GL2 9158   4.138  13.698  10.153  0.0922 -0.1077 -0.0327
  573loPI   C1A 9159   4.354  14.101   9.892 -0.1927 -0.0545 -0.0993
  573loPI   C2A 9160   4.187  14.128   9.537  0.2111 -0.0850  0.0600
  573loPI   C3A 9161   3.856  14.128   9.417  0.0351 -0.0672  0.0532
  573loPI   C4A 9162   3.794  14.043   8.936 -0.1151  0.1176 -0.2039
  573loPI   C5A 9163   3.748  14.085   8.478 -0.0899 -0.0139  0.0964
  573loPI   C6A 9164   3.520  14.280   8.299 -0.1042 -0.1920 -0.2784
  573loPI   C1B 9165   4.433  13.633   9.633 -0.0367 -0.1470  0.1168
  573loPI   C2B 9166   4.184  13.705   9.294 -0.6423  0.0093 -0.1440
  573loPI   C3B 9167   4.114  13.619   8.831  0.2700  0.1025 -0.0607
  573loPI   C4B 9168   4.081  13.718   8.441 -0.0041 -0.0683  0.0482
  574loPI    C1 9169   2.899   7.293  10.681 -0.0007 -0.0391  0.1491
  574loPI    C2 9170   2.936   7.636  10.883 -0.0590  0.0536  0.0036
  574loPI    C3 9171   2.626   7.394  10.955  0.1218 -0.0968  0.2941
  574loPI   PO4 9172   2.932   7.386  10.424 -0.2400  0.0154  0.3351
  574loPI   GL1 9173   3.110   7.334  10.051 -0.1682 -0.0771 -0.2606
  574loPI   GL2 9174   2.886   7.587  10.017  0.0226 -0.0472 -0.0768
  574loPI   C1A 9175   2.988   7.377   9.540 -0.1981 -0.1226  0.2810
  574loPI   C2A 9176   3.056   7.232   9.160  0.0560  0.3047 -0.0725
  574loPI   C3A 9177   3.004   7.246   8.737  0.1159  0.2482  0.0044
  574loPI   C4A 9178   3.053   7.189   8.303 -0.0532  0.0117  0.2089
  574loPI   C5A 9179   3.014   7.420   7.925 -0.0938  0.2411 -0.2210
  574loPI   C6A 9180   2.995   7.683   7.628  0.4684 -0.0045 -0.1084
  574loPI   C1B 9181   3.215   7.740   9.756 -0.1310 -0.0783 -0.1049
  574loPI   C2B 9182   3.279   7.721   9.249 -0.1143  0.3356  0.0962
  574loPI   C3B 9183   3.267   7.640   8.858 -0.1110  0.1836 -0.2102
  574loPI   C4B 9184   3.171   7.675   8.450 -0.2770  0.1151  0.3185
  575loPI    C1 9185  17.860   9.325  10.764  0.3048  0.0253  0.1006
  575loPI    C2 9186  17.920   8.945  10.654 -0.0075 -0.0245  0.0927
  575loPI    C3 9187  17.837   9.032  11.035  0.0145  0.0310  0.0850
  575loPI   PO4 9188  18.100   9.481  10.616 -0.0179 -0.1184  0.2644
  575loPI   GL1 9189  18.315   9.412  10.212  0.1350 -0.1732 -0.0082
  575loPI   GL2 9190  18.048   9.275  10.142 -0.0611 -0.0168 -0.0708
  575loPI   C1A 9191  18.476   9.659   9.929 -0.0844 -0.0137  0.1288
  575loPI   C2A 9192  18.361   9.770   9.513  0.0811  0.1768 -0.0270
  575loPI   C3A 9193  18.315   9.746   9.186  0.1380 -0.1520 -0.0136
  575loPI   C4A 9194  18.400   9.678   8.763 -0.0747 -0.2458  0.3067
  575loPI   C5A 9195  18.719   9.720   8.414 -0.0229  0.0840  0.1200
  575loPI   C6A 9196  18.671  10.010   8.052  0.1347 -0.1584  0.0594
  575loPI   C1B 9197  18.103   9.344   9.728 -0.2466  0.3418  0.1139
  575loPI   C2B 9198  17.984   9.415   9.265  0.0541 -0.1752  0.2403
  575loPI   C3B 9199  18.053   9.325   8.832  0.0622 -0.1504 -0.0428
  575loPI   C4B 9200  18.014   9.072   8.513 -0.0078  0.0648 -0.1324
  576loPI    C1 9201   3.004   4.351  10.935  0.1363  0.1335  0.0956
  576loPI    C2 9202   3.249   4.082  11.103  0.0462 -0.0590 -0.0780
  576loPI    C3 9203   2.868   4.109  11.223  0.0901  0.0850  0.0329
  576loPI   PO4 9204   3.061   4.279  10.645  0.2560  0.0043  0.1807
  576loPI   GL1 9205   3.003   4.024  10.265  0.0827 -0.0789  0.0875
  576loPI   GL2 9206   2.794   3.906  10.332  0.1023  0.0388 -0.0998
  576loPI   C1A 9207   3.147   4.307   9.869 -0.1468  0.0773 -0.2101
  576loPI   C2A 9208   3.105   4.097   9.520  0.0913 -0.0217 -0.2595
  576loPI   C3A 9209   3.250   4.150   9.135 -0.1623  0.0185 -0.0226
  576loPI   C4A 9210   3.106   4.173   8.699 -0.0908 -0.1732  0.0309
  576loPI   C5A 9211   3.182   4.091   8.243  0.0644 -0.0287  0.0901
  576loPI   C6A 9212   3.282   3.783   7.883  0.1667 -0.1292  0.2658
  576loPI   C1B 9213   2.691   4.010   9.865 -0.0536 -0.1280 -0.0192
  576loPI   C2B 9214   2.645   4.115   9.469  0.3604 -0.2124  0.0175
  576loPI   C3B 9215   2.643   4.219   9.028  0.1560 -0.1715 -0.1479
  576loPI   C4B 9216   2.635   4.254   8.568  0.0216  0.0259 -0.0480
  577loPI    C1 9217  17.612  10.942  10.902  0.0598  0.0297  0.0384
  577loPI    C2 9218  17.272  10.962  11.113 -0.0108  0.1960 -0.0891
  577loPI    C3 9219  17.625  10.956  11.302 -0.0869 -0.1381  0.0505
  577loPI   PO4 9220  17.517  11.151  10.621 -0.2857  0.1696 -0.2943
  577loPI   GL1 9221  17.242  11.170  10.396  0.3380 -0.0269 -0.2524
  577loPI   GL2 9222  17.220  11.545  10.317 -0.0806 -0.0462  0.0112
  577loPI   C1A 9223  17.265  11.166   9.975 -0.2035  0.0084  0.1491
  577loPI   C2A 9224  17.103  11.214   9.577 -0.0613  0.1677  0.4316
  577loPI   C3A 9225  17.167  11.194   9.143  0.3171  0.1599  0.1723
  577loPI   C4A 9226  17.197  11.191   8.709  0.1745 -0.2144  0.0614
  577loPI   C5A 9227  17.187  10.972   8.298 -0.4667 -0.2923  0.0388
  577loPI   C6A 9228  17.172  10.879   7.903 -0.1081 -0.0278  0.0389
  577loPI   C1B 9229  16.991  11.588   9.910  0.3586 -0.1269 -0.2709
  577loPI   C2B 9230  16.908  11.716   9.458  0.0405 -0.1939 -0.2158
  577loPI   C3B 9231  17.007  11.700   8.989 -0.0226  0.0265 -0.1157
  577loPI   C4B 9232  17.037  11.621   8.579  0.0860 -0.5666 -0.0520
  578loPI    C1 9233   7.126   0.813  10.716  0.2282  0.1304 -0.1244
  578loPI    C2 9234   6.796   0.927  10.520  0.0943 -0.1278 -0.0547
  578loPI    C3 9235   6.791   0.896  10.919  0.2118 -0.1057 -0.0511
  578loPI   PO4 9236   7.225   0.653  10.495 -0.1062  0.0594  0.1047
  578loPI   GL1 9237   7.460   0.536  10.197  0.0059 -0.0932 -0.0005
  578loPI   GL2 9238   7.150   0.288  10.146 -0.1447 -0.2427  0.1702
  578loPI   C1A 9239   7.569   0.668   9.761 -0.0405 -0.1630 -0.0413
  578loPI   C2A 9240   7.450   0.794   9.382 -0.3501 -0.1187  0.0765
  578loPI   C3A 9241   7.409   0.814   8.871  0.0035  0.2210 -0.0199
  578loPI   C4A 9242   7.326   0.730   8.422  0.0437  0.0990 -0.0517
  578loPI   C5A 9243   7.348   0.368   8.096 -0.1565 -0.4832  0.1625
  578loPI   C6A 9244   7.360   0.201   7.750 -0.0823  0.0705 -0.1578
  578loPI   C1B 9245   7.138   0.391   9.750 -0.1896  0.1424  0.2386
  578loPI   C2B 9246   7.220   0.371   9.255 -0.4365 -0.0256  0.0991
  578loPI   C3B 9247   7.179   0.290   8.821 -0.3355 -0.1394  0.3229
  578loPI   C4B 9248   7.108   0.136   8.434  0.3223  0.4671 -0.1071
  579loPI    C1 9249  11.801  11.736  10.646 -0.1431 -0.0224 -0.0500
  579loPI    C2 9250  11.569  11.981  10.862 -0.1403 -0.0584 -0.0063
  579loPI    C3 9251  11.830  11.738  11.045 -0.0416  0.0086 -0.0575
  579loPI   PO4 9252  11.861  11.857  10.506 -0.1269  0.0228  0.0170
  579loPI   GL1 9253  11.717  11.925  10.044 -0.3603  0.0841  0.2204
  579loPI   GL2 9254  11.714  12.292  10.154 -0.1768 -0.1272  0.0716
  579loPI   C1A 9255  12.007  11.933   9.712 -0.1165  0.0963 -0.0358
  579loPI   C2A 9256  11.964  11.822   9.330 -0.0140  0.0467  0.1304
  579loPI   C3A 9257  12.085  12.171   9.067 -0.0661  0.0808 -0.0415
  579loPI   C4A 9258  12.381  12.206   8.767  0.2372 -0.1674  0.1634
  579loPI   C5A 9259  12.816  12.194   8.770  0.3113 -0.0403 -0.1234
  579loPI   C6A 9260  13.075  11.780   9.054 -0.2651  0.0719 -0.1430
  579loPI   C1B 9261  11.612  12.363   9.655 -0.0091 -0.2689 -0.3361
  579loPI   C2B 9262  11.680  12.498   9.238 -0.1179  0.0251 -0.0934
  579loPI   C3B 9263  11.826  12.623   8.873  0.1921  0.0133  0.0454
  579loPI   C4B 9264  12.118  12.647   8.554  0.1396 -0.0604  0.0875
  580loPI    C1 9265  10.174   6.190  10.838  0.1382 -0.1325 -0.1967
  580loPI    C2 9266  10.520   6.070  10.998  0.1637  0.4019  0.1767
  580loPI    C3 9267  10.175   5.990  11.184  0.1013  0.0928 -0.0640
  580loPI   PO4 9268  10.260   6.155  10.577 -0.0605  0.0081  0.2009
  580loPI   GL1 9269  10.057   6.117  10.213 -0.3020  0.1042 -0.0138
  580loPI   GL2 9270  10.277   5.824  10.218 -0.0177 -0.2120 -0.0335
  580loPI   C1A 9271  10.041   6.348   9.849  0.0801  0.1564  0.0555
  580loPI   C2A 9272   9.899   6.687   9.627 -0.0303 -0.2019  0.0725
  580loPI   C3A 9273   9.796   7.032   9.323 -0.3130 -0.0840  0.0060
  580loPI   C4A 9274   9.796   7.113   8.880  0.0753 -0.2301  0.1564
  580loPI   C5A 9275   9.613   6.996   8.438 -0.2359 -0.1835 -0.0499
  580loPI   C6A 9276   9.357   6.746   8.142 -0.1866  0.0429  0.0279
  580loPI   C1B 9277  10.165   5.895   9.775 -0.0072  0.0992  0.1748
  580loPI   C2B 9278  10.219   6.125   9.450  0.0492  0.1086  0.0950
  580loPI   C3B 9279  10.342   6.516   9.302  0.3525  0.0971  0.2443
  580loPI   C4B 9280  10.505   6.532   8.875  0.1176  0.1060 -0.2796
  581loPI    C1 9281   4.667  15.464  10.986  0.2365 -0.1831  0.0989
  581loPI    C2 9282   4.481  15.164  10.798  0.1245 -0.0603  0.0120
  581loPI    C3 9283   4.293  15.365  11.089  0.1199  0.0643 -0.0762
  581loPI   PO4 9284   4.794  15.589  10.791 -0.0491 -0.1660  0.0286
  581loPI   GL1 9285   4.878  15.815  10.482  0.0931 -0.1810 -0.2836
  581loPI   GL2 9286   4.640  15.787  10.310 -0.2220  0.1555  0.1182
  581loPI   C1A 9287   5.179  15.696  10.245 -0.2677 -0.0432  0.1807
  581loPI   C2A 9288   5.573  15.742   9.918 -0.3426 -0.0754  0.3305
  581loPI   C3A 9289   5.515  15.780   9.411 -0.2778  0.1529 -0.1689
  581loPI   C4A 9290   5.616  15.910   9.007 -0.0399  0.2932  0.1433
  581loPI   C5A 9291   5.629  15.954   8.541 -0.3983 -0.2528  0.0695
  581loPI   C6A 9292   6.091  16.172   8.468 -0.0936  0.1298 -0.0957
  581loPI   C1B 9293   4.597  15.839   9.904  0.0031  0.0538  0.0415
  581loPI   C2B 9294   4.379  15.930   9.582 -0.1829  0.0809  0.0574
  581loPI   C3B 9295   4.045  15.900   9.283  0.3980  0.0224 -0.0258
  581loPI   C4B 9296   4.009  15.968   8.955 -0.3032 -0.0131 -0.1124
  582loPI    C1 9297   4.415  16.277  10.640  0.0530  0.0053  0.3836
  582loPI    C2 9298   4.506  16.028  10.940  0.2547 -0.1475  0.1986
  582loPI    C3 9299   4.780  16.287  10.805  0.2051 -0.1638  0.0656
  582loPI   PO4 9300   4.298  16.101  10.473 -0.1447  0.1337  0.0022
  582loPI   GL1 9301   4.131  16.000  10.071 -0.1745  0.2814  0.3224
  582loPI   GL2 9302   4.122  15.660  10.148  0.1398 -0.0220 -0.3173
  582loPI   C1A 9303   4.437  16.331   9.878  0.1437  0.1601  0.1319
  582loPI   C2A 9304   4.498  16.406   9.517 -0.2900  0.1249 -0.2938
  582loPI   C3A 9305   4.365  16.440   9.012 -0.2311 -0.0348 -0.1831
  582loPI   C4A 9306   4.255  16.281   8.681  0.1111  0.0132  0.0449
  582loPI   C5A 9307   3.917  16.291   8.370 -0.0608  0.1240 -0.1208
  582loPI   C6A 9308   3.733  16.061   8.123  0.3761  0.4026  0.0564
  582loPI   C1B 9309   4.123  15.481   9.686 -0.1066  0.0588 -0.0592
  582loPI   C2B 9310   4.188  15.444   9.176  0.0212 -0.1021 -0.0217
  582loPI   C3B 9311   4.100  15.537   8.781 -0.0664  0.0427 -0.0357
  582loPI   C4B 9312   4.072  15.775   8.368 -0.1619  0.0601  0.0996
  583loPI    C1 9313   4.811  13.385  10.562  0.0364  0.1199  0.0360
  583loPI    C2 9314   4.913  13.236  10.919 -0.0123  0.0192  0.0082
  583loPI    C3 9315   4.618  13.066  10.708  0.2270 -0.1184 -0.2217
  583loPI   PO4 9316   4.806  13.649  10.518 -0.3831 -0.2191  0.1070
  583loPI   GL1 9317   4.741  13.969  10.283 -0.2641  0.1242  0.0198
  583loPI   GL2 9318   4.775  14.228  10.391 -0.0822  0.2659  0.0447
  583loPI   C1A 9319   4.860  13.956   9.875 -0.2124 -0.1641 -0.1569
  583loPI   C2A 9320   4.878  14.020   9.436 -0.0015 -0.0037 -0.2939
  583loPI   C3A 9321   4.934  14.156   9.079 -0.2427  0.1317 -0.2542
  583loPI   C4A 9322   4.817  14.289   8.615 -0.0299 -0.2746 -0.1197
  583loPI   C5A 9323   4.887  14.069   8.265 -0.1766 -0.0770 -0.1086
  583loPI   C6A 9324   5.164  13.724   8.141  0.0945  0.1705  0.2418
  583loPI   C1B 9325   4.696  14.422  10.030  0.3061  0.1018 -0.0834
  583loPI   C2B 9326   4.638  14.403   9.559  0.1262 -0.2718 -0.1752
  583loPI   C3B 9327   4.777  14.613   9.216  0.2368  0.1906  0.0253
  583loPI   C4B 9328   4.591  14.650   8.863  0.1177 -0.3484 -0.1455
  584loPI    C1 9329  11.711   3.663  11.120  0.0367  0.0933 -0.0673
  584loPI    C2 9330  11.505   4.003  11.166  0.0469  0.0991 -0.0645
  584loPI    C3 9331  11.547   3.751  11.474  0.0049  0.0759 -0.0777
  584loPI   PO4 9332  11.677   3.629  10.880  0.0478  0.1448 -0.0703
  584loPI   GL1 9333  11.933   3.711  10.522 -0.0641  0.0761 -0.2475
  584loPI   GL2 9334  11.701   3.852  10.411  0.0689  0.0108 -0.0680
  584loPI   C1A 9335  11.905   3.502  10.099  0.0387  0.0233 -0.1411
  584loPI   C2A 9336  11.888   3.468   9.630  0.2495 -0.0516 -0.2000
  584loPI   C3A 9337  11.849   3.415   9.297 -0.0936  0.0245 -0.1070
  584loPI   C4A 9338  11.841   3.480   8.794 -0.2343  0.2035 -0.1480
  584loPI   C5A 9339  11.854   3.371   8.446  0.0801 -0.2848  0.0136
  584loPI   C6A 9340  12.001   3.173   8.057 -0.1134  0.2823 -0.3534
  584loPI   C1B 9341  11.560   3.881  10.053 -0.0168 -0.0337 -0.3437
  584loPI   C2B 9342  11.565   3.818   9.530 -0.0979 -0.0377 -0.1269
  584loPI   C3B 9343  11.507   3.763   9.090  0.1609 -0.0605  0.0582
  584loPI   C4B 9344  11.438   3.842   8.632  0.1582 -0.0409  0.1746
  585loPI    C1 9345  16.565   0.269  10.868  0.3720 -0.1413 -0.1282
  585loPI    C2 9346  16.791   0.015  11.077  0.0079 -0.3350  0.0394
  585loPI    C3 9347  16.461   0.169  11.241  0.0251 -0.0414 -0.1950
  585loPI   PO4 9348  16.487   0.184  10.612  0.0094 -0.1377 -0.1721
  585loPI   GL1 9349  16.700   0.094  10.246  0.1031  0.2371 -0.1775
  585loPI   GL2 9350  16.428   0.272  10.048 -0.3230 -0.1050 -0.1211
  585loPI   C1A 9351  16.823  -0.099   9.836 -0.1405  0.1749 -0.0141
  585loPI   C2A 9352  16.767  -0.240   9.450  0.1340 -0.0677 -0.0565
  585loPI   C3A 9353  16.774  -0.119   9.046 -0.2854  0.1746  0.0827
  585loPI   C4A 9354  16.937  -0.332   8.691  0.1191 -0.0527 -0.0189
  585loPI   C5A 9355  16.967  -0.692   8.386  0.1936  0.1748 -0.3722
  585loPI   C6A 9356  17.135  -0.973   8.065 -0.1829 -0.0975 -0.3087
  585loPI   C1B 9357  16.349   0.144   9.656 -0.0450 -0.1929 -0.2639
  585loPI   C2B 9358  16.388   0.149   9.288  0.2651  0.0967  0.4366
  585loPI   C3B 9359  16.287   0.283   8.963 -0.0747  0.0263 -0.0529
  585loPI   C4B 9360  16.140   0.231   8.576  0.3979  0.0112  0.2068
  586loPI    C1 9361   9.870  16.986  10.844  0.2152  0.3163 -0.1656
  586loPI    C2 9362   9.780  16.840  11.205 -0.1671  0.1443 -0.3244
  586loPI    C3 9363  10.106  17.067  11.156  0.0617 -0.0897  0.0635
  586loPI   PO4 9364   9.972  16.788  10.642  0.5671 -0.1052 -0.1569
  586loPI   GL1 9365   9.943  16.785  10.275 -0.0708  0.4130 -0.0501
  586loPI   GL2 9366   9.967  16.482  10.046 -0.2132 -0.1253  0.1454
  586loPI   C1A 9367   9.611  16.756   9.910  0.2575  0.2200 -0.1923
  586loPI   C2A 9368   9.502  16.901   9.458 -0.1054  0.1061  0.0882
  586loPI   C3A 9369   9.281  16.923   9.119  0.0057 -0.1083 -0.0650
  586loPI   C4A 9370   9.173  16.874   8.698 -0.2017 -0.1648  0.0207
  586loPI   C5A 9371   9.107  16.456   8.434  0.2260 -0.6003 -0.0986
  586loPI   C6A 9372   8.934  16.289   8.131  0.1559 -0.0268  0.0053
  586loPI   C1B 9373   9.874  16.527   9.556 -0.0490 -0.0407  0.0361
  586loPI   C2B 9374   9.738  16.630   9.135 -0.0145 -0.2310 -0.0474
  586loPI   C3B 9375   9.656  16.730   8.786  0.0384  0.1899  0.1264
  586loPI   C4B 9376   9.660  16.904   8.377  0.4324  0.4553  0.1839
  587loPI    C1 9377  10.970   4.771  10.919  0.0513 -0.1639 -0.1668
  587loPI    C2 9378  11.125   4.825  10.554  0.0489  0.2793 -0.1072
  587loPI    C3 9379  11.281   5.018  10.869  0.1196 -0.1811  0.1488
  587loPI   PO4 9380  10.689   4.781  10.821 -0.0957 -0.0505 -0.0160
  587loPI   GL1 9381  10.566   4.712  10.410 -0.0516 -0.1344 -0.2193
  587loPI   GL2 9382  10.434   4.887  10.304  0.3863 -0.0503 -0.0176
  587loPI   C1A 9383  10.842   4.550   9.992  0.1574  0.2323 -0.0400
  587loPI   C2A 9384  10.769   4.541   9.555 -0.1706  0.0029  0.0920
  587loPI   C3A 9385  10.784   4.554   9.068  0.1385 -0.0520  0.3253
  587loPI   C4A 9386  10.722   4.640   8.657 -0.2232 -0.0997 -0.0425
  587loPI   C5A 9387  10.330   4.831   8.462  0.0961  0.1871  0.3828
  587loPI   C6A 9388  10.136   4.750   7.972  0.2202 -0.2582  0.2824
  587loPI   C1B 9389  10.438   4.801   9.877 -0.0237 -0.0889 -0.2717
  587loPI   C2B 9390  10.401   4.819   9.394 -0.2096  0.0315 -0.0129
  587loPI   C3B 9391  10.401   4.899   8.933 -0.1643 -0.1401  0.0946
  587loPI   C4B 9392  10.378   5.256   8.689 -0.1338 -0.1929  0.2144
  588loPI    C1 9393   0.124   8.029  10.606  0.0025 -0.1336 -0.0754
  588loPI    C2 9394   0.086   8.110  10.996  0.2240  0.0759 -0.0949
  588loPI    C3 9395  -0.233   8.131  10.756  0.1123  0.0716  0.0516
  588loPI   PO4 9396   0.336   8.145  10.567 -0.0102  0.2518 -0.0035
  588loPI   GL1 9397   0.523   8.202  10.150  0.2294 -0.2955 -0.0043
  588loPI   GL2 9398   0.719   7.901  10.054  0.0881  0.1121  0.0826
  588loPI   C1A 9399   0.343   8.443   9.806 -0.0094  0.0395 -0.0175
  588loPI   C2A 9400   0.212   8.477   9.365 -0.1437 -0.1442  0.1180
  588loPI   C3A 9401   0.234   8.363   9.061 -0.0119 -0.0452  0.2731
  588loPI   C4A 9402   0.238   8.158   8.691 -0.2166  0.1067  0.0476
  588loPI   C5A 9403   0.611   8.272   8.402 -0.3400 -0.3285 -0.0437
  588loPI   C6A 9404   0.984   8.427   8.371  0.2669  0.3436  0.0491
  588loPI   C1B 9405   0.838   8.156   9.720 -0.1146 -0.2915 -0.1968
  588loPI   C2B 9406   0.882   8.379   9.328  0.4884 -0.2693  0.0809
  588loPI   C3B 9407   1.144   8.328   8.915  0.0025 -0.1042 -0.1543
  588loPI   C4B 9408   1.478   8.202   8.763 -0.0095  0.0526 -0.0036
  589loPI    C1 9409   9.399  14.773  10.226  0.0825 -0.1673  0.0281
  589loPI    C2 9410   9.024  14.910  10.254  0.0399 -0.2962  0.0948
  589loPI    C3 9411   9.231  14.824  10.586  0.1911 -0.0588  0.0641
  589loPI   PO4 9412   9.518  14.915  10.090 -0.1271  0.1021 -0.1220
  589loPI   GL1 9413   9.807  15.213  10.141  0.0098  0.0176  0.1469
  589loPI   GL2 9414  10.098  15.042  10.023  0.0746  0.2042 -0.3490
  589loPI   C1A 9415   9.795  15.451   9.691 -0.2629 -0.1535 -0.0685
  589loPI   C2A 9416   9.951  15.577   9.315  0.1428  0.1065  0.0309
  589loPI   C3A 9417  10.048  15.791   8.956  0.2679  0.0831 -0.1542
  589loPI   C4A 9418  10.178  15.922   8.573  0.0693 -0.0440 -0.5124
  589loPI   C5A 9419  10.280  15.678   8.138  0.1112  0.1891 -0.0926
  589loPI   C6A 9420  10.207  15.420   7.805 -0.0220  0.1292 -0.3556
  589loPI   C1B 9421  10.123  15.106   9.615  0.2524 -0.0252 -0.0115
  589loPI   C2B 9422   9.901  15.096   9.210  0.1039  0.2608  0.2397
  589loPI   C3B 9423   9.795  14.953   8.718 -0.0807  0.1933  0.1006
  589loPI   C4B 9424   9.898  15.011   8.308  0.0058 -0.0097  0.2103
  590loPI    C1 9425  18.047   6.295  10.656 -0.0167 -0.1024 -0.0529
  590loPI    C2 9426  18.144   6.440  11.016 -0.1749  0.1663 -0.1161
  590loPI    C3 9427  17.895   6.129  10.986 -0.2075  0.1801  0.0050
  590loPI   PO4 9428  18.286   6.413  10.523  0.2210  0.1049  0.1269
  590loPI   GL1 9429  18.297   6.698  10.277  0.0025 -0.0261 -0.3277
  590loPI   GL2 9430  18.347   6.967  10.240 -0.0222  0.0754  0.4368
  590loPI   C1A 9431  18.156   6.629   9.885  0.1862  0.1264 -0.1110
  590loPI   C2A 9432  18.166   6.627   9.392 -0.0147 -0.0740  0.1005
  590loPI   C3A 9433  18.128   6.735   8.970  0.1021  0.0097  0.1657
  590loPI   C4A 9434  18.298   6.914   8.619  0.4063  0.2476 -0.0070
  590loPI   C5A 9435  18.543   6.755   8.352 -0.0203  0.1514 -0.0620
  590loPI   C6A 9436  18.567   6.611   7.940  0.1747 -0.1658  0.2920
  590loPI   C1B 9437  18.544   7.067   9.878 -0.0669 -0.0441 -0.0398
  590loPI   C2B 9438  18.506   7.081   9.398 -0.2701 -0.0703  0.1270
  590loPI   C3B 9439  18.531   7.136   8.942 -0.1465 -0.4482 -0.0541
  590loPI   C4B 9440  18.657   7.238   8.503  0.0314  0.2529  0.2628
  591loPI    C1 9441   2.578  12.592  10.775 -0.0516  0.1343 -0.1609
  591loPI    C2 9442   2.970  12.526  10.821 -0.0471  0.2701  0.0041
  591loPI    C3 9443   2.707  12.352  11.068 -0.1021  0.0625 -0.1970
  591loPI   PO4 9444   2.554  12.558  10.587 -0.0420 -0.1828 -0.1391
  591loPI   GL1 9445   2.461  12.387  10.221  0.0293  0.2932  0.0101
  591loPI   GL2 9446   2.163  12.559  10.063 -0.1944  0.1107  0.2634
  591loPI   C1A 9447   2.583  12.159   9.891  0.2556  0.3427 -0.0668
  591loPI   C2A 9448   2.642  12.069   9.543  0.2231  0.1078  0.3131
  591loPI   C3A 9449   2.649  12.437   9.417  0.1277  0.1419  0.1571
  591loPI   C4A 9450   2.869  12.711   9.193  0.3276 -0.0129  0.0601
  591loPI   C5A 9451   2.923  12.751   8.767 -0.4332  0.0711 -0.4114
  591loPI   C6A 9452   2.750  12.689   8.282 -0.1075  0.1124  0.0567
  591loPI   C1B 9453   2.185  12.349   9.698 -0.1009  0.1739  0.0383
  591loPI   C2B 9454   2.052  12.288   9.342  0.2243 -0.1234  0.1108
  591loPI   C3B 9455   2.086  12.368   8.798  0.1821 -0.0306  0.2651
  591loPI   C4B 9456   2.263  12.354   8.339 -0.0997 -0.0663 -0.0026
  592loPI    C1 9457  15.518   5.277  10.402 -0.0459  0.1104  0.0601
  592loPI    C2 9458  15.379   5.532  10.127 -0.3329 -0.1677 -0.0585
  592loPI    C3 9459  15.220   5.527  10.494 -0.1945 -0.0438  0.0039
  592loPI   PO4 9460  15.504   5.084  10.264  0.2721 -0.0540  0.1144
  592loPI   GL1 9461  15.472   5.127   9.852  0.3012  0.2244  0.0710
  592loPI   GL2 9462  15.555   5.437   9.679 -0.0086 -0.1712  0.1969
  592loPI   C1A 9463  15.478   4.839   9.549  0.2354  0.0262 -0.1423
  592loPI   C2A 9464  15.413   4.833   9.122 -0.0556  0.0379 -0.3838
  592loPI   C3A 9465  15.312   4.655   8.773  0.1556  0.2865 -0.2486
  592loPI   C4A 9466  15.268   4.551   8.392  0.1592  0.2836 -0.0870
  592loPI   C5A 9467  15.416   4.333   8.013  0.2045 -0.0790 -0.0794
  592loPI   C6A 9468  15.544   3.970   7.705 -0.0431 -0.0695  0.1360
  592loPI   C1B 9469  15.451   5.439   9.182  0.0564 -0.1719  0.2060
  592loPI   C2B 9470  15.420   5.207   8.733 -0.1005 -0.4313 -0.0666
  592loPI   C3B 9471  15.460   5.183   8.306 -0.1506 -0.0603 -0.0132
  592loPI   C4B 9472  15.259   5.263   7.932  0.0080  0.0033  0.1363
  593loPI    C1 9473   6.513  11.099  10.567 -0.1202  0.3257 -0.1537
  593loPI    C2 9474   6.618  11.362  10.850 -0.2269  0.0125  0.1836
  593loPI    C3 9475   6.560  10.978  10.945 -0.1259 -0.1270 -0.2929
  593loPI   PO4 9476   6.631  11.116  10.367 -0.1213  0.0436  0.0715
  593loPI   GL1 9477   6.655  10.820   9.988 -0.0770  0.1882  0.2845
  593loPI   GL2 9478   6.428  10.907  10.007  0.0535 -0.1077 -0.2167
  593loPI   C1A 9479   6.899  10.817   9.670 -0.0516  0.4518  0.0681
  593loPI   C2A 9480   6.980  10.813   9.308  0.1391  0.0509  0.0240
  593loPI   C3A 9481   6.827  10.790   8.884  0.3765  0.1468  0.3267
  593loPI   C4A 9482   6.813  10.785   8.525 -0.0980 -0.1989  0.1015
  593loPI   C5A 9483   6.671  10.807   8.035  0.2823 -0.2453  0.2842
  593loPI   C6A 9484   6.671  10.897   7.606 -0.1082 -0.2374  0.2546
  593loPI   C1B 9485   6.354  10.763   9.598 -0.1512  0.1658 -0.5107
  593loPI   C2B 9486   6.413  10.808   9.227  0.1758  0.0557  0.0742
  593loPI   C3B 9487   6.312  10.675   8.837 -0.0031  0.0920  0.0180
  593loPI   C4B 9488   6.311  10.763   8.425  0.1262  0.1963 -0.3969
  594loPI    C1 9489  18.178   5.326  10.833 -0.2217 -0.0596  0.1226
  594loPI    C2 9490  18.246   5.476  11.198  0.0116 -0.1405  0.1145
  594loPI    C3 9491  17.891   5.531  11.022 -0.0328  0.0766  0.2672
  594loPI   PO4 9492  18.344   5.519  10.669  0.3432 -0.1086 -0.0049
  594loPI   GL1 9493  18.450   5.529  10.187 -0.1181  0.3463  0.0910
  594loPI   GL2 9494  18.351   5.175   9.985 -0.0010  0.0119 -0.0007
  594loPI   C1A 9495  18.604   5.718   9.862  0.1888  0.1294 -0.1467
  594loPI   C2A 9496  18.645   5.733   9.366  0.2739 -0.0567 -0.1168
  594loPI   C3A 9497  18.622   5.759   8.900  0.1106  0.1803 -0.1424
  594loPI   C4A 9498  18.582   5.772   8.555  0.2628  0.3888  0.1734
  594loPI   C5A 9499  18.579   5.629   8.034 -0.0422  0.1252 -0.2951
  594loPI   C6A 9500  18.471   5.891   7.643  0.1002  0.1305  0.0307
  594loPI   C1B 9501  18.324   5.328   9.568  0.1917 -0.1870 -0.0777
  594loPI   C2B 9502  18.372   5.319   9.153  0.2900  0.1387 -0.1840
  594loPI   C3B 9503  18.236   5.250   8.827  0.2672  0.0591  0.1472
  594loPI   C4B 9504  18.185   5.462   8.430 -0.3753  0.1236 -0.0636
  595loPI    C1 9505   4.619   6.238  10.952 -0.1451  0.1456 -0.0622
  595loPI    C2 9506   4.623   6.542  10.692  0.2084  0.3437  0.1677
  595loPI    C3 9507   4.503   6.603  11.069  0.0919  0.1518  0.1627
  595loPI   PO4 9508   4.538   6.055  10.731  0.1693 -0.0820  0.0744
  595loPI   GL1 9509   4.335   5.798  10.367  0.1789  0.0475  0.0362
  595loPI   GL2 9510   4.619   5.828  10.244  0.1264  0.1993  0.1218
  595loPI   C1A 9511   4.238   5.890   9.893  0.0134  0.1281  0.5819
  595loPI   C2A 9512   4.274   5.955   9.420  0.3038 -0.1624 -0.0730
  595loPI   C3A 9513   4.306   5.884   9.018 -0.0519 -0.0383 -0.0512
  595loPI   C4A 9514   4.263   5.916   8.571 -0.0124 -0.1929 -0.2983
  595loPI   C5A 9515   4.380   5.975   8.105  0.0543  0.1457 -0.0502
  595loPI   C6A 9516   4.792   6.032   7.865 -0.0438  0.1022  0.0507
  595loPI   C1B 9517   4.700   5.832   9.836  0.1059 -0.1540 -0.1123
  595loPI   C2B 9518   4.790   5.895   9.370  0.0393  0.1359 -0.1427
  595loPI   C3B 9519   4.799   5.955   9.000 -0.4404  0.1475 -0.1056
  595loPI   C4B 9520   4.762   5.887   8.588 -0.0720 -0.1055  0.1476
  596loPI    C1 9521   3.178  11.113  10.636 -0.4241 -0.1637  0.2875
  596loPI    C2 9522   3.349  10.795  10.809 -0.0672 -0.1086  0.0452
  596loPI    C3 9523   3.201  11.090  11.035 -0.0342 -0.2572  0.2638
  596loPI   PO4 9524   3.318  11.211  10.478 -0.1508  0.1575 -0.0798
  596loPI   GL1 9525   3.265  11.143  10.071  0.0624 -0.1424  0.0448
  596loPI   GL2 9526   2.894  11.163  10.090 -0.4879 -0.0645 -0.0024
  596loPI   C1A 9527   3.187  11.570   9.831 -0.0772 -0.1676 -0.1827
  596loPI   C2A 9528   2.847  11.613   9.535 -0.0733  0.0413 -0.0686
  596loPI   C3A 9529   2.870  11.769   9.170 -0.2267 -0.0684 -0.0045
  596loPI   C4A 9530   2.764  11.765   8.697 -0.0405  0.1586 -0.0054
  596loPI   C5A 9531   2.782  11.841   8.284  0.3085  0.0825  0.3312
  596loPI   C6A 9532   2.628  12.181   8.053 -0.2021  0.1943  0.2824
  596loPI   C1B 9533   3.012  11.124   9.668  0.0938 -0.1201 -0.0257
  596loPI   C2B 9534   2.896  11.268   9.135 -0.2792 -0.1535 -0.0516
  596loPI   C3B 9535   2.922  11.315   8.686  0.3338  0.1321 -0.2947
  596loPI   C4B 9536   3.170  11.586   8.419 -0.1983 -0.2968 -0.1712
  597loPI    C1 9537   1.782   0.780  11.020  0.0355  0.0851 -0.3790
  597loPI    C2 9538   1.547   1.044  11.208 -0.1246 -0.1942 -0.1779
  597loPI    C3 9539   1.933   1.010  11.311  0.0024  0.2378 -0.4818
  597loPI   PO4 9540   1.546   0.567  10.987 -0.0178 -0.0995 -0.0237
  597loPI   GL1 9541   1.222   0.513  10.583  0.1152 -0.2027  0.0409
  597loPI   GL2 9542   1.286   0.213  10.464  0.1235  0.2520  0.0076
  597loPI   C1A 9543   1.096   0.823  10.321  0.0034 -0.0848 -0.0606
  597loPI   C2A 9544   1.113   1.010  10.002 -0.1657 -0.0362 -0.0623
  597loPI   C3A 9545   1.279   1.039   9.586 -0.0126  0.0552 -0.1175
  597loPI   C4A 9546   1.362   1.031   9.079  0.1075 -0.0913  0.1582
  597loPI   C5A 9547   1.318   0.804   8.566 -0.3659 -0.0256  0.1479
  597loPI   C6A 9548   1.174   0.377   8.403 -0.1992  0.1651 -0.0787
  597loPI   C1B 9549   1.407   0.217  10.122 -0.0520  0.0386  0.2412
  597loPI   C2B 9550   1.792   0.242   9.886 -0.3232 -0.0812  0.0801
  597loPI   C3B 9551   1.862   0.221   9.391  0.1179  0.4994 -0.0117
  597loPI   C4B 9552   1.850   0.060   9.026 -0.0658  0.0718 -0.1717
  598loPI    C1 9553   3.112   0.022  10.737 -0.1157 -0.1334  0.0951
  598loPI    C2 9554   3.361  -0.139  11.006 -0.1631 -0.1330  0.1395
  598loPI    C3 9555   3.004  -0.000  11.121 -0.2602 -0.3014  0.0465
  598loPI   PO4 9556   3.327   0.207  10.603 -0.1386  0.1946  0.4040
  598loPI   GL1 9557   3.267   0.453  10.256  0.3110 -0.3731  0.1109
  598loPI   GL2 9558   3.459   0.788  10.170  0.2954 -0.0143 -0.0405
  598loPI   C1A 9559   3.119   0.525   9.873 -0.2466 -0.1180  0.2615
  598loPI   C2A 9560   3.133   0.532   9.512 -0.2582  0.0859 -0.2289
  598loPI   C3A 9561   3.101   0.430   9.101 -0.1132  0.1762 -0.2198
  598loPI   C4A 9562   3.111   0.525   8.560  0.1988 -0.2311 -0.1369
  598loPI   C5A 9563   2.931   0.761   8.141  0.1508 -0.1588 -0.1498
  598loPI   C6A 9564   2.721   1.068   7.997 -0.0545  0.4851  0.1149
  598loPI   C1B 9565   3.408   0.945   9.735  0.0469  0.3434 -0.1682
  598loPI   C2B 9566   3.398   0.883   9.341  0.1106  0.2139  0.1828
  598loPI   C3B 9567   3.339   0.859   8.952 -0.0463 -0.2899 -0.3899
  598loPI   C4B 9568   3.453   0.882   8.520  0.1256 -0.1513  0.0422
  599loPI    C1 9569   2.251  14.957  10.930  0.0078  0.1038  0.1450
  599loPI    C2 9570   1.864  14.936  11.026 -0.0252 -0.0973 -0.0246
  599loPI    C3 9571   2.104  15.191  11.219 -0.2146 -0.0612  0.1678
  599loPI   PO4 9572   2.225  14.877  10.646  0.3088  0.0004  0.0730
  599loPI   GL1 9573   2.031  14.942  10.310  0.0191 -0.3385  0.1255
  599loPI   GL2 9574   1.983  15.256  10.268  0.2657  0.1251  0.3998
  599loPI   C1A 9575   2.197  14.734   9.958  0.2488  0.2264  0.0685
  599loPI   C2A 9576   1.917  14.537   9.564 -0.2300 -0.0473  0.3444
  599loPI   C3A 9577   2.091  14.715   9.168 -0.0776  0.1678  0.1336
  599loPI   C4A 9578   2.070  14.652   8.731 -0.1406 -0.2102 -0.1046
  599loPI   C5A 9579   2.041  14.678   8.267  0.0588  0.1948 -0.0121
  599loPI   C6A 9580   1.889  14.329   7.976 -0.0664  0.1784  0.1763
  599loPI   C1B 9581   1.990  15.436   9.936  0.2794  0.1180 -0.5224
  599loPI   C2B 9582   2.142  15.527   9.512  0.2808  0.0031 -0.1705
  599loPI   C3B 9583   2.207  15.567   9.029 -0.0325 -0.1306 -0.4321
  599loPI   C4B 9584   2.104  15.564   8.653  0.0623  0.1797 -0.0725
  600loPI    C1 9585  17.871  17.643  10.594 -0.0084  0.2200 -0.0182
  600loPI    C2 9586  18.254  17.655  10.479 -0.0339 -0.1861 -0.1633
  600loPI    C3 9587  18.150  17.452  10.808 -0.0642  0.3407  0.1649
  600loPI   PO4 9588  17.762  17.817  10.442 -0.0797 -0.1957 -0.0121
  600loPI   GL1 9589  17.970  18.168  10.173 -0.2122  0.0390 -0.0027
  600loPI   GL2 9590  18.095  17.916  10.086 -0.0122  0.1040 -0.1624
  600loPI   C1A 9591  17.902  18.338   9.720 -0.0328  0.2240 -0.2897
  600loPI   C2A 9592  17.926  18.483   9.321 -0.1216 -0.0774  0.0103
  600loPI   C3A 9593  17.816  18.876   9.157  0.0819  0.2018 -0.2010
  600loPI   C4A 9594  17.857  19.024   8.771 -0.0621 -0.1550  0.0124
  600loPI   C5A 9595  18.077  18.821   8.491  0.2486  0.0075 -0.2663
  600loPI   C6A 9596  18.454  18.646   8.415  0.2641 -0.0557  0.0881
  600loPI   C1B 9597  18.032  17.867   9.698  0.1042  0.0151  0.3934
  600loPI   C2B 9598  17.709  17.957   9.302 -0.0198 -0.1767 -0.3211
  600loPI   C3B 9599  17.807  18.031   8.866 -0.0073 -0.1656  0.0568
  600loPI   C4B 9600  17.805  17.854   8.409 -0.1258  0.0964  0.0679
  601loPI    C1 9601   5.764  14.816  11.097  0.2476  0.2268  0.0269
  601loPI    C2 9602   5.494  15.110  11.115 -0.3284 -0.2847  0.0891
  601loPI    C3 9603   5.737  15.043  11.426  0.0060  0.2873 -0.0328
  601loPI   PO4 9604   5.812  14.763  10.831  0.2130  0.0274 -0.4522
  601loPI   GL1 9605   5.829  14.883  10.354  0.0852  0.1518 -0.0487
  601loPI   GL2 9606   5.633  14.589  10.425  0.1606  0.3312 -0.4206
  601loPI   C1A 9607   5.930  14.808  10.023 -0.2932 -0.0291 -0.2008
  601loPI   C2A 9608   5.912  14.877   9.607 -0.1267 -0.0702  0.2032
  601loPI   C3A 9609   6.017  14.924   9.204  0.2538 -0.0937  0.2434
  601loPI   C4A 9610   6.012  15.091   8.766  0.1455 -0.2477 -0.1573
  601loPI   C5A 9611   5.855  15.136   8.386  0.2106 -0.0532 -0.3094
  601loPI   C6A 9612   5.557  15.441   8.327 -0.3122 -0.2666 -0.0426
  601loPI   C1B 9613   5.446  14.784  10.007  0.1389 -0.0197  0.1886
  601loPI   C2B 9614   5.415  14.858   9.661  0.1356  0.0564 -0.3369
  601loPI   C3B 9615   5.532  14.987   9.249 -0.0397 -0.1637 -0.1391
  601loPI   C4B 9616   5.522  15.071   8.791  0.0107 -0.0170  0.4143
  602loPI    C1 9617   1.228  15.186  10.629 -0.0232 -0.1738 -0.1175
  602loPI    C2 9618   0.972  15.223  10.934  0.0254  0.0743 -0.1047
  602loPI    C3 9619   1.332  15.060  10.994  0.0755  0.2195 -0.0051
  602loPI   PO4 9620   1.228  15.386  10.494 -0.2249  0.0406 -0.1815
  602loPI   GL1 9621   1.035  15.703  10.250  0.0611  0.2816 -0.4282
  602loPI   GL2 9622   1.001  15.516  10.047  0.0134  0.2867  0.0265
  602loPI   C1A 9623   0.872  16.043  10.042  0.1783 -0.0944 -0.0597
  602loPI   C2A 9624   0.829  16.152   9.641  0.0220  0.0271  0.1175
  602loPI   C3A 9625   0.948  16.062   9.213  0.1864 -0.0098 -0.1060
  602loPI   C4A 9626   1.007  16.004   8.742 -0.1539  0.0709 -0.1707
  602loPI   C5A 9627   0.955  16.209   8.262  0.0906 -0.0886 -0.2209
  602loPI   C6A 9628   0.951  16.528   7.851 -0.3332 -0.1647  0.0241
  602loPI   C1B 9629   1.073  15.698   9.670 -0.0189 -0.1138 -0.1198
  602loPI   C2B 9630   1.161  15.572   9.254  0.0252 -0.0047 -0.0178
  602loPI   C3B 9631   1.157  15.531   8.840  0.2174 -0.0709 -0.2297
  602loPI   C4B 9632   1.083  15.441   8.394  0.0988 -0.2440 -0.4428
  603loPI    C1 9633  14.389   1.019  10.589  0.0091 -0.0336  0.0170
  603loPI    C2 9634  14.008   0.971  10.477 -0.0156  0.0251  0.0755
  603loPI    C3 9635  14.098   1.218  10.778  0.0563 -0.0884  0.1480
  603loPI   PO4 9636  14.568   1.169  10.452  0.0319  0.1847  0.5264
  603loPI   GL1 9637  14.605   1.425  10.159 -0.2774 -0.0102 -0.3462
  603loPI   GL2 9638  14.911   1.521  10.216  0.0101 -0.2057 -0.0517
  603loPI   C1A 9639  14.294   1.432   9.856  0.0485 -0.2288  0.0554
  603loPI   C2A 9640  14.168   1.356   9.427 -0.1431  0.0691  0.4760
  603loPI   C3A 9641  14.156   1.290   8.941 -0.2026  0.2247 -0.0037
  603loPI   C4A 9642  14.063   1.157   8.465 -0.1445 -0.0647 -0.2597
  603loPI   C5A 9643  13.917   1.191   7.992 -0.1406  0.1511 -0.3720
  603loPI   C6A 9644  14.247   0.973   7.768 -0.2319  0.4826 -0.0163
  603loPI   C1B 9645  14.831   1.496   9.767 -0.1364  0.2559 -0.1586
  603loPI   C2B 9646  14.640   1.518   9.346  0.0509 -0.0105  0.0600
  603loPI   C3B 9647  14.660   1.466   8.921 -0.1700  0.2139  0.4338
  603loPI   C4B 9648  14.630   1.350   8.507 -0.0840 -0.0688  0.2435
  604loPI    C1 9649   4.872   2.907  10.801  0.3152 -0.0785 -0.0209
  604loPI    C2 9650   5.058   3.207  10.990 -0.1940  0.0737  0.2596
  604loPI    C3 9651   4.932   2.888  11.196 -0.0089 -0.1531  0.0281
  604loPI   PO4 9652   4.796   2.946  10.608 -0.3210 -0.1161 -0.0531
  604loPI   GL1 9653   4.935   3.032  10.211  0.0559 -0.2041 -0.0372
  604loPI   GL2 9654   4.672   3.113  10.160 -0.2526  0.1837  0.0616
  604loPI   C1A 9655   5.253   3.139   9.937  0.1085  0.0551  0.1344
  604loPI   C2A 9656   5.268   3.112   9.499 -0.0270 -0.0934 -0.0168
  604loPI   C3A 9657   5.288   3.207   9.093  0.1324 -0.1668 -0.0281
  604loPI   C4A 9658   5.283   3.244   8.736  0.1749 -0.3791  0.3024
  604loPI   C5A 9659   5.161   3.295   8.331 -0.1065 -0.0476  0.0059
  604loPI   C6A 9660   4.873   3.365   7.991 -0.0730 -0.0462 -0.4951
  604loPI   C1B 9661   4.800   3.186   9.712  0.2029  0.1847 -0.1966
  604loPI   C2B 9662   4.830   3.204   9.291 -0.2278  0.1651  0.0072
  604loPI   C3B 9663   4.827   3.255   8.818 -0.0978 -0.2120 -0.0661
  604loPI   C4B 9664   4.676   3.280   8.409 -0.1141 -0.2836 -0.0111
  605loPI    C1 9665   7.443  12.531  10.214 -0.0326 -0.0367  0.0654
  605loPI    C2 9666   7.087  12.382  10.110 -0.0179 -0.0291  0.0038
  605loPI    C3 9667   7.115  12.633  10.420 -0.0596 -0.0647  0.0365
  605loPI   PO4 9668   7.620  12.353  10.122  0.0669 -0.1418 -0.3031
  605loPI   GL1 9669   7.768  12.186   9.761 -0.0201  0.0827 -0.0860
  605loPI   GL2 9670   7.873  12.551   9.688 -0.1534  0.0715 -0.0477
  605loPI   C1A 9671   7.878  12.107   9.386 -0.1194 -0.1655  0.0888
  605loPI   C2A 9672   7.805  12.002   8.934 -0.1662  0.0119  0.0930
  605loPI   C3A 9673   7.709  12.114   8.479 -0.0220 -0.2687  0.0961
  605loPI   C4A 9674   7.590  12.089   8.036 -0.2962 -0.1436 -0.5670
  605loPI   C5A 9675   7.356  12.217   7.704 -0.0778  0.1230 -0.0292
  605loPI   C6A 9676   7.004  12.225   7.452 -0.0810 -0.1272 -0.3664
  605loPI   C1B 9677   7.655  12.617   9.242 -0.0283 -0.0528 -0.1894
  605loPI   C2B 9678   7.490  12.557   8.858 -0.1902 -0.0281 -0.0628
  605loPI   C3B 9679   7.500  12.563   8.430 -0.0406  0.0799 -0.0859
  605loPI   C4B 9680   7.320  12.635   8.045  0.2034  0.0513 -0.1516
  606loPI    C1 9681  10.701   6.543  10.747 -0.1551 -0.2070  0.0776
  606loPI    C2 9682  10.858   6.475  11.108  0.0503  0.0161  0.0330
  606loPI    C3 9683  10.470   6.564  11.073  0.0903  0.2796  0.2299
  606loPI   PO4 9684  10.739   6.388  10.579 -0.1718  0.0610  0.0556
  606loPI   GL1 9685  10.828   6.288  10.285 -0.1036 -0.0008 -0.0872
  606loPI   GL2 9686  10.816   6.573  10.056 -0.2325  0.2696  0.1520
  606loPI   C1A 9687  11.025   6.152   9.851 -0.2198 -0.1911  0.1380
  606loPI   C2A 9688  11.176   6.004   9.468 -0.0977 -0.3441 -0.0810
  606loPI   C3A 9689  11.174   6.024   8.989 -0.0962  0.0304 -0.2898
  606loPI   C4A 9690  11.207   6.054   8.576 -0.1349 -0.0880 -0.1092
  606loPI   C5A 9691  11.389   5.664   8.258  0.1858 -0.1112  0.0831
  606loPI   C6A 9692  11.598   5.271   8.113  0.2967 -0.2123  0.5203
  606loPI   C1B 9693  10.659   6.500   9.639 -0.1233  0.2313  0.0857
  606loPI   C2B 9694  10.763   6.207   9.290  0.2576  0.0018  0.1800
  606loPI   C3B 9695  10.728   6.090   8.743 -0.0719 -0.1189 -0.0956
  606loPI   C4B 9696  10.581   6.047   8.333  0.0105  0.0941  0.1208
  607loPI    C1 9697  15.026  13.951  11.023 -0.0709  0.1505  0.1286
  607loPI    C2 9698  15.340  13.712  11.093 -0.0421  0.0956 -0.1773
  607loPI    C3 9699  15.039  13.728  11.356  0.1870  0.1031  0.0893
  607loPI   PO4 9700  15.056  14.009  10.779 -0.1852 -0.1672 -0.1480
  607loPI   GL1 9701  14.953  13.971  10.458 -0.0570 -0.1377 -0.0720
  607loPI   GL2 9702  14.904  13.669  10.253 -0.0758 -0.1191  0.0261
  607loPI   C1A 9703  14.847  14.141   9.995  0.2767 -0.1470 -0.2463
  607loPI   C2A 9704  14.897  14.115   9.571 -0.2609  0.1346 -0.2840
  607loPI   C3A 9705  14.951  14.131   9.126  0.2573 -0.0261 -0.4869
  607loPI   C4A 9706  14.999  14.246   8.679  0.1267  0.2842  0.0236
  607loPI   C5A 9707  14.996  14.171   8.327 -0.1291  0.1148 -0.2612
  607loPI   C6A 9708  15.188  14.288   8.011 -0.0607 -0.0836 -0.1668
  607loPI   C1B 9709  15.108  13.688   9.843 -0.2153  0.0169  0.0761
  607loPI   C2B 9710  15.163  13.749   9.462  0.3195  0.2896  0.2232
  607loPI   C3B 9711  15.263  13.710   9.001  0.0981  0.2647  0.1811
  607loPI   C4B 9712  15.226  13.765   8.536 -0.4290  0.0192  0.4094
  608loPI    C1 9713  10.985  17.127  10.477  0.0211  0.0570 -0.1737
  608loPI    C2 9714  11.195  17.330  10.750  0.1700 -0.2042 -0.0911
  608loPI    C3 9715  10.877  17.114  10.862  0.0826 -0.1128 -0.1614
  608loPI   PO4 9716  11.208  17.033  10.330  0.0447  0.0558  0.1714
  608loPI   GL1 9717  11.537  17.073  10.039 -0.2066 -0.2323  0.0960
  608loPI   GL2 9718  11.257  17.174   9.840  0.2719  0.1228 -0.2660
  608loPI   C1A 9719  11.578  17.472   9.812 -0.1577 -0.0637  0.0646
  608loPI   C2A 9720  11.436  17.646   9.399  0.0915 -0.0969 -0.1900
  608loPI   C3A 9721  11.320  17.665   9.097 -0.2865 -0.0657 -0.0633
  608loPI   C4A 9722  11.229  17.763   8.693  0.0394 -0.1286 -0.3535
  608loPI   C5A 9723  11.446  17.679   8.355  0.0015 -0.0033  0.0177
  608loPI   C6A 9724  11.589  17.710   7.890 -0.2304  0.1482 -0.0099
  608loPI   C1B 9725  11.472  17.177   9.425 -0.2059  0.4371 -0.3000
  608loPI   C2B 9726  11.726  17.235   9.067  0.2211  0.1904 -0.2668
  608loPI   C3B 9727  11.709  17.248   8.615  0.0038 -0.0379 -0.0004
  608loPI   C4B 9728  11.532  17.091   8.181 -0.0537 -0.1327 -0.2037
  609POPI    C1 9729   0.522   6.478  10.954  0.0883  0.0227  0.3475
  609POPI    C2 9730   0.361   6.791  10.763 -0.1607 -0.2299  0.1333
  609POPI    C3 9731   0.741   6.807  10.889 -0.1103  0.0832 -0.0464
  609POPI   PO4 9732   0.501   6.311  10.824  0.0892  0.2300 -0.2448
  609POPI   GL1 9733   0.619   6.359  10.408 -0.0591 -0.2458 -0.0564
  609POPI   GL2 9734   0.670   6.703  10.369  0.3096  0.1358 -0.1663
  609POPI   C1A 9735   0.689   6.128  10.053  0.0685 -0.2065 -0.0678
  609POPI   D2A 9736   0.730   6.134   9.589 -0.4843  0.0062 -0.0908
  609POPI   C3A 9737   0.653   6.152   9.172  0.2409  0.1992 -0.1729
  609POPI   C4A 9738   0.709   6.142   8.749 -0.0899 -0.0498 -0.0144
  609POPI   C1B 9739   0.559   6.640   9.954  0.0862  0.0911 -0.0182
  609POPI   C2B 9740   0.418   6.628   9.609 -0.2713  0.1742 -0.2116
  609POPI   C3B 9741   0.463   6.693   9.179  0.0590 -0.0109  0.0878
  609POPI   C4B 9742   0.528   6.577   8.795 -0.1633 -0.1113 -0.3063
  610POPI    C1 9743   4.996  17.251  10.960  0.0826 -0.1879  0.3140
  610POPI    C2 9744   5.188  17.332  11.301  0.0962  0.1481  0.2303
  610POPI    C3 9745   4.807  17.446  11.254  0.0899  0.0896  0.1386
  610POPI   PO4 9746   5.143  17.342  10.690 -0.0299  0.1100  0.0164
  610POPI   GL1 9747   5.072  17.217  10.300 -0.1556 -0.1287 -0.0194
  610POPI   GL2 9748   5.279  17.601  10.204 -0.0494 -0.1630 -0.2983
  610POPI   C1A 9749   5.344  17.209   9.958  0.1317  0.1259  0.1195
  610POPI   D2A 9750   5.439  17.289   9.508  0.1666 -0.0864 -0.1077
  610POPI   C3A 9751   5.092  17.188   9.153  0.1138 -0.0621  0.0534
  610POPI   C4A 9752   4.825  17.336   8.697  0.0847 -0.0277  0.1422
  610POPI   C1B 9753   5.182  17.744   9.816 -0.2682 -0.0314  0.2485
  610POPI   C2B 9754   5.166  17.658   9.370 -0.0918 -0.5782  0.1355
  610POPI   C3B 9755   5.073  17.686   8.919  0.2064 -0.0886 -0.3263
  610POPI   C4B 9756   4.938  17.785   8.467  0.0578  0.0485  0.0950
  611POPI    C1 9757   3.291   9.034  10.385  0.1675  0.2287 -0.0584
  611POPI    C2 9758   3.250   9.026  10.783  0.2411  0.2287 -0.0506
  611POPI    C3 9759   2.930   8.978  10.548  0.2499 -0.1377  0.0069
  611POPI   PO4 9760   3.459   8.898  10.251 -0.0072 -0.2401  0.0656
  611POPI   GL1 9761   3.445   8.980   9.856 -0.1829  0.3939 -0.0046
  611POPI   GL2 9762   3.647   8.636   9.750  0.2778  0.1255  0.1649
  611POPI   C1A 9763   3.774   9.113   9.677 -0.4032 -0.1129  0.0311
  611POPI   D2A 9764   3.757   9.140   9.251 -0.1465  0.2899 -0.2629
  611POPI   C3A 9765   3.901   9.556   9.136  0.0180 -0.0548 -0.1322
  611POPI   C4A 9766   4.234   9.912   8.974 -0.1215 -0.0754  0.1689
  611POPI   C1B 9767   3.957   8.700   9.375  0.0891 -0.0382 -0.1522
  611POPI   C2B 9768   3.901   8.646   8.903 -0.1274 -0.0814  0.0775
  611POPI   C3B 9769   3.674   8.703   8.521 -0.0460 -0.2869  0.0588
  611POPI   C4B 9770   3.353   8.514   8.287  0.0415  0.0414  0.2918
  612POPI    C1 9771   6.162  10.181  10.402 -0.0904  0.0006  0.2220
  612POPI    C2 9772   6.380   9.846  10.417  0.0236  0.0540 -0.1391
  612POPI    C3 9773   6.012   9.853  10.574  0.2308 -0.0707  0.3738
  612POPI   PO4 9774   6.322  10.320  10.262 -0.6453 -0.0944  0.0284
  612POPI   GL1 9775   6.592  10.344   9.931  0.1503 -0.0959 -0.1176
  612POPI   GL2 9776   6.735  10.087  10.070 -0.2434  0.1481  0.1759
  612POPI   C1A 9777   6.662  10.362   9.457 -0.1052 -0.2283  0.3407
  612POPI   D2A 9778   6.590  10.333   9.068 -0.1394  0.1654  0.2623
  612POPI   C3A 9779   6.528  10.293   8.645 -0.4458  0.2627  0.0705
  612POPI   C4A 9780   6.487  10.312   8.174  0.3148 -0.0613 -0.3286
  612POPI   C1B 9781   6.862   9.922   9.646  0.1726 -0.0165 -0.2250
  612POPI   C2B 9782   6.843   9.936   9.192  0.2057  0.0041 -0.0615
  612POPI   C3B 9783   6.754   9.860   8.767 -0.0180  0.0178  0.1635
  612POPI   C4B 9784   6.613   9.831   8.286 -0.1015 -0.1029  0.0199
  613POPI    C1 9785  17.059   2.994  10.480  0.2394 -0.0704 -0.0847
  613POPI    C2 9786  17.031   3.393  10.470 -0.3902 -0.0913  0.2957
  613POPI    C3 9787  17.327   3.218  10.675 -0.0761  0.1734  0.0786
  613POPI   PO4 9788  17.075   2.827  10.180 -0.1165  0.1214 -0.1148
  613POPI   GL1 9789  17.240   2.826   9.810  0.0288  0.0644 -0.0492
  613POPI   GL2 9790  17.349   2.506   9.809 -0.1531 -0.0868 -0.0957
  613POPI   C1A 9791  16.866   2.914   9.530 -0.0254  0.3803 -0.2537
  613POPI   D2A 9792  16.680   2.902   9.137  0.2896 -0.0988 -0.0036
  613POPI   C3A 9793  16.781   3.007   8.691  0.0009 -0.0166 -0.0648
  613POPI   C4A 9794  16.754   3.180   8.326 -0.3252 -0.5170 -0.2078
  613POPI   C1B 9795  17.123   2.477   9.440  0.3279  0.0262  0.0952
  613POPI   C2B 9796  16.870   2.461   9.116 -0.1398  0.1468 -0.1177
  613POPI   C3B 9797  16.658   2.536   8.700  0.3045 -0.0474 -0.0351
  613POPI   C4B 9798  16.673   2.706   8.311  0.1096  0.0425  0.0869
  614POPI    C1 9799  10.761   0.990  10.603  0.0101  0.1190 -0.3402
  614POPI    C2 9800  10.626   0.614  10.627  0.1464  0.0826 -0.1119
  614POPI    C3 9801  10.998   0.700  10.746  0.1833  0.2559 -0.3462
  614POPI   PO4 9802  10.482   1.075  10.564 -0.0282 -0.0464 -0.0278
  614POPI   GL1 9803  10.279   1.086  10.212  0.2414  0.0348  0.1435
  614POPI   GL2 9804  10.542   0.807  10.158 -0.1032  0.3469  0.0973
  614POPI   C1A 9805  10.331   1.074   9.773 -0.0426  0.0513 -0.1702
  614POPI   D2A 9806  10.407   1.135   9.267  0.2353  0.0440 -0.1579
  614POPI   C3A 9807  10.265   0.813   8.980  0.2398  0.1781 -0.1592
  614POPI   C4A 9808  10.089   0.452   8.773 -0.0650 -0.2249 -0.2229
  614POPI   C1B 9809  10.762   0.743   9.759 -0.0779  0.1383 -0.0568
  614POPI   C2B 9810  10.759   0.794   9.309 -0.2554  0.0154 -0.0006
  614POPI   C3B 9811  10.698   0.775   8.821  0.1417 -0.0486  0.1636
  614POPI   C4B 9812  10.528   0.778   8.383 -0.3583  0.0254  0.1672
  615POPI    C1 9813  16.148   0.516  10.484 -0.0729  0.0541  0.2130
  615POPI    C2 9814  16.254   0.899  10.440  0.0317  0.0229  0.1898
  615POPI    C3 9815  16.302   0.718  10.793  0.2693 -0.0557  0.1193
  615POPI   PO4 9816  16.016   0.425  10.278  0.0528 -0.1601 -0.1733
  615POPI   GL1 9817  15.903   0.379   9.914 -0.2302 -0.0497 -0.1759
  615POPI   GL2 9818  16.091   0.586   9.847 -0.0262 -0.2253 -0.0716
  615POPI   C1A 9819  15.531   0.340   9.615 -0.0027 -0.4061 -0.0525
  615POPI   D2A 9820  15.371   0.258   9.154  0.0324 -0.2772  0.3103
  615POPI   C3A 9821  15.343  -0.126   9.163 -0.2440  0.0329 -0.0928
  615POPI   C4A 9822  15.334  -0.532   9.304 -0.2620 -0.3144  0.2198
  615POPI   C1B 9823  15.996   0.470   9.420 -0.2671  0.2364 -0.0028
  615POPI   C2B 9824  15.881   0.541   8.952 -0.1819 -0.3601  0.3349
  615POPI   C3B 9825  15.808   0.602   8.504  0.3237  0.4857  0.2122
  615POPI   C4B 9826  15.697   0.712   8.114  0.0780 -0.1300 -0.1220
  616POPI    C1 9827   7.626  15.855  10.900 -0.0126 -0.2277  0.0432
  616POPI    C2 9828   7.868  15.653  10.655  0.0247 -0.1617  0.0253
  616POPI    C3 9829   7.737  15.482  10.993  0.1954 -0.1537  0.0966
  616POPI   PO4 9830   7.673  16.078  10.850  0.1746  0.0086 -0.0484
  616POPI   GL1 9831   7.751  16.350  10.480 -0.2526  0.2832 -0.0544
  616POPI   GL2 9832   7.364  16.343  10.334 -0.1765  0.3370  0.2776
  616POPI   C1A 9833   7.931  16.121  10.210  0.2164  0.0363  0.1879
  616POPI   D2A 9834   7.813  16.073   9.798 -0.1768 -0.0633 -0.1628
  616POPI   C3A 9835   8.112  15.800   9.510  0.2969  0.0049  0.1304
  616POPI   C4A 9836   8.182  15.693   9.160 -0.2187 -0.2356  0.1294
  616POPI   C1B 9837   7.317  16.090   9.912 -0.1800  0.4039 -0.1771
  616POPI   C2B 9838   7.414  16.123   9.404  0.0397 -0.3265 -0.2219
  616POPI   C3B 9839   7.500  16.197   8.957 -0.0086  0.3052 -0.1162
  616POPI   C4B 9840   7.728  16.143   8.517  0.3083 -0.4845 -0.2485
  617POPI    C1 9841   9.415  17.471  11.021  0.0416 -0.0458 -0.1488
  617POPI    C2 9842   9.315  17.143  11.227  0.0027  0.0463 -0.0199
  617POPI    C3 9843   9.660  17.330  11.304  0.1382 -0.1006 -0.2594
  617POPI   PO4 9844   9.485  17.410  10.730  0.0022  0.0928  0.0531
  617POPI   GL1 9845   9.459  17.395  10.345 -0.2857  0.0538 -0.0248
  617POPI   GL2 9846   9.521  17.038  10.317 -0.0139 -0.1565  0.1637
  617POPI   C1A 9847   9.454  17.659  10.008 -0.2595 -0.1692  0.4755
  617POPI   D2A 9848   9.241  18.001   9.720  0.0822 -0.2373 -0.1356
  617POPI   C3A 9849   8.855  17.976   9.417 -0.1674  0.1323 -0.1731
  617POPI   C4A 9850   8.560  17.915   9.073  0.0153 -0.2321  0.0795
  617POPI   C1B 9851   9.228  17.109   9.912 -0.1060  0.1177 -0.0346
  617POPI   C2B 9852   9.019  17.090   9.499  0.0220  0.1538 -0.1956
  617POPI   C3B 9853   8.789  17.073   9.054 -0.0058  0.3480  0.0763
  617POPI   C4B 9854   8.466  17.059   8.647  0.0620  0.0189  0.3829
  618POPI    C1 9855   8.995  15.549  11.106  0.1707  0.0771  0.0981
  618POPI    C2 9856   9.044  15.732  11.458 -0.0537 -0.1728  0.2634
  618POPI    C3 9857   9.084  15.335  11.432  0.1046 -0.1409 -0.0245
  618POPI   PO4 9858   9.044  15.686  10.911 -0.0099 -0.0765  0.0724
  618POPI   GL1 9859   9.120  15.826  10.461  0.2021 -0.0903 -0.0445
  618POPI   GL2 9860   8.781  15.837  10.342 -0.0040  0.1097  0.0222
  618POPI   C1A 9861   9.241  16.130  10.106  0.3855 -0.0530  0.1286
  618POPI   D2A 9862   9.551  16.267   9.830  0.0170  0.0016  0.1260
  618POPI   C3A 9863   9.371  16.346   9.350  0.1913  0.2556  0.0686
  618POPI   C4A 9864   9.325  16.363   8.887  0.0450  0.1297 -0.2432
  618POPI   C1B 9865   8.934  15.726   9.953 -0.1591 -0.2532  0.0997
  618POPI   C2B 9866   9.040  15.548   9.503  0.0046  0.4129 -0.0796
  618POPI   C3B 9867   9.262  15.462   9.043  0.1141 -0.0290 -0.2219
  618POPI   C4B 9868   9.651  15.404   8.930 -0.0996 -0.2778  0.1463
  619POPI    C1 9869   2.607  11.510  10.572  0.1149 -0.0114 -0.0063
  619POPI    C2 9870   2.765  11.339  10.898  0.0643  0.1063  0.0807
  619POPI    C3 9871   2.368  11.361  10.856  0.0702 -0.0155 -0.0461
  619POPI   PO4 9872   2.778  11.465  10.438  0.0408 -0.4143 -0.0521
  619POPI   GL1 9873   2.660  11.636  10.027  0.1304  0.1810  0.1853
  619POPI   GL2 9874   2.493  11.321   9.898  0.2195  0.0392 -0.1657
  619POPI   C1A 9875   2.305  11.757   9.783 -0.2713 -0.1134  0.0127
  619POPI   D2A 9876   2.197  11.701   9.344 -0.0945  0.0590  0.0188
  619POPI   C3A 9877   2.320  11.898   8.948  0.0535  0.1978 -0.3221
  619POPI   C4A 9878   2.277  11.875   8.570  0.2524 -0.1354  0.0172
  619POPI   C1B 9879   2.394  11.263   9.372  0.0150 -0.0922  0.2057
  619POPI   C2B 9880   2.419  11.309   8.947 -0.1499  0.0891 -0.1164
  619POPI   C3B 9881   2.486  11.442   8.499 -0.2013  0.0696  0.1838
  619POPI   C4B 9882   2.708  11.387   8.073  0.0779  0.1210  0.1207
  620POPI    C1 9883  16.007  14.830  11.085 -0.0741 -0.0950  0.0521
  620POPI    C2 9884  16.162  14.470  11.161  0.2105  0.0087 -0.0245
  620POPI    C3 9885  16.003  14.686  11.458  0.2348 -0.0883  0.0600
  620POPI   PO4 9886  16.080  14.824  10.834  0.0233 -0.0874  0.0680
  620POPI   GL1 9887  15.902  14.727  10.450 -0.3490 -0.1473 -0.0049
  620POPI   GL2 9888  15.603  14.753  10.457 -0.0381 -0.1862 -0.0737
  620POPI   C1A 9889  16.084  14.559  10.087 -0.1579 -0.1477  0.2018
  620POPI   D2A 9890  16.239  14.539   9.682  0.2692 -0.1144  0.3585
  620POPI   C3A 9891  16.472  14.491   9.373  0.1513  0.1060 -0.0682
  620POPI   C4A 9892  16.880  14.467   9.246 -0.0341  0.1530 -0.2728
  620POPI   C1B 9893  15.584  14.710  10.057  0.0054 -0.2613  0.0172
  620POPI   C2B 9894  15.712  14.653   9.702 -0.0178 -0.2642 -0.1025
  620POPI   C3B 9895  15.780  14.594   9.226  0.0487 -0.0507  0.0650
  620POPI   C4B 9896  16.175  14.532   8.907  0.0646 -0.0974  0.1602
  621POPI    C1 9897   6.600   4.574  10.655  0.0094 -0.2935 -0.2317
  621POPI    C2 9898   6.965   4.734  10.701 -0.0465 -0.1795 -0.1797
  621POPI    C3 9899   6.640   4.948  10.793 -0.1329 -0.2233 -0.3776
  621POPI   PO4 9900   6.595   4.522  10.401 -0.0292 -0.3172  0.0416
  621POPI   GL1 9901   6.501   4.726  10.031 -0.0087 -0.0786 -0.4838
  621POPI   GL2 9902   6.621   4.491   9.806 -0.0701 -0.1734  0.1619
  621POPI   C1A 9903   6.424   4.881   9.631 -0.1894 -0.1232  0.0293
  621POPI   D2A 9904   6.321   4.971   9.269  0.0015 -0.0804 -0.0287
  621POPI   C3A 9905   6.338   4.999   8.788 -0.0173 -0.2936 -0.0399
  621POPI   C4A 9906   6.347   5.119   8.354  0.0609  0.3513 -0.2488
  621POPI   C1B 9907   6.585   4.465   9.425 -0.0495  0.0397  0.0037
  621POPI   C2B 9908   6.500   4.532   8.985  0.2602 -0.0291  0.1455
  621POPI   C3B 9909   6.525   4.450   8.533 -0.1382 -0.0070 -0.0388
  621POPI   C4B 9910   6.514   4.692   8.149  0.0641 -0.0362 -0.1287
  622POPI    C1 9911   3.547  13.200  10.341  0.1212  0.1338 -0.1381
  622POPI    C2 9912   3.927  13.132  10.235  0.1199  0.1970 -0.1846
  622POPI    C3 9913   3.840  13.242  10.610  0.1054 -0.2133 -0.0619
  622POPI   PO4 9914   3.383  12.976  10.296 -0.1046 -0.3996  0.3110
  622POPI   GL1 9915   3.057  12.905  10.020 -0.0289 -0.1816  0.1350
  622POPI   GL2 9916   3.164  13.075   9.801 -0.0718 -0.0974 -0.0436
  622POPI   C1A 9917   3.042  12.595   9.670  0.0171  0.0033 -0.2375
  622POPI   D2A 9918   3.374  12.719   9.283  0.1580  0.0207  0.0113
  622POPI   C3A 9919   3.787  12.706   9.390  0.0297  0.0731 -0.2153
  622POPI   C4A 9920   4.174  12.617   9.230  0.1521 -0.3455  0.1965
  622POPI   C1B 9921   2.856  13.073   9.540 -0.0676  0.2610 -0.1100
  622POPI   C2B 9922   2.697  13.129   9.072  0.0361  0.0654  0.1972
  622POPI   C3B 9923   2.763  13.170   8.594  0.0237 -0.1016 -0.1227
  622POPI   C4B 9924   2.881  13.161   8.129  0.2304  0.1767 -0.0518
  623POPI    C1 9925  15.607   7.525  10.466 -0.2037 -0.0840  0.0252
  623POPI    C2 9926  15.798   7.203  10.608 -0.2135 -0.0827  0.0416
  623POPI    C3 9927  15.401   7.230  10.642 -0.1955  0.0057  0.1872
  623POPI   PO4 9928  15.619   7.604  10.244 -0.1185  0.0325 -0.2728
  623POPI   GL1 9929  15.864   7.768   9.977 -0.0580 -0.2322  0.0933
  623POPI   GL2 9930  16.158   7.900  10.082 -0.3096  0.2055  0.2340
  623POPI   C1A 9931  15.703   7.982   9.560 -0.3142  0.1522  0.1486
  623POPI   D2A 9932  15.423   8.359   9.392  0.0459  0.0713 -0.0076
  623POPI   C3A 9933  15.507   8.333   8.908 -0.1934  0.0004  0.4749
  623POPI   C4A 9934  15.559   8.477   8.486 -0.0367 -0.1074  0.0116
  623POPI   C1B 9935  16.181   7.978   9.620  0.4098  0.0491  0.1318
  623POPI   C2B 9936  16.141   7.826   9.228 -0.0937 -0.1623  0.0010
  623POPI   C3B 9937  15.863   7.878   8.877 -0.1749  0.0979 -0.0421
  623POPI   C4B 9938  15.565   7.991   8.510  0.1533 -0.2103  0.1069
  624POPI    C1 9939  17.628   2.533  10.303 -0.1125 -0.0526  0.1090
  624POPI    C2 9940  17.861   2.418  10.607  0.0340  0.1258  0.0661
  624POPI    C3 9941  17.636   2.747  10.640  0.0103  0.1164  0.0004
  624POPI   PO4 9942  17.785   2.277  10.068  0.0700 -0.1544  0.1146
  624POPI   GL1 9943  17.873   2.314   9.690  0.2117 -0.1269  0.0341
  624POPI   GL2 9944  18.190   2.321   9.769  0.2071  0.0120 -0.0424
  624POPI   C1A 9945  17.885   1.932   9.451 -0.2800 -0.0403  0.1621
  624POPI   D2A 9946  18.061   1.796   9.051 -0.2004 -0.1434 -0.2518
  624POPI   C3A 9947  17.794   1.637   8.721 -0.1510  0.1161 -0.2506
  624POPI   C4A 9948  17.714   1.273   8.566  0.2159 -0.1767 -0.1334
  624POPI   C1B 9949  18.279   2.288   9.313  0.2044  0.1423  0.2797
  624POPI   C2B 9950  18.188   2.303   8.933  0.0428  0.1982 -0.1608
  624POPI   C3B 9951  18.177   2.221   8.494 -0.1284 -0.0344 -0.3110
  624POPI   C4B 9952  17.957   1.889   8.321 -0.1683 -0.1485 -0.1181
  625DPPI    C1 9953  16.088  16.125  10.861  0.1136  0.0637 -0.0410
  625DPPI    C2 9954  15.887  16.083  11.205  0.2846 -0.1853  0.0308
  625DPPI    C3 9955  16.085  16.422  11.129  0.0174 -0.0216  0.0536
  625DPPI   PO4 9956  16.144  15.787  10.818 -0.2018  0.1641 -0.2184
  625DPPI   GL1 9957  16.176  15.601  10.386 -0.0292 -0.4118 -0.0039
  625DPPI   GL2 9958  15.832  15.852  10.430  0.0270 -0.1296 -0.2265
  625DPPI   C1A 9959  16.058  15.539   9.950  0.1182 -0.1412  0.0222
  625DPPI   C2A 9960  15.951  15.520   9.470  0.1781  0.1922  0.0741
  625DPPI   C3A 9961  15.980  15.376   9.092  0.3754 -0.3125  0.2823
  625DPPI   C4A 9962  15.923  15.504   8.690 -0.1377 -0.1038 -0.0905
  625DPPI   C1B 9963  15.878  15.982   9.996  0.0164  0.0681  0.1028
  625DPPI   C2B 9964  15.809  16.019   9.543  0.0692  0.0555  0.2537
  625DPPI   C3B 9965  15.517  15.812   9.492 -0.0713  0.2311 -0.0465
  625DPPI   C4B 9966  15.239  15.474   9.453 -0.1844 -0.1163 -0.2903
  626DPPI    C1 9967  10.784   2.469  10.791  0.2098 -0.0624 -0.1444
  626DPPI    C2 9968  10.795   2.666  11.140  0.0195  0.0426 -0.1965
  626DPPI    C3 9969  10.567   2.339  11.101  0.1603 -0.0590 -0.1779
  626DPPI   PO4 9970  10.869   2.681  10.640  0.4407 -0.0923  0.0991
  626DPPI   GL1 9971  10.857   2.897  10.369 -0.0240 -0.1027 -0.2084
  626DPPI   GL2 9972  10.547   3.065  10.464  0.1522  0.0806 -0.0896
  626DPPI   C1A 9973  11.056   2.809   9.927  0.1207  0.1054  0.0677
  626DPPI   C2A 9974  11.168   2.792   9.470 -0.3160 -0.0358  0.1444
  626DPPI   C3A 9975  11.254   2.819   9.045  0.1517  0.0384  0.0175
  626DPPI   C4A 9976  11.273   2.862   8.685 -0.0586 -0.1982 -0.1188
  626DPPI   C1B 9977  10.531   3.040   9.969 -0.2759  0.1555 -0.0989
  626DPPI   C2B 9978  10.408   3.075   9.518 -0.1742  0.0280 -0.2096
  626DPPI   C3B 9979  10.389   3.072   9.060  0.1591  0.1912 -0.1398
  626DPPI   C4B 9980  10.345   3.168   8.643  0.0141  0.3070 -0.0166
  627DPPI    C1 9981  13.621  10.581  10.917  0.0436  0.0134 -0.1818
  627DPPI    C2 9982  13.232  10.537  10.836  0.0021 -0.0454  0.0431
  627DPPI    C3 9983  13.351  10.609  11.211  0.2195 -0.1791  0.0014
  627DPPI   PO4 9984  13.767  10.409  10.867 -0.0511 -0.3644 -0.1242
  627DPPI   GL1 9985  13.960  10.316  10.535 -0.0783  0.1265  0.1850
  627DPPI   GL2 9986  14.252  10.361  10.552 -0.1144 -0.1225  0.0722
  627DPPI   C1A 9987  13.652  10.281  10.145  0.1451 -0.0439 -0.1210
  627DPPI   C2A 9988  13.612  10.379   9.709 -0.2059  0.0947  0.0214
  627DPPI   C3A 9989  13.614  10.317   9.353  0.0902 -0.1071 -0.3688
  627DPPI   C4A 9990  13.688  10.337   8.935 -0.1739 -0.0107 -0.1928
  627DPPI   C1B 9991  14.154  10.315  10.058  0.1046 -0.0834 -0.0562
  627DPPI   C2B 9992  14.072  10.267   9.582  0.0018 -0.0734  0.1197
  627DPPI   C3B 9993  14.157  10.282   9.092  0.0555  0.1358 -0.2253
  627DPPI   C4B 9994  14.219  10.317   8.637  0.2581 -0.1830 -0.3386
  628DPPI    C1 9995  17.547   1.695  10.816  0.0828  0.0028  0.0547
  628DPPI    C2 9996  17.841   1.452  10.696  0.0185 -0.0988  0.1014
  628DPPI    C3 9997  17.765   1.496  11.086  0.0176 -0.0179  0.0922
  628DPPI   PO4 9998  17.456   1.812  10.539 -0.2950 -0.0535 -0.0437
  628DPPI   GL1 9999  17.366   1.799  10.100 -0.0496  0.0013  0.2694
  628DPPI   GL210000  17.460   1.924   9.809  0.0925  0.0117 -0.4059
  628DPPI   C1A10001  17.012   1.525   9.987 -0.1270  0.0516  0.0097
  628DPPI   C2A10002  17.054   1.495   9.525 -0.0570 -0.0986  0.1084
  628DPPI   C3A10003  16.970   1.457   9.059 -0.3505 -0.0789 -0.0397
  628DPPI   C4A10004  16.843   1.625   8.697  0.1033 -0.0421  0.0858
  628DPPI   C1B10005  17.420   2.109   9.408 -0.0100 -0.1684 -0.2054
  628DPPI   C2B10006  17.605   2.106   8.999 -0.2664  0.0928  0.0368
  628DPPI   C3B10007  17.683   2.381   8.702 -0.1083 -0.0546  0.0905
  628DPPI   C4B10008  17.626   2.239   8.355  0.0104 -0.0389 -0.0297
  629DPPI    C110009  15.734  17.186  10.549 -0.0780 -0.2830 -0.0095
  629DPPI    C210010  16.001  17.255  10.839 -0.2075 -0.1084  0.0699
  629DPPI    C310011  16.101  17.028  10.526 -0.0114 -0.1588  0.1673
  629DPPI   PO410012  15.514  17.093  10.706  0.2210 -0.0412  0.1324
  629DPPI   GL110013  15.168  17.049  10.334 -0.2147  0.1171  0.2021
  629DPPI   GL210014  15.321  17.406  10.213  0.1085 -0.1303 -0.1737
  629DPPI   C1A10015  14.979  17.135   9.942  0.1230 -0.0487  0.2823
  629DPPI   C2A10016  15.047  17.275   9.489  0.1904  0.0099  0.0120
  629DPPI   C3A10017  15.043  17.298   9.069 -0.0063  0.2321  0.0703
  629DPPI   C4A10018  15.066  17.408   8.661  0.3564  0.1126 -0.1456
  629DPPI   C1B10019  15.192  17.622   9.808  0.1601 -0.0979 -0.3006
  629DPPI   C2B10020  15.325  18.024   9.722  0.1315  0.0420  0.2311
  629DPPI   C3B10021  15.015  18.289   9.515  0.0678  0.2453  0.1013
  629DPPI   C4B10022  14.913  18.345   9.152 -0.0377 -0.0679  0.1922
  630DPPI    C110023   8.461  16.363  11.134  0.4342 -0.0918  0.0784
  630DPPI    C210024   8.627  16.622  11.391 -0.0015  0.2294  0.0465
  630DPPI    C310025   8.358  16.356  11.521  0.0101  0.1834 -0.0231
  630DPPI   PO410026   8.452  16.492  10.940 -0.4061  0.0605 -0.1338
  630DPPI   GL110027   8.707  16.598  10.690 -0.0152  0.0609  0.0615
  630DPPI   GL210028   8.647  16.881  10.660 -0.0683  0.0547  0.1277
  630DPPI   C1A10029   8.722  16.400  10.208  0.1292  0.1515  0.0967
  630DPPI   C2A10030   8.767  16.269   9.861  0.0721 -0.0350  0.0423
  630DPPI   C3A10031   8.847  16.016   9.558 -0.0157 -0.1142 -0.1423
  630DPPI   C4A10032   8.992  16.063   9.161 -0.0165  0.3657 -0.0848
  630DPPI   C1B10033   8.625  16.889  10.305  0.0703 -0.0004  0.0591
  630DPPI   C2B10034   8.649  16.829   9.842 -0.0256  0.2170  0.0375
  630DPPI   C3B10035   8.501  16.769   9.366  0.3039  0.2069 -0.0116
  630DPPI   C4B10036   8.297  16.495   9.011 -0.2683  0.0984  0.0488
  631DPPI    C110037  11.570  17.907  10.746  0.1206 -0.0209  0.0297
  631DPPI    C210038  11.408  17.719  11.059  0.0843  0.0620  0.0608
  631DPPI    C310039  11.492  18.110  11.082  0.2126  0.0374  0.0163
  631DPPI   PO410040  11.353  17.830  10.547  0.2064  0.0293  0.3433
  631DPPI   GL110041  11.534  17.857  10.153 -0.2317 -0.2774  0.1509
  631DPPI   GL210042  11.513  18.198  10.294 -0.5740  0.0103 -0.1918
  631DPPI   C1A10043  11.214  17.880   9.794  0.1416 -0.0409  0.2377
  631DPPI   C2A10044  10.885  17.881   9.489  0.0557  0.0740  0.0282
  631DPPI   C3A10045  10.858  18.059   9.111  0.0371 -0.0854 -0.0311
  631DPPI   C4A10046  10.761  18.015   8.708 -0.0596 -0.0602  0.1628
  631DPPI   C1B10047  11.263  18.384   9.912 -0.0368 -0.0428 -0.0272
  631DPPI   C2B10048  11.017  18.397   9.582 -0.1997  0.0169  0.1589
  631DPPI   C3B10049  11.031  18.566   9.111  0.2865  0.3972 -0.0704
  631DPPI   C4B10050  10.978  18.485   8.654  0.1891  0.0575 -0.1871
  632DPPI    C110051  11.164   9.597  10.524 -0.2751  0.2951  0.0794
  632DPPI    C210052  11.339   9.945  10.616  0.0052  0.1828 -0.0174
  632DPPI    C310053  11.377   9.631  10.861  0.0541  0.1193 -0.1060
  632DPPI   PO410054  11.328   9.440  10.329 -0.1031 -0.0905  0.0568
  632DPPI   GL110055  11.491   9.638  10.047  0.1146  0.0406 -0.0302
  632DPPI   GL210056  11.608   9.922  10.160  0.0899  0.0487  0.0871
  632DPPI   C1A10057  11.428   9.663   9.522 -0.0397  0.1853 -0.1695
  632DPPI   C2A10058  11.414   9.738   9.107 -0.2765  0.3410 -0.0945
  632DPPI   C3A10059  11.308   9.649   8.686 -0.1102 -0.1616 -0.2668
  632DPPI   C4A10060  11.164   9.898   8.227  0.2074 -0.1461  0.1002
  632DPPI   C1B10061  11.785  10.046   9.770  0.1694 -0.1486 -0.0221
  632DPPI   C2B10062  11.729  10.072   9.361  0.4403 -0.2226  0.0349
  632DPPI   C3B10063  11.725  10.049   8.927  0.0125 -0.0578 -0.2562
  632DPPI   C4B10064  11.727   9.794   8.451 -0.4217  0.1528 -0.0143
  633DPPI    C110065   0.815   8.198  10.662 -0.0150 -0.0219 -0.1910
  633DPPI    C210066   1.000   8.150  11.013 -0.0158  0.0973 -0.1737
  633DPPI    C310067   0.626   8.017  10.964  0.0525 -0.0922 -0.1906
  633DPPI   PO410068   0.937   8.110  10.454 -0.0917  0.3138 -0.2330
  633DPPI   GL110069   1.083   8.237  10.131  0.1226 -0.2196  0.1031
  633DPPI   GL210070   1.332   8.153  10.039 -0.1275 -0.3576 -0.1274
  633DPPI   C1A10071   0.875   8.623   9.861 -0.2455 -0.0644  0.1100
  633DPPI   C2A10072   0.620   8.765   9.511 -0.1863  0.0575 -0.2116
  633DPPI   C3A10073   0.613   8.814   9.091 -0.0412  0.1228 -0.1851
  633DPPI   C4A10074   0.600   8.574   8.768  0.1775 -0.0747 -0.1951
  633DPPI   C1B10075   1.289   8.195   9.576  0.0186 -0.0431  0.1532
  633DPPI   C2B10076   1.163   7.933   9.253  0.2608  0.1369 -0.1658
  633DPPI   C3B10077   1.220   7.700   8.911 -0.1202  0.1410 -0.1184
  633DPPI   C4B10078   1.435   7.350   8.837  0.2440 -0.0522  0.1062
  634DPPI    C110079  15.490  12.780  10.486 -0.0439 -0.0064 -0.1805
  634DPPI    C210080  15.562  12.802  10.879  0.1461 -0.0893 -0.2094
  634DPPI    C310081  15.275  13.026  10.715 -0.0721 -0.2042  0.0096
  634DPPI   PO410082  15.672  12.694  10.396  0.0981  0.1221 -0.1394
  634DPPI   GL110083  15.937  12.623   9.985  0.0812 -0.0044  0.1612
  634DPPI   GL210084  15.836  12.279  10.132  0.3281 -0.0385  0.3539
  634DPPI   C1A10085  16.054  12.723   9.550 -0.0270 -0.0477 -0.2615
  634DPPI   C2A10086  16.273  12.870   9.249 -0.3354 -0.0683 -0.3421
  634DPPI   C3A10087  16.495  13.106   8.858  0.1736 -0.2055 -0.0483
  634DPPI   C4A10088  16.837  13.093   8.542  0.1835 -0.0755  0.0748
  634DPPI   C1B10089  15.735  12.344   9.639  0.0396 -0.0203 -0.3500
  634DPPI   C2B10090  15.771  12.319   9.214  0.1980  0.0087  0.1913
  634DPPI   C3B10091  15.946  12.662   9.023  0.0639  0.0454 -0.1005
  634DPPI   C4B10092  16.148  12.795   8.638 -0.2554  0.0108  0.0456
  635PYPI    C110093  15.500   6.764  10.449 -0.0761  0.2797  0.2266
  635PYPI    C210094  15.897   6.730  10.491 -0.0708 -0.1744 -0.1124
  635PYPI    C310095  15.654   6.619  10.789  0.0512  0.1048  0.0963
  635PYPI   PO410096  15.610   6.738  10.132  0.1567 -0.2736 -0.0155
  635PYPI   GL110097  15.725   6.980   9.714 -0.0524 -0.0190 -0.0891
  635PYPI   GL210098  15.541   6.787   9.597  0.2330  0.0508  0.1175
  635PYPI   C1A10099  16.011   6.971   9.385 -0.1118  0.0224  0.0450
  635PYPI   C2A10100  16.089   6.844   9.030  0.0214  0.0931  0.0746
  635PYPI   D3A10101  16.277   6.898   8.767 -0.0360  0.1546  0.1937
  635PYPI   C4A10102  16.635   7.100   8.830 -0.1292  0.1030  0.2467
  635PYPI   C1B10103  15.593   6.839   9.119  0.1954  0.0413 -0.0129
  635PYPI   C2B10104  15.685   7.018   8.805  0.1679 -0.0346  0.1121
  635PYPI   C3B10105  15.894   7.049   8.434 -0.1254 -0.2821  0.0754
  635PYPI   C4B10106  16.269   7.159   8.315  0.2119 -0.0603  0.0860
  636PYPI    C110107  14.952   7.490  10.683  0.2978  0.0169 -0.0377
  636PYPI    C210108  15.201   7.440  10.992  0.2757  0.0302 -0.0175
  636PYPI    C310109  14.956   7.756  10.981 -0.0905 -0.2377  0.2047
  636PYPI   PO410110  15.053   7.471  10.441 -0.1850 -0.2482 -0.2558
  636PYPI   GL110111  15.077   7.623  10.061 -0.0036  0.0211  0.0166
  636PYPI   GL210112  15.290   7.903  10.159 -0.1180  0.3055  0.2326
  636PYPI   C1A10113  15.014   7.520   9.646  0.0453  0.4734 -0.0479
  636PYPI   C2A10114  14.879   7.518   9.204  0.1991 -0.0478  0.0180
  636PYPI   D3A10115  14.748   7.508   8.904 -0.0935 -0.0248 -0.0491
  636PYPI   C4A10116  14.840   7.358   8.517 -0.1785  0.1948  0.1974
  636PYPI   C1B10117  15.214   7.975   9.694  0.1268 -0.1799  0.0435
  636PYPI   C2B10118  15.283   7.928   9.208 -0.0726 -0.2043  0.1597
  636PYPI   C3B10119  15.135   7.939   8.835 -0.1229  0.1238  0.2732
  636PYPI   C4B10120  15.015   7.802   8.402 -0.4402 -0.0039  0.0744
  637PYPI    C110121  15.370  15.257  10.891  0.1944  0.0308 -0.3111
  637PYPI    C210122  15.580  14.918  10.911  0.2358  0.0784  0.1744
  637PYPI    C310123  15.214  14.936  11.071  0.1638  0.2140 -0.0028
  637PYPI   PO410124  15.296  15.311  10.650 -0.1991 -0.1237 -0.1509
  637PYPI   GL110125  15.599  15.396  10.257  0.0764  0.1002 -0.0634
  637PYPI   GL210126  15.334  15.113  10.194 -0.0625  0.0103 -0.0836
  637PYPI   C1A10127  15.593  15.360   9.842 -0.0733 -0.0193 -0.1923
  637PYPI   C2A10128  15.583  15.110   9.494  0.1523 -0.1034 -0.1317
  637PYPI   D3A10129  15.523  15.043   9.090 -0.2104  0.0841  0.2963
  637PYPI   C4A10130  15.434  15.465   8.945  0.6149  0.3240 -0.1255
  637PYPI   C1B10131  15.201  14.988   9.772 -0.3046 -0.0079 -0.0608
  637PYPI   C2B10132  14.979  15.078   9.471  0.0256  0.0856  0.0267
  637PYPI   C3B10133  15.022  15.129   9.176  0.0936 -0.1380  0.1226
  637PYPI   C4B10134  15.180  15.073   8.664 -0.1930 -0.1200  0.0995
  638PYPI    C110135   8.497   4.990  10.779 -0.0242  0.1363  0.0433
  638PYPI    C210136   8.867   5.053  10.917  0.0560  0.3488 -0.2591
  638PYPI    C310137   8.551   5.134  11.148  0.1962  0.0853  0.0322
  638PYPI   PO410138   8.606   5.006  10.507  0.2279 -0.4085  0.0462
  638PYPI   GL110139   8.721   5.246  10.131 -0.0614  0.1830  0.4346
  638PYPI   GL210140   8.378   5.166  10.087  0.2544  0.0804  0.0064
  638PYPI   C1A10141   8.631   5.323   9.676  0.0404 -0.2512  0.3603
  638PYPI   C2A10142   8.643   5.341   9.135  0.0584 -0.0745 -0.1477
  638PYPI   D3A10143   8.559   5.300   8.626  0.3700 -0.0909  0.0024
  638PYPI   C4A10144   8.486   5.501   8.175  0.0167  0.4621  0.1999
  638PYPI   C1B10145   8.174   5.366   9.789 -0.2625  0.5424  0.1936
  638PYPI   C2B10146   8.179   5.276   9.333 -0.2397  0.0054  0.0518
  638PYPI   C3B10147   8.090   5.288   8.879 -0.1383  0.3614  0.0851
  638PYPI   C4B10148   8.127   5.218   8.488 -0.0996  0.4277 -0.6862
  639PYPI    C110149   8.291   0.251  11.000 -0.0102 -0.0081 -0.1045
  639PYPI    C210150   8.254   0.400  11.370  0.0220 -0.1197 -0.0556
  639PYPI    C310151   8.595   0.223  11.259 -0.0069 -0.1344 -0.1215
  639PYPI   PO410152   8.193   0.384  10.757  0.0316  0.0082  0.6078
  639PYPI   GL110153   8.283   0.572  10.372  0.1391  0.3065 -0.0700
  639PYPI   GL210154   7.975   0.468  10.262 -0.1069 -0.1473 -0.0231
  639PYPI   C1A10155   8.160   0.780   9.987  0.1950  0.0365  0.0330
  639PYPI   C2A10156   8.040   0.819   9.545  0.2793 -0.0406 -0.2422
  639PYPI   D3A10157   7.936   0.801   9.158 -0.2257 -0.0884 -0.0237
  639PYPI   C4A10158   8.087   0.629   8.751 -0.0516  0.0984 -0.0368
  639PYPI   C1B10159   7.886   0.344   9.889 -0.0549  0.3741 -0.0080
  639PYPI   C2B10160   7.949   0.302   9.473 -0.0300 -0.2165 -0.0151
  639PYPI   C3B10161   7.705   0.359   9.061 -0.0758  0.0268 -0.2096
  639PYPI   C4B10162   7.642   0.354   8.636  0.2517 -0.1140  0.1873
  640PYPI    C110163  12.456   6.250  10.767  0.0991  0.0126  0.0834
  640PYPI    C210164  12.197   5.955  10.843  0.2731 -0.2091 -0.1667
  640PYPI    C310165  12.564   5.945  11.003  0.2645 -0.1039 -0.1397
  640PYPI   PO410166  12.353   6.333  10.463 -0.1018  0.0432  0.2608
  640PYPI   GL110167  12.462   6.606  10.182  0.1072 -0.0204  0.3297
  640PYPI   GL210168  12.355   6.894  10.060  0.1415  0.1006  0.2504
  640PYPI   C1A10169  12.784   6.459  10.006 -0.0123  0.1432  0.2627
  640PYPI   C2A10170  13.106   6.528   9.783 -0.1187 -0.0874 -0.0757
  640PYPI   D3A10171  13.473   6.338   9.595  0.0456  0.0825 -0.0240
  640PYPI   C4A10172  13.438   6.241   9.242 -0.4115  0.2224 -0.1200
  640PYPI   C1B10173  12.131   6.865   9.662 -0.0577 -0.2887  0.0525
  640PYPI   C2B10174  11.948   6.810   9.332  0.1288 -0.0416 -0.0410
  640PYPI   C3B10175  11.681   6.841   8.980 -0.2764 -0.0699  0.1175
  640PYPI   C4B10176  11.691   6.892   8.432  0.0488  0.2019 -0.2479
  641ERGO   ROH10177   9.643   2.910  10.270  0.1029 -0.1061 -0.0348
  641ERGO    R110178   9.534   2.850  10.016 -0.1007  0.0022  0.0246
  641ERGO    R210179   9.363   3.022   9.883  0.0391  0.2032  0.0938
  641ERGO    R310180   9.544   2.995   9.682 -0.0884 -0.0403  0.0073
  641ERGO    R410181   9.319   3.135   9.559  0.0631  0.3095  0.1277
  641ERGO    R510182   9.412   2.952   9.487 -0.2392  0.1792  0.0605
  641ERGO    C110183   9.464   3.176   9.183 -0.0427  0.1428  0.0665
  641ERGO    C210184   9.491   3.260   8.814 -0.2794 -0.0612 -0.4998
  642ERGO   ROH10185  12.880   1.963  10.149 -0.1644  0.2048 -0.0950
  642ERGO    R110186  12.970   1.934   9.882 -0.0193  0.4771 -0.0837
  642ERGO    R210187  12.854   1.757   9.704  0.5405  0.0824 -0.1175
  642ERGO    R310188  12.830   1.979   9.549 -0.1312  0.0414 -0.0947
  642ERGO    R410189  12.885   1.763   9.360  0.4833  0.2502 -0.1175
  642ERGO    R510190  12.994   1.950   9.378 -0.0709  0.5651 -0.1154
  642ERGO    C110191  12.881   1.975   9.014 -0.1806  0.3095 -0.0963
  642ERGO    C210192  12.755   1.719   8.690 -0.0474 -0.2158  0.2896
  643ERGO   ROH10193  16.410  13.180   9.868  0.1611  0.0773  0.2267
  643ERGO    R110194  16.292  13.200   9.611  0.2818 -0.1583  0.1516
  643ERGO    R210195  16.169  13.430   9.521 -0.1171 -0.3977  0.0794
  643ERGO    R310196  16.340  13.401   9.312  0.0745 -0.0601  0.1801
  643ERGO    R410197  16.156  13.614   9.229 -0.3469 -0.4440  0.0574
  643ERGO    R510198  16.203  13.432   9.118  0.1067 -0.3711  0.0970
  643ERGO    C110199  16.309  13.694   8.862 -0.3009 -0.1541  0.1393
  643ERGO    C210200  16.455  13.920   8.597  0.0281  0.2824 -0.2082
  644ERGO   ROH10201   7.370  12.449   9.690 -0.0439 -0.1782  0.0862
  644ERGO    R110202   7.392  12.234   9.508 -0.1648 -0.1372  0.0220
  644ERGO    R210203   7.178  12.144   9.358 -0.1912  0.0993 -0.0889
  644ERGO    R310204   7.348  12.186   9.150 -0.0761  0.0231 -0.0113
  644ERGO    R410205   7.099  12.095   9.025 -0.1158  0.2948 -0.1368
  644ERGO    R510206   7.298  12.010   8.995 -0.1804  0.1251 -0.0947
  644ERGO    C110207   7.213  12.106   8.636  0.0361  0.3371 -0.0918
  644ERGO    C210208   7.189  12.199   8.364  0.0478 -0.0524 -0.1431
  645ERGO   ROH10209   0.382   0.097  10.035 -0.0192  0.0310 -0.1008
  645ERGO    R110210   0.215   0.040   9.814 -0.0357 -0.0641 -0.0660
  645ERGO    R210211   0.241   0.168   9.571 -0.1505 -0.0581 -0.0822
  645ERGO    R310212   0.258  -0.086   9.475 -0.0355 -0.0549 -0.0679
  645ERGO    R410213   0.153   0.071   9.251 -0.2509 -0.1488 -0.0260
  645ERGO    R510214   0.065  -0.110   9.336 -0.0888 -0.1953  0.0340
  645ERGO    C110215   0.117  -0.225   8.976 -0.2014 -0.1987  0.0201
  645ERGO    C210216   0.247  -0.205   8.592 -0.2708 -0.1001  0.0391
  646ERGO   ROH10217   4.932   7.204  10.138 -0.1757 -0.1352  0.0896
  646ERGO    R110218   4.999   7.303   9.882 -0.2250 -0.0157  0.1216
  646ERGO    R210219   5.208   7.201   9.732 -0.1506  0.1577  0.0973
  646ERGO    R310220   5.015   7.171   9.543 -0.1270  0.0932  0.0844
  646ERGO    R410221   5.252   7.258   9.394 -0.1512  0.1595  0.0980
  646ERGO    R510222   5.054   7.350   9.389 -0.1751  0.0968  0.0813
  646ERGO    C110223   5.096   7.262   9.020 -0.1295  0.1001  0.0863
  646ERGO    C210224   5.120   7.327   8.733  0.3302  0.2095  0.2807
  647ERGO   ROH10225  18.147  16.723  10.042 -0.0233 -0.0141  0.0285
  647ERGO    R110226  18.194  16.559   9.816 -0.1313 -0.0340  0.0191
  647ERGO    R210227  18.028  16.557   9.595 -0.0786  0.1644 -0.0264
  647ERGO    R310228  18.259  16.609   9.462  0.0116 -0.0498  0.0429
  647ERGO    R410229  18.075  16.513   9.256 -0.0094  0.1120 -0.0097
  647ERGO    R510230  18.274  16.436   9.298 -0.0935 -0.0674  0.0540
  647ERGO    C110231  18.319  16.536   8.933  0.1154 -0.1198  0.0651
  647ERGO    C210232  18.399  16.523   8.522 -0.1320 -0.0021  0.0993
  648ERGO   ROH10233  17.456  10.599  10.140 -0.5799  0.2507 -0.0132
  648ERGO    R110234  17.356  10.698   9.895 -0.2931  0.3431 -0.0984
  648ERGO    R210235  17.501  10.869   9.733  0.0095  0.1936 -0.0041
  648ERGO    R310236  17.450  10.680   9.544 -0.0377  0.2284 -0.0240
  648ERGO    R410237  17.499  10.928   9.392  0.3178  0.1572 -0.0145
  648ERGO    R510238  17.324  10.797   9.377  0.2032  0.3323 -0.1305
  648ERGO    C110239  17.449  10.785   9.017  0.4528  0.1689 -0.0392
  648ERGO    C210240  17.541  10.762   8.640 -0.0732 -0.0079  0.1956
  649ERGO   ROH10241  12.733  16.033   9.943 -0.1465  0.0445  0.1237
  649ERGO    R110242  12.798  16.218   9.740 -0.0694 -0.0838  0.0299
  649ERGO    R210243  13.019  16.189   9.576 -0.0689 -0.2453  0.0599
  649ERGO    R310244  12.834  16.213   9.377 -0.0471 -0.2858  0.0342
  649ERGO    R410245  13.092  16.267   9.247 -0.0264 -0.3697  0.0388
  649ERGO    R510246  12.915  16.394   9.243 -0.0072 -0.3436 -0.0215
  649ERGO    C110247  12.961  16.335   8.870  0.0188 -0.4800  0.0023
  649ERGO    C210248  13.038  16.172   8.611 -0.0907  0.0974 -0.4192
  650ERGO   ROH10249  17.364   6.385   9.961 -0.0597  0.0750  0.1270
  650ERGO    R110250  17.412   6.276   9.704 -0.0061 -0.0046  0.1698
  650ERGO    R210251  17.214   6.251   9.513  0.0192 -0.1200  0.1547
  650ERGO    R310252  17.389   6.391   9.360  0.0028 -0.1311  0.1272
  650ERGO    R410253  17.193   6.284   9.170 -0.0231 -0.1298  0.1569
  650ERGO    R510254  17.409   6.262   9.159 -0.0271 -0.1364  0.1294
  650ERGO    C110255  17.345   6.436   8.826 -0.0633 -0.1458  0.1325
  650ERGO    C210256  17.175   6.508   8.632  0.1212  0.0737 -0.0980
  651ERGO   ROH10257  10.273  14.547   9.861  0.2485 -0.0550 -0.0379
  651ERGO    R110258  10.158  14.615   9.611  0.2647  0.0986 -0.0037
  651ERGO    R210259  10.302  14.738   9.409  0.3646 -0.0738 -0.0344
  651ERGO    R310260  10.213  14.528   9.262  0.0597  0.0423 -0.0245
  651ERGO    R410261  10.227  14.751   9.072  0.3911  0.0252 -0.0372
  651ERGO    R510262  10.054  14.624   9.111  0.1984  0.2737 -0.0328
  651ERGO    C110263  10.100  14.561   8.738  0.1205  0.1919 -0.0295
  651ERGO    C210264  10.200  14.632   8.435 -0.0539  0.3138 -0.1748
  652ERGO   ROH10265   7.363   5.352  10.146  0.0286 -0.1180  0.0067
  652ERGO    R110266   7.217   5.269   9.919  0.0090 -0.0287 -0.0126
  652ERGO    R210267   7.094   5.446   9.748  0.0693  0.0392  0.0231
  652ERGO    R310268   7.238   5.315   9.559  0.0285  0.0334 -0.0054
  652ERGO    R410269   7.032   5.462   9.408  0.0228  0.0837  0.0327
  652ERGO    R510270   7.074   5.248   9.397 -0.0088  0.0724  0.0093
  652ERGO    C110271   7.131   5.347   9.033 -0.0426  0.1041  0.0114
  652ERGO    C210272   6.999   5.418   8.717 -0.0282 -0.0102  0.0596
  653ERGO   ROH10273  11.965  13.937   9.995  0.1310 -0.0392  0.0855
  653ERGO    R110274  12.231  13.960   9.902  0.1211 -0.2079  0.0113
  653ERGO    R210275  12.340  13.784   9.719 -0.1015 -0.1684 -0.1674
  653ERGO    R310276  12.395  14.012   9.581  0.0524 -0.1061 -0.0067
  653ERGO    R410277  12.481  13.796   9.403 -0.2224 -0.0398 -0.2174
  653ERGO    R510278  12.601  13.965   9.467 -0.0386 -0.2039 -0.1293
  653ERGO    C110279  12.614  14.016   9.090 -0.1484  0.0935 -0.0957
  653ERGO    C210280  12.661  14.092   8.726  0.2296  0.1381 -0.2886
  654ERGO   ROH10281   1.734   6.895  10.049 -0.0391  0.0412  0.0590
  654ERGO    R110282   1.692   6.946   9.774 -0.1442  0.2405  0.1096
  654ERGO    R210283   1.684   7.202   9.670  0.1944  0.3123  0.2404
  654ERGO    R310284   1.877   7.107   9.505 -0.0648  0.0775  0.0666
  654ERGO    R410285   1.745   7.318   9.351  0.1005  0.2923  0.2158
  654ERGO    R510286   1.777   7.112   9.287 -0.2320  0.2580  0.1464
  654ERGO    C110287   1.962   7.296   9.009 -0.1975  0.0605  0.0384
  654ERGO    C210288   1.909   7.311   8.617  0.1365  0.1454  0.0735
  655ERGO   ROH10289  10.009  14.175   9.944  0.0627  0.0117 -0.0562
  655ERGO    R110290   9.988  14.050   9.691  0.0673  0.0699 -0.0862
  655ERGO    R210291   9.769  14.085   9.525  0.0064  0.0043 -0.0272
  655ERGO    R310292   9.959  14.157   9.345 -0.0695  0.1537 -0.0482
  655ERGO    R410293   9.720  14.106   9.184 -0.0924  0.1748 -0.0034
  655ERGO    R510294   9.917  14.018   9.154 -0.0812  0.2479 -0.1098
  655ERGO    C110295   9.870  14.186   8.815 -0.2211  0.4143 -0.0092
  655ERGO    C210296   9.832  14.084   8.479 -0.2458  0.3405  0.0902
  656ERGO   ROH10297  11.563   2.141  10.093  0.3231 -0.4282 -0.0717
  656ERGO    R110298  11.603   2.086   9.818  0.1976 -0.4605 -0.0842
  656ERGO    R210299  11.522   1.850   9.700 -0.2057 -0.3203 -0.1043
  656ERGO    R310300  11.393   2.017   9.529  0.0398 -0.0845 -0.0661
  656ERGO    R410301  11.535   1.828   9.356 -0.2362 -0.2582 -0.1095
  656ERGO    R510302  11.546   2.045   9.347  0.0865 -0.2675 -0.0579
  656ERGO    C110303  11.421   1.973   8.994 -0.0236 -0.0007 -0.0764
  656ERGO    C210304  11.375   1.856   8.723 -0.3164 -0.3083 -0.1688
  657ERGO   ROH10305  10.211   3.987  10.273 -0.0433  0.2148  0.0381
  657ERGO    R110306  10.151   3.823  10.050 -0.3545  0.2217  0.1120
  657ERGO    R210307   9.957   3.889   9.865 -0.1584  0.5690  0.0215
  657ERGO    R310308  10.160   3.856   9.688 -0.1709  0.0046  0.0948
  657ERGO    R410309   9.927   3.923   9.522  0.0364  0.5510  0.0022
  657ERGO    R510310  10.058   3.750   9.499 -0.3844  0.2042  0.0932
  657ERGO    C110311  10.102   3.911   9.156  0.1379  0.0107  0.0596
  657ERGO    C210312  10.022   4.009   8.829  0.0709 -0.0214  0.0708
  658ERGO   ROH10313  16.871   0.580  10.013 -0.1383 -0.0716  0.0097
  658ERGO    R110314  16.908   0.597   9.733 -0.1919  0.1038  0.0114
  658ERGO    R210315  16.992   0.381   9.581 -0.1339  0.2224 -0.1273
  658ERGO    R310316  16.768   0.437   9.438 -0.1800  0.2181 -0.0570
  658ERGO    R410317  16.971   0.374   9.236 -0.2589  0.1560 -0.1187
  658ERGO    R510318  16.848   0.554   9.245 -0.2366  0.1712 -0.1094
  658ERGO    C110319  16.749   0.422   8.901 -0.3753  0.1134 -0.0479
  658ERGO    C210320  16.664   0.149   8.618 -0.3342  0.0634  0.0841
  659ERGO   ROH10321   0.646   4.177   9.991  0.0417 -0.0984  0.0335
  659ERGO    R110322   0.506   4.189   9.746 -0.0672  0.1082  0.1042
  659ERGO    R210323   0.554   4.385   9.556  0.1588  0.0132  0.0648
  659ERGO    R310324   0.590   4.171   9.392 -0.2771 -0.0658  0.0603
  659ERGO    R410325   0.546   4.397   9.211  0.4000  0.0911  0.0600
  659ERGO    R510326   0.437   4.208   9.212 -0.0846  0.3512 -0.0306
  659ERGO    C110327   0.575   4.203   8.856  0.1313  0.0623  0.0528
  659ERGO    C210328   0.576   4.105   8.517  0.2665 -0.1684 -0.0574
  660ERGO   ROH10329   2.431  17.866  10.339 -0.0052 -0.2080  0.0901
  660ERGO    R110330   2.593  17.903  10.109 -0.0572  0.1231  0.1025
  660ERGO    R210331   2.639  17.701   9.926  0.3662  0.2126  0.1075
  660ERGO    R310332   2.548  17.886   9.749  0.0041  0.0337  0.0974
  660ERGO    R410333   2.672  17.680   9.582  0.5914  0.3384  0.1185
  660ERGO    R510334   2.715  17.893   9.578  0.0864  0.4594  0.1788
  660ERGO    C110335   2.605  17.840   9.216  0.3826  0.2435  0.1155
  660ERGO    C210336   2.640  17.761   8.868 -0.2419 -0.0538  0.0473
  661ERGO   ROH10337   5.969  17.150   9.969  0.0013  0.1826  0.0939
  661ERGO    R110338   5.836  17.165   9.719  0.0553  0.0664  0.0594
  661ERGO    R210339   5.958  17.266   9.492  0.1171 -0.0862  0.0335
  661ERGO    R310340   5.885  17.027   9.386  0.0923 -0.1292  0.1414
  661ERGO    R410341   5.895  17.209   9.157 -0.1427 -0.1516  0.0903
  661ERGO    R510342   5.727  17.083   9.215 -0.0703 -0.1919  0.2577
  661ERGO    C110343   5.789  16.951   8.862 -0.3172 -0.2299  0.2246
  661ERGO    C210344   5.626  16.843   8.604 -0.1243  0.0721 -0.0456
  662ERGO   ROH10345   3.570   0.016  10.211  0.1462  0.3297  0.0206
  662ERGO    R110346   3.483  -0.065   9.954  0.1912  0.1639  0.0561
  662ERGO    R210347   3.278   0.063   9.819  0.0653 -0.0597  0.0293
  662ERGO    R310348   3.464   0.083   9.622  0.0302  0.0343  0.0055
  662ERGO    R410349   3.214   0.029   9.481  0.0671 -0.2756  0.0491
  662ERGO    R510350   3.400  -0.082   9.461  0.1762 -0.1039  0.0850
  662ERGO    C110351   3.351   0.030   9.099  0.0351 -0.3131  0.0382
  662ERGO    C210352   3.346  -0.060   8.797 -0.0010  0.1037 -0.2130
  663ERGO   ROH10353   3.924   3.232  10.222 -0.1378 -0.2067  0.1245
  663ERGO    R110354   3.827   3.155   9.968 -0.0397 -0.1647  0.0732
  663ERGO    R210355   3.672   3.322   9.810 -0.1152 -0.1955  0.1097
  663ERGO    R310356   3.864   3.271   9.625 -0.0431  0.0001  0.1282
  663ERGO    R410357   3.613   3.272   9.474 -0.0223 -0.2202  0.0972
  663ERGO    R510358   3.762   3.113   9.476  0.1246 -0.0807  0.1000
  663ERGO    C110359   3.758   3.194   9.103  0.0996 -0.0509  0.1072
  663ERGO    C210360   3.624   3.291   8.763 -0.1930  0.0980 -0.3491
  664ERGO   ROH10361   8.147   2.420  10.529  0.2016  0.1823  0.0719
  664ERGO    R110362   8.010   2.517  10.301  0.0736  0.0434  0.0870
  664ERGO    R210363   8.109   2.720  10.143 -0.1451  0.1426  0.0640
  664ERGO    R310364   8.073   2.538   9.944  0.0072  0.0961  0.0796
  664ERGO    R410365   8.090   2.796   9.806 -0.2337  0.0950  0.0590
  664ERGO    R510366   7.931   2.649   9.787 -0.0998 -0.0479  0.0789
  664ERGO    C110367   8.045   2.669   9.423 -0.1423  0.0237  0.0709
  664ERGO    C210368   8.117   2.610   9.066  0.0828 -0.5185  0.1767
  665ERGO   ROH10369   3.347  14.118   9.956 -0.0522  0.0516  0.0674
  665ERGO    R110370   3.411  14.084   9.682  0.0031 -0.0400  0.0901
  665ERGO    R210371   3.304  13.881   9.528 -0.0460 -0.0340  0.1082
  665ERGO    R310372   3.229  14.087   9.367  0.0812 -0.0369  0.0467
  665ERGO    R410373   3.325  13.880   9.183 -0.0991 -0.1672  0.1052
  665ERGO    R510374   3.392  14.087   9.191  0.0526 -0.2156  0.0218
  665ERGO    C110375   3.267  14.073   8.831 -0.0106 -0.2474  0.0457
  665ERGO    C210376   3.255  13.987   8.520 -0.0047  0.1362  0.0684
  666ERGO   ROH10377  12.545   2.197   9.905  0.0837 -0.1207  0.0078
  666ERGO    R110378  12.444   2.262   9.649  0.1519  0.0449  0.0221
  666ERGO    R210379  12.607   2.343   9.441  0.2533 -0.1821  0.0135
  666ERGO    R310380  12.486   2.138   9.309 -0.0647  0.0013  0.0090
  666ERGO    R410381  12.555   2.330   9.099  0.3458 -0.1426 -0.0027
  666ERGO    R510382  12.358   2.245   9.137  0.1749  0.2036 -0.0519
  666ERGO    C110383  12.411   2.131   8.777  0.1012  0.0525 -0.0164
  666ERGO    C210384  12.325   2.073   8.386  0.3552 -0.2057  0.0494
  667ERGO   ROH10385   7.253  17.355  10.348  0.0174  0.2064 -0.0771
  667ERGO    R110386   7.142  17.444  10.103  0.0042  0.3428 -0.0224
  667ERGO    R210387   7.237  17.666   9.968  0.2338  0.2090 -0.0863
  667ERGO    R310388   7.257  17.491   9.762 -0.1143  0.1642 -0.0884
  667ERGO    R410389   7.248  17.755   9.635  0.3831  0.1925 -0.0859
  667ERGO    R510390   7.119  17.585   9.590  0.0498  0.4333 -0.0786
  667ERGO    C110391   7.274  17.643   9.246  0.1432  0.1411 -0.0877
  667ERGO    C210392   7.181  17.654   8.864 -0.2405  0.1744 -0.0351
  668ERGO   ROH10393   3.319   8.214  10.040 -0.1109 -0.2053  0.0149
  668ERGO    R110394   3.154   8.224   9.810 -0.0961 -0.2029  0.0042
  668ERGO    R210395   3.216   8.379   9.591 -0.0883 -0.1899  0.0136
  668ERGO    R310396   3.190   8.144   9.456 -0.0678 -0.1862  0.0037
  668ERGO    R410397   3.117   8.350   9.261 -0.0058 -0.1830 -0.0118
  668ERGO    R510398   2.998   8.176   9.317 -0.0292 -0.1754 -0.0449
  668ERGO    C110399   3.035   8.113   8.943  0.0616 -0.1756 -0.0359
  668ERGO    C210400   2.951   8.126   8.546 -0.0943  0.3022  0.1000
  669ERGO   ROH10401   8.136  16.774  10.565  0.0222 -0.0309  0.1383
  669ERGO    R110402   8.079  16.659  10.312  0.0340 -0.1143  0.1733
  669ERGO    R210403   8.165  16.772  10.075 -0.2260 -0.0159  0.1226
  669ERGO    R310404   8.271  16.525  10.034  0.0611  0.1095  0.0825
  669ERGO    R410405   8.192  16.617   9.767 -0.1202  0.0273  0.1091
  669ERGO    R510406   8.135  16.430   9.862  0.1295 -0.0480  0.1153
  669ERGO    C110407   8.308  16.295   9.550  0.2108  0.1706  0.0636
  669ERGO    C210408   8.421  16.123   9.256  0.1180 -0.0069  0.2374
  670ERGO   ROH10409  16.700   6.835  10.077  0.0434  0.0982  0.2531
  670ERGO    R110410  16.687   7.023   9.866 -0.0349  0.0343  0.2006
  670ERGO    R210411  16.708   6.950   9.600  0.1854 -0.0116  0.2289
  670ERGO    R310412  16.472   7.083   9.579  0.0564 -0.2573  0.0670
  670ERGO    R410413  16.579   7.076   9.306  0.3744  0.0589  0.1748
  670ERGO    R510414  16.515   7.253   9.416  0.0539 -0.0885  0.2382
  670ERGO    C110415  16.282   7.275   9.114  0.3634 -0.1306 -0.0087
  670ERGO    C210416  16.129   7.351   8.792 -0.1455  0.0042  0.1425
  671ERGO   ROH10417   8.269   7.487  10.215 -0.3969  0.1120  0.0885
  671ERGO    R110418   8.333   7.296  10.015 -0.3362  0.0931  0.1243
  671ERGO    R210419   8.142   7.189   9.846 -0.2885  0.0720  0.0762
  671ERGO    R310420   8.312   7.276   9.653 -0.2329  0.0607  0.1212
  671ERGO    R410421   8.106   7.127   9.507 -0.2666  0.1853  0.0537
  671ERGO    R510422   8.321   7.096   9.495 -0.2814  0.1068  0.0707
  671ERGO    C110423   8.244   7.174   9.129 -0.2018  0.2406  0.0830
  671ERGO    C210424   8.178   7.097   8.911 -0.0911  0.1112  0.2637
  672ERGO   ROH10425  17.796  12.045  10.077  0.2499 -0.1119  0.0226
  672ERGO    R110426  17.911  12.033   9.818  0.0614 -0.2274 -0.0582
  672ERGO    R210427  17.810  11.872   9.618 -0.2386 -0.1322  0.0084
  672ERGO    R310428  17.804  12.105   9.478 -0.1062 -0.1233  0.0159
  672ERGO    R410429  17.826  11.895   9.273 -0.1539 -0.1206  0.0128
  672ERGO    R510430  17.956  12.069   9.296 -0.0836 -0.1798  0.0475
  672ERGO    C110431  17.828  12.128   8.941  0.0197 -0.1054  0.0224
  672ERGO    C210432  17.820  12.089   8.579 -0.0436 -0.0916  0.0490
  673ERGO   ROH10433  13.938   7.158   9.899  0.2102  0.1955  0.0472
  673ERGO    R110434  14.092   7.113   9.665  0.1298 -0.3340  0.0859
  673ERGO    R210435  14.057   6.890   9.506 -0.6254 -0.2243  0.0621
  673ERGO    R310436  14.026   7.075   9.309  0.0827 -0.0735  0.0647
  673ERGO    R410437  14.081   6.825   9.167 -0.5276 -0.2257  0.0683
  673ERGO    R510438  14.187   7.014   9.143  0.0578 -0.5157  0.1913
  673ERGO    C110439  14.066   6.961   8.786  0.1941 -0.0850  0.0745
  673ERGO    C210440  13.985   6.868   8.451  0.0373 -0.0010 -0.0974
  674PSPI    C110441   5.949  17.468   5.723 -0.1165 -0.0457  0.0199
  674PSPI    C210442   5.565  17.361   5.760 -0.1779  0.1542 -0.0278
  674PSPI    C310443   5.703  17.493   5.408 -0.1021  0.2235  0.0274
  674PSPI   PO410444   6.024  17.647   5.969 -0.1201  0.1464  0.0613
  674PSPI   GL110445   6.016  17.708   6.368  0.0650 -0.0541  0.0920
  674PSPI   GL210446   5.758  17.375   6.288  0.2062  0.4137 -0.1921
  674PSPI   C1A10447   5.769  17.808   6.661  0.1050 -0.1619  0.1582
  674PSPI   C2A10448   5.684  17.878   7.026 -0.0353 -0.1328  0.0156
  674PSPI   C3A10449   5.632  18.176   7.416  0.2619  0.0547 -0.1214
  674PSPI   C4A10450   5.406  18.255   7.783 -0.0535 -0.1149 -0.5626
  674PSPI   C1B10451   5.564  17.265   6.656 -0.0583 -0.0724 -0.0726
  674PSPI   C2B10452   5.527  17.265   7.157 -0.3162 -0.2864 -0.1854
  674PSPI   C3B10453   5.476  16.895   7.384  0.0506  0.2507 -0.2358
  674PSPI   C4B10454   5.581  16.752   7.841 -0.0800  0.0791  0.1759
  675PSPI    C110455   6.407   2.819   5.920 -0.1045 -0.0456  0.2750
  675PSPI    C210456   6.543   3.076   5.646 -0.0656 -0.1855  0.1617
  675PSPI    C310457   6.795   2.822   5.823 -0.1191 -0.2069  0.2074
  675PSPI   PO410458   6.184   2.940   6.019  0.0487 -0.2214  0.0910
  675PSPI   GL110459   6.172   3.233   6.340 -0.0453  0.0082  0.0196
  675PSPI   GL210460   6.446   3.498   6.515 -0.1301  0.0778 -0.0880
  675PSPI   C1A10461   6.098   3.144   6.770  0.1358  0.2780  0.2462
  675PSPI   C2A10462   6.155   3.209   7.221 -0.0486 -0.1160 -0.2010
  675PSPI   C3A10463   6.371   3.274   7.564  0.0322 -0.1317 -0.3153
  675PSPI   C4A10464   6.484   3.364   8.068  0.1580  0.0818  0.2341
  675PSPI   C1B10465   6.432   3.644   6.966  0.3609 -0.0082  0.1286
  675PSPI   C2B10466   6.623   3.700   7.342 -0.0385  0.0167  0.1224
  675PSPI   C3B10467   6.770   3.770   7.849 -0.2241 -0.0564 -0.2023
  675PSPI   C4B10468   6.947   3.510   8.166  0.1119 -0.0466 -0.0922
  676PSPI    C110469   8.867  11.861   5.264 -0.0257 -0.2020 -0.0709
  676PSPI    C210470   9.193  11.725   5.075  0.0509 -0.0316 -0.0633
  676PSPI    C310471   8.952  11.990   4.895 -0.1023 -0.1813 -0.0815
  676PSPI   PO410472   8.988  11.843   5.551  0.0204 -0.0185 -0.3719
  676PSPI   GL110473   8.917  11.658   5.862 -0.2413 -0.0490 -0.1542
  676PSPI   GL210474   9.047  11.376   5.900  0.1274 -0.2211 -0.0461
  676PSPI   C1A10475   9.255  11.704   6.193 -0.0399  0.2453 -0.1930
  676PSPI   C2A10476   9.247  11.658   6.664 -0.2171 -0.3237 -0.1087
  676PSPI   C3A10477   9.082  11.628   6.995  0.2677 -0.2781  0.1572
  676PSPI   C4A10478   9.207  11.533   7.450 -0.0984 -0.1769 -0.2158
  676PSPI   C1B10479   8.896  11.378   6.411  0.0516  0.0786 -0.0826
  676PSPI   C2B10480   8.742  11.224   6.866  0.1190  0.1448 -0.1638
  676PSPI   C3B10481   8.888  11.169   7.256  0.2369 -0.0509  0.1414
  676PSPI   C4B10482   8.877  11.284   7.743  0.0989  0.1401 -0.0377
  677PSPI    C110483   5.730   5.086   5.417  0.0336 -0.0673  0.0072
  677PSPI    C210484   5.991   4.809   5.542 -0.0263 -0.1352 -0.0181
  677PSPI    C310485   5.991   4.926   5.160 -0.2392 -0.3642 -0.0911
  677PSPI   PO410486   5.695   5.155   5.716 -0.2461 -0.0250  0.0572
  677PSPI   GL110487   5.891   5.358   6.135  0.0355  0.0054  0.2116
  677PSPI   GL210488   5.867   5.038   6.290 -0.1319 -0.1683  0.0754
  677PSPI   C1A10489   5.638   5.500   6.514 -0.0767 -0.1405 -0.1293
  677PSPI   C2A10490   5.526   5.388   6.897  0.1659 -0.1565 -0.1646
  677PSPI   C3A10491   5.517   5.304   7.363 -0.1000 -0.3571  0.0585
  677PSPI   C4A10492   5.525   5.115   7.701 -0.3060 -0.3326 -0.0624
  677PSPI   C1B10493   5.638   4.837   6.657  0.0199 -0.1772  0.3456
  677PSPI   C2B10494   5.580   4.833   7.141  0.2818  0.1306 -0.0963
  677PSPI   C3B10495   5.796   4.714   7.585  0.2679  0.2845  0.3738
  677PSPI   C4B10496   6.108   4.622   7.836  0.0343 -0.3331  0.1756
  678PSPI    C110497   8.584   7.864   5.772 -0.0647  0.1258 -0.0337
  678PSPI    C210498   8.687   7.480   5.727 -0.1890  0.0742  0.1165
  678PSPI    C310499   8.949   7.740   5.880 -0.1198  0.0403  0.0563
  678PSPI   PO410500   8.366   8.064   5.772 -0.0341  0.0345  0.0506
  678PSPI   GL110501   8.176   8.053   6.078  0.3427 -0.2548 -0.1339
  678PSPI   GL210502   7.895   7.881   6.033 -0.2882  0.1421  0.0389
  678PSPI   C1A10503   8.400   7.896   6.440  0.1521  0.1451 -0.0789
  678PSPI   C2A10504   8.668   8.061   6.701  0.1710 -0.1922 -0.2070
  678PSPI   C3A10505   8.685   8.022   7.102  0.2790  0.0925  0.0776
  678PSPI   C4A10506   8.906   8.176   7.480  0.2223  0.0385  0.0077
  678PSPI   C1B10507   7.915   7.983   6.492  0.0033 -0.0189 -0.1248
  678PSPI   C2B10508   7.938   7.934   6.916 -0.0839 -0.1484 -0.1133
  678PSPI   C3B10509   8.191   8.001   7.204  0.1290  0.3542  0.1872
  678PSPI   C4B10510   8.454   7.963   7.569  0.0935 -0.1298  0.0568
  679PSPI    C110511   2.360  10.565   5.623  0.1973  0.0798 -0.4890
  679PSPI    C210512   2.305  10.197   5.770 -0.0327  0.2457 -0.1468
  679PSPI    C310513   2.207  10.277   5.390 -0.2259  0.0183 -0.1478
  679PSPI   PO410514   2.313  10.723   5.832  0.2749 -0.3102 -0.4192
  679PSPI   GL110515   2.653  10.832   6.169 -0.0063 -0.3942 -0.2784
  679PSPI   GL210516   3.007  10.977   6.134  0.0190  0.1614 -0.0660
  679PSPI   C1A10517   2.818  10.604   6.429 -0.0020  0.2542  0.2477
  679PSPI   C2A10518   2.846  10.498   6.833 -0.0863  0.1954  0.1799
  679PSPI   C3A10519   2.915  10.523   7.223  0.2137  0.2270  0.2090
  679PSPI   C4A10520   3.087  10.497   7.580  0.3639 -0.0903  0.1034
  679PSPI   C1B10521   3.218  11.272   6.408 -0.2646 -0.1037 -0.2416
  679PSPI   C2B10522   3.605  11.177   6.656 -0.0467  0.0502  0.1443
  679PSPI   C3B10523   3.597  10.835   6.847 -0.1460 -0.1701  0.0867
  679PSPI   C4B10524   3.887  10.451   6.888  0.0651  0.1709  0.1334
  680PSPI    C110525  13.380   8.110   5.679  0.2475 -0.0619  0.1889
  680PSPI    C210526  13.641   7.845   5.826  0.1105 -0.3029  0.0061
  680PSPI    C310527  13.371   7.730   5.554 -0.1734 -0.0522  0.1755
  680PSPI   PO410528  13.266   8.216   5.900 -0.1962  0.0008  0.1826
  680PSPI   GL110529  13.137   8.232   6.242 -0.1846  0.1586 -0.0052
  680PSPI   GL210530  13.270   7.870   6.335  0.2393  0.0855 -0.0172
  680PSPI   C1A10531  12.925   8.312   6.608 -0.0996 -0.2313  0.0017
  680PSPI   C2A10532  13.002   8.224   7.028  0.1561 -0.0166  0.1723
  680PSPI   C3A10533  13.140   8.212   7.537 -0.1813 -0.2004 -0.0811
  680PSPI   C4A10534  13.386   8.239   7.926 -0.0532  0.2003  0.2628
  680PSPI   C1B10535  13.234   7.851   6.782  0.1745 -0.1614  0.3155
  680PSPI   C2B10536  13.161   7.772   7.219 -0.0952 -0.1156  0.2469
  680PSPI   C3B10537  13.186   7.445   7.397 -0.3383  0.0987  0.2322
  680PSPI   C4B10538  13.439   7.334   7.774 -0.2109 -0.0333  0.2208
  681PSPI    C110539   3.710  13.586   5.398 -0.1663 -0.0977 -0.2412
  681PSPI    C210540   3.727  13.226   5.224  0.1780 -0.0700 -0.2715
  681PSPI    C310541   4.050  13.463   5.227  0.1025  0.0365  0.1802
  681PSPI   PO410542   3.546  13.494   5.674 -0.0505  0.1099  0.0425
  681PSPI   GL110543   3.569  13.372   6.145 -0.3375 -0.0252  0.1042
  681PSPI   GL210544   3.565  13.114   6.358  0.2114  0.2029  0.1412
  681PSPI   C1A10545   3.759  13.524   6.541  0.0317 -0.0588 -0.2134
  681PSPI   C2A10546   3.829  13.396   6.994  0.2372  0.1311  0.1766
  681PSPI   C3A10547   3.714  13.449   7.365  0.0085 -0.2856  0.1326
  681PSPI   C4A10548   3.875  13.426   7.802  0.0422  0.0693 -0.2494
  681PSPI   C1B10549   3.596  12.986   6.848 -0.0699  0.3278  0.1765
  681PSPI   C2B10550   3.523  13.009   7.322  0.1909  0.0326  0.1973
  681PSPI   C3B10551   3.139  12.980   7.673 -0.1159 -0.0593 -0.1997
  681PSPI   C4B10552   2.780  12.881   7.763  0.0569 -0.0917 -0.0918
  682PSPI    C110553  14.584   2.735   5.286  0.0315  0.1861  0.1723
  682PSPI    C210554  14.900   2.938   5.148  0.0380  0.0518 -0.0154
  682PSPI    C310555  14.791   2.596   4.973  0.0251 -0.1069  0.2951
  682PSPI   PO410556  14.536   2.967   5.564 -0.0435  0.2626  0.0197
  682PSPI   GL110557  14.763   3.012   5.931  0.0320 -0.0021 -0.0862
  682PSPI   GL210558  14.839   2.775   6.208  0.1213 -0.1496 -0.0996
  682PSPI   C1A10559  14.932   3.299   6.183 -0.0622 -0.1387  0.0521
  682PSPI   C2A10560  14.780   3.680   6.414  0.1551  0.1165  0.2824
  682PSPI   C3A10561  14.715   3.757   6.860 -0.1581  0.0639  0.1229
  682PSPI   C4A10562  14.856   4.023   7.193 -0.0924 -0.0165  0.1068
  682PSPI   C1B10563  15.029   2.860   6.516  0.2532 -0.3704 -0.2155
  682PSPI   C2B10564  14.909   2.881   6.933 -0.0482  0.2071  0.0181
  682PSPI   C3B10565  15.097   2.975   7.350  0.1448 -0.0594  0.0965
  682PSPI   C4B10566  14.899   3.097   7.751 -0.1780 -0.0823  0.0078
  683PSPI    C110567  14.677  12.282   5.729  0.1217  0.1580 -0.0327
  683PSPI    C210568  14.334  12.385   5.551 -0.0227 -0.1862  0.0369
  683PSPI    C310569  14.683  12.453   5.368 -0.1401 -0.0587 -0.1438
  683PSPI   PO410570  14.602  12.307   5.975  0.0016 -0.1272 -0.1502
  683PSPI   GL110571  14.451  12.398   6.340 -0.3104  0.1018 -0.1181
  683PSPI   GL210572  14.474  12.746   6.333  0.0566  0.3163  0.2031
  683PSPI   C1A10573  14.202  12.336   6.621 -0.2318 -0.0090 -0.1068
  683PSPI   C2A10574  14.106  12.524   7.038 -0.0754 -0.0043 -0.1879
  683PSPI   C3A10575  14.065  12.607   7.496  0.0930  0.0924 -0.0706
  683PSPI   C4A10576  14.049  12.904   7.616  0.0788 -0.1496  0.0963
  683PSPI   C1B10577  14.487  12.726   6.804  0.2098 -0.2366  0.2747
  683PSPI   C2B10578  14.463  12.804   7.228  0.0625  0.1798  0.0192
  683PSPI   C3B10579  14.531  12.852   7.604  0.0839 -0.0742 -0.0293
  683PSPI   C4B10580  14.266  12.771   8.013 -0.0014 -0.0883  0.1766
  684PSPI    C110581   3.685   6.937   5.720 -0.0088  0.1740  0.1279
  684PSPI    C210582   3.953   6.908   5.425  0.1633 -0.1092  0.3073
  684PSPI    C310583   3.843   7.268   5.561  0.0115  0.0281 -0.1615
  684PSPI   PO410584   3.506   6.713   5.676 -0.0253  0.1014 -0.0297
  684PSPI   GL110585   3.204   6.734   5.965  0.0250 -0.0341  0.0335
  684PSPI   GL210586   3.391   6.623   6.146  0.2894 -0.3144  0.2356
  684PSPI   C1A10587   3.082   7.000   6.393  0.0404  0.4332  0.3766
  684PSPI   C2A10588   3.049   7.462   6.587  0.0073 -0.0592 -0.2677
  684PSPI   C3A10589   3.313   7.834   6.759  0.2048  0.2139  0.2824
  684PSPI   C4A10590   3.605   8.199   6.621  0.0157 -0.2804  0.0264
  684PSPI   C1B10591   3.164   6.522   6.609  0.0344 -0.0625 -0.1400
  684PSPI   C2B10592   3.239   6.592   7.097  0.0621  0.0598 -0.0903
  684PSPI   C3B10593   3.399   6.868   7.393 -0.3024  0.0399  0.1494
  684PSPI   C4B10594   3.323   6.975   7.691 -0.0003  0.1016  0.1382
  685PSPI    C110595   4.569  13.730   5.804 -0.0102 -0.0205  0.0333
  685PSPI    C210596   4.242  13.686   5.578  0.0243 -0.0568 -0.0097
  685PSPI    C310597   4.605  13.668   5.411  0.0577 -0.3381  0.0870
  685PSPI   PO410598   4.511  13.638   6.017  0.0407 -0.0460 -0.0549
  685PSPI   GL110599   4.669  13.505   6.430 -0.1935  0.3287  0.1119
  685PSPI   GL210600   4.473  13.168   6.334 -0.1561  0.0581  0.0742
  685PSPI   C1A10601   4.871  13.250   6.782  0.1280 -0.0296  0.1241
  685PSPI   C2A10602   4.677  13.164   7.092  0.0921 -0.1661 -0.0674
  685PSPI   C3A10603   4.685  12.941   7.429  0.3001  0.2609 -0.1290
  685PSPI   C4A10604   4.715  13.041   7.841 -0.0145 -0.0861 -0.3871
  685PSPI   C1B10605   4.331  13.380   6.756 -0.1140 -0.0571 -0.2528
  685PSPI   C2B10606   4.287  13.436   7.252 -0.0491  0.1137 -0.0059
  685PSPI   C3B10607   4.404  13.447   7.720  0.0152  0.1914  0.1402
  685PSPI   C4B10608   4.412  13.443   8.117  0.1123 -0.0756 -0.0173
  686PSPI    C110609  12.953   7.183   5.914 -0.1275  0.2126 -0.3052
  686PSPI    C210610  12.839   6.805   5.847 -0.1848  0.1159  0.2820
  686PSPI    C310611  13.227   6.903   5.833 -0.1711  0.0412  0.1146
  686PSPI   PO410612  12.821   7.238   6.150  0.4081 -0.0824 -0.0396
  686PSPI   GL110613  12.729   6.969   6.413 -0.1192  0.0333  0.0826
  686PSPI   GL210614  12.623   6.702   6.294 -0.0300  0.3572  0.1550
  686PSPI   C1A10615  12.958   6.911   6.775 -0.0466  0.1370 -0.1558
  686PSPI   C2A10616  12.983   6.809   7.220  0.0358  0.4479  0.0183
  686PSPI   C3A10617  13.085   6.970   7.607 -0.0665  0.0749  0.1447
  686PSPI   C4A10618  13.108   7.067   8.053  0.0457 -0.0147  0.0201
  686PSPI   C1B10619  12.595   6.603   6.732 -0.2040  0.0105 -0.2307
  686PSPI   C2B10620  12.574   6.492   7.213  0.0764 -0.3254  0.0943
  686PSPI   C3B10621  12.762   6.305   7.514 -0.2197 -0.0140  0.3052
  686PSPI   C4B10622  12.964   6.108   7.832  0.0159  0.0392  0.1166
  687PSPI    C110623  16.647   7.756   5.831  0.2225  0.3496 -0.3189
  687PSPI    C210624  16.946   7.491   5.816 -0.0299  0.0517 -0.1968
  687PSPI    C310625  16.745   7.584   5.483  0.1104  0.1519 -0.2544
  687PSPI   PO410626  16.462   7.699   6.046 -0.1983  0.0913  0.0002
  687PSPI   GL110627  16.487   7.925   6.433 -0.0275  0.1325  0.0703
  687PSPI   GL210628  16.500   7.614   6.520  0.0105 -0.0229  0.2431
  687PSPI   C1A10629  16.819   7.980   6.697  0.0768 -0.0246 -0.3119
  687PSPI   C2A10630  16.912   7.860   7.094  0.0332 -0.3898  0.1012
  687PSPI   C3A10631  17.050   8.096   7.385  0.0473 -0.0615  0.0747
  687PSPI   C4A10632  17.303   8.331   7.518  0.1352 -0.1294  0.0578
  687PSPI   C1B10633  16.321   7.585   6.946  0.1083 -0.0961 -0.0718
  687PSPI   C2B10634  16.427   7.711   7.327  0.2328 -0.0225  0.1565
  687PSPI   C3B10635  16.180   7.826   7.680 -0.0750 -0.1052 -0.1361
  687PSPI   C4B10636  16.283   8.010   8.024  0.1517 -0.1174 -0.0779
  688PSPI    C110637  11.429  11.631   5.445 -0.2766  0.1549  0.0971
  688PSPI    C210638  11.769  11.826   5.365 -0.1557 -0.1346 -0.1133
  688PSPI    C310639  11.428  11.936   5.186 -0.1635  0.1170  0.0513
  688PSPI   PO410640  11.512  11.492   5.691  0.0219  0.0160  0.1723
  688PSPI   GL110641  11.778  11.396   6.164 -0.2406 -0.1636 -0.1372
  688PSPI   GL210642  11.454  11.282   6.176  0.4007  0.0581  0.0719
  688PSPI   C1A10643  11.857  11.258   6.611 -0.0217 -0.1529  0.2575
  688PSPI   C2A10644  11.915  11.143   7.032 -0.3996 -0.1805  0.0133
  688PSPI   C3A10645  11.953  11.166   7.415  0.0037 -0.3542 -0.1538
  688PSPI   C4A10646  12.243  11.097   7.674 -0.3321 -0.2960  0.1002
  688PSPI   C1B10647  11.446  11.021   6.554  0.4606 -0.1781 -0.0795
  688PSPI   C2B10648  11.429  10.842   6.932  0.0291  0.0405 -0.0772
  688PSPI   C3B10649  11.557  10.689   7.363  0.0077 -0.0975  0.2830
  688PSPI   C4B10650  11.933  10.686   7.522  0.3129 -0.1336  0.0096
  689PSPI    C110651  17.928  16.611   6.201 -0.0573 -0.2229  0.0075
  689PSPI    C210652  17.559  16.457   6.217 -0.1898  0.0565 -0.2587
  689PSPI    C310653  17.815  16.334   5.935  0.0013 -0.2982  0.0608
  689PSPI   PO410654  17.900  16.899   6.321  0.1411  0.0258  0.0391
  689PSPI   GL110655  17.904  16.841   6.689 -0.2183 -0.1049 -0.0634
  689PSPI   GL210656  17.660  16.632   6.690 -0.0644  0.2125  0.0319
  689PSPI   C1A10657  17.913  16.981   7.115 -0.0979  0.4585 -0.1001
  689PSPI   C2A10658  17.923  17.181   7.514 -0.0988 -0.4798 -0.0993
  689PSPI   C3A10659  18.208  17.402   7.771 -0.2663 -0.0213 -0.1370
  689PSPI   C4A10660  18.550  17.649   7.682 -0.3307  0.0717 -0.2009
  689PSPI   C1B10661  17.464  16.940   6.947  0.1897 -0.0037  0.3952
  689PSPI   C2B10662  17.479  17.063   7.305 -0.0315  0.2041  0.0925
  689PSPI   C3B10663  17.485  17.231   7.746 -0.1185  0.3748 -0.0132
  689PSPI   C4B10664  17.707  17.484   7.960 -0.1731 -0.0804  0.0440
  690PSPI    C110665  13.755  11.216   5.671 -0.0244 -0.2319  0.0811
  690PSPI    C210666  14.005  11.382   5.407  0.1052 -0.2457  0.1944
  690PSPI    C310667  13.652  11.239   5.285  0.0383  0.0124  0.0777
  690PSPI   PO410668  13.897  11.148   5.856  0.0034  0.0419  0.0391
  690PSPI   GL110669  13.941  11.254   6.299  0.1555  0.1071 -0.1189
  690PSPI   GL210670  14.167  10.987   6.245  0.1425 -0.0206 -0.1949
  690PSPI   C1A10671  14.063  11.322   6.643  0.0446 -0.3519  0.0251
  690PSPI   C2A10672  14.026  11.431   7.118  0.0917 -0.1258 -0.1787
  690PSPI   C3A10673  13.878  11.421   7.611  0.0008  0.0481 -0.1052
  690PSPI   C4A10674  14.128  11.537   8.058  0.1277  0.0467 -0.1231
  690PSPI   C1B10675  14.577  11.195   6.452  0.1375 -0.5618 -0.1495
  690PSPI   C2B10676  14.857  11.147   6.742 -0.1691 -0.0296 -0.2688
  690PSPI   C3B10677  14.812  11.307   7.075 -0.1966 -0.0798  0.1421
  690PSPI   C4B10678  14.894  11.516   7.473  0.0918  0.1126  0.1076
  691PSPI    C110679   7.476  17.314   6.057 -0.0648  0.0305  0.0866
  691PSPI    C210680   7.846  17.464   6.091 -0.1306  0.1669  0.2111
  691PSPI    C310681   7.640  17.512   5.751 -0.0478  0.1213  0.1541
  691PSPI   PO410682   7.329  17.309   6.312 -0.1184 -0.0313 -0.1647
  691PSPI   GL110683   7.288  17.175   6.646 -0.0357 -0.1291 -0.0089
  691PSPI   GL210684   7.043  16.950   6.658  0.1441 -0.0134 -0.1137
  691PSPI   C1A10685   7.628  17.321   7.046  0.1492 -0.0741 -0.2761
  691PSPI   C2A10686   7.587  17.257   7.434 -0.2812 -0.1606  0.0717
  691PSPI   C3A10687   7.718  17.345   7.862  0.3021  0.1239 -0.1512
  691PSPI   C4A10688   7.854  17.686   8.166  0.2570 -0.0464 -0.0253
  691PSPI   C1B10689   7.139  17.231   7.099  0.0452  0.1345 -0.3320
  691PSPI   C2B10690   7.097  17.353   7.539 -0.0551 -0.1602 -0.3853
  691PSPI   C3B10691   7.153  17.563   7.903 -0.4109  0.0607  0.1648
  691PSPI   C4B10692   7.480  17.379   8.259  0.2090 -0.0328 -0.3844
  692PSPI    C110693   9.788   2.406   6.305  0.0676 -0.0027 -0.2809
  692PSPI    C210694   9.528   2.324   6.012 -0.1878  0.0136 -0.0626
  692PSPI    C310695   9.518   2.680   6.194 -0.2350 -0.1065  0.1732
  692PSPI   PO410696  10.122   2.315   6.221  0.0340  0.0825  0.1760
  692PSPI   GL110697  10.258   2.070   6.503 -0.1083 -0.1802  0.0977
  692PSPI   GL210698  10.135   1.803   6.420  0.0058  0.0906 -0.0620
  692PSPI   C1A10699  10.087   2.240   6.895  0.1736  0.0419  0.1969
  692PSPI   C2A10700  10.008   2.535   7.230 -0.1649  0.1857 -0.0386
  692PSPI   C3A10701   9.966   2.405   7.747  0.0590  0.2481 -0.0035
  692PSPI   C4A10702   9.659   2.112   8.006 -0.1458 -0.0801  0.3426
  692PSPI   C1B10703   9.880   1.742   6.859 -0.1438  0.1017  0.0507
  692PSPI   C2B10704   9.833   1.572   7.245 -0.1069 -0.0616  0.2749
  692PSPI   C3B10705   9.971   1.512   7.562 -0.0957 -0.0593 -0.0162
  692PSPI   C4B10706   9.844   1.429   7.947 -0.1678 -0.0456  0.1807
  693PSPI    C110707   9.885  15.283   5.913  0.1166 -0.0569  0.0676
  693PSPI    C210708   9.853  15.243   5.517  0.0264  0.1759  0.0494
  693PSPI    C310709   9.589  15.064   5.758  0.0703  0.0495  0.0044
  693PSPI   PO410710  10.082  15.385   5.964  0.0903  0.0557  0.1678
  693PSPI   GL110711  10.440  15.203   6.323  0.1375 -0.0086  0.0378
  693PSPI   GL210712  10.654  14.865   6.334  0.0760 -0.1041 -0.1919
  693PSPI   C1A10713  10.215  15.347   6.728  0.1163  0.1172 -0.2016
  693PSPI   C2A10714  10.131  15.354   7.189 -0.0078  0.1233  0.2582
  693PSPI   C3A10715   9.983  15.172   7.464  0.2036  0.1276 -0.0945
  693PSPI   C4A10716   9.951  14.799   7.782  0.3057 -0.0586 -0.0553
  693PSPI   C1B10717  10.392  14.864   6.717 -0.1527 -0.2032 -0.0610
  693PSPI   C2B10718  10.287  14.881   7.161  0.0201  0.1847 -0.0669
  693PSPI   C3B10719  10.423  14.730   7.541 -0.3619 -0.0724  0.0538
  693PSPI   C4B10720  10.745  14.779   7.929 -0.0698  0.1446 -0.0526
  694POPI    C110721  14.765  14.823   5.493 -0.0233  0.0074 -0.0692
  694POPI    C210722  14.664  14.883   5.111  0.0789 -0.1799 -0.1270
  694POPI    C310723  14.412  14.989   5.403 -0.0463 -0.1363 -0.2495
  694POPI   PO410724  14.946  14.857   5.608 -0.0714 -0.2164  0.2374
  694POPI   GL110725  14.927  14.869   6.055  0.0221 -0.2026  0.0194
  694POPI   GL210726  14.742  14.612   6.233 -0.0765  0.0983  0.3681
  694POPI   C1A10727  14.966  15.003   6.488 -0.1637  0.0653  0.0375
  694POPI   D2A10728  14.991  14.921   6.869 -0.0822 -0.0273 -0.0960
  694POPI   C3A10729  15.312  15.182   7.065 -0.1953  0.0835 -0.0296
  694POPI   C4A10730  15.722  15.266   7.009  0.0146 -0.0531  0.1037
  694POPI   C1B10731  14.715  14.505   6.729  0.0385 -0.0691 -0.1087
  694POPI   C2B10732  14.796  14.513   7.078 -0.0557 -0.2086  0.0316
  694POPI   C3B10733  14.710  14.279   7.391 -0.1637  0.1100 -0.1893
  694POPI   C4B10734  14.644  14.293   7.877  0.0957  0.0285  0.2218
  695POPI    C110735   9.207   0.057   5.954 -0.2754 -0.1707 -0.0285
  695POPI    C210736   9.433  -0.144   5.692 -0.1370  0.0609 -0.0891
  695POPI    C310737   9.086  -0.299   5.817 -0.1394 -0.1129 -0.3056
  695POPI   PO410738   9.277   0.102   6.194 -0.1433 -0.1408 -0.1045
  695POPI   GL110739   9.406   0.235   6.595 -0.0236 -0.2822  0.0073
  695POPI   GL210740   9.747   0.016   6.546  0.1980 -0.1451  0.2254
  695POPI   C1A10741   9.226   0.277   6.963 -0.0635 -0.0324  0.0686
  695POPI   D2A10742   9.337   0.340   7.444  0.0653  0.3399 -0.1334
  695POPI   C3A10743   9.572   0.620   7.674 -0.1527 -0.4055  0.0709
  695POPI   C4A10744   9.793   0.985   7.730  0.1777  0.0464  0.2298
  695POPI   C1B10745   9.507  -0.162   6.937 -0.0469  0.1617  0.1376
  695POPI   C2B10746   9.410  -0.185   7.370  0.0587 -0.2250  0.0979
  695POPI   C3B10747   9.343  -0.267   7.837  0.2037  0.1403 -0.3601
  695POPI   C4B10748   9.420  -0.333   8.317  0.0389 -0.1118 -0.0850
  696POPI    C110749  16.519   5.867   5.693 -0.0157 -0.0478 -0.2873
  696POPI    C210750  16.629   6.133   5.415  0.0470  0.1217 -0.1026
  696POPI    C310751  16.793   5.768   5.419  0.1912  0.1852 -0.1678
  696POPI   PO410752  16.426   5.955   5.843 -0.0184 -0.1183 -0.0766
  696POPI   GL110753  16.187   5.824   6.166 -0.2823 -0.0225 -0.4040
  696POPI   GL210754  15.817   5.673   6.085 -0.0568  0.1232  0.0784
  696POPI   C1A10755  16.159   6.035   6.575 -0.0776 -0.3964 -0.2771
  696POPI   D2A10756  16.270   6.320   6.969 -0.2589 -0.4408  0.0542
  696POPI   C3A10757  16.541   6.357   7.270 -0.1077 -0.1607 -0.0744
  696POPI   C4A10758  16.619   6.635   7.550  0.4378 -0.0249 -0.1959
  696POPI   C1B10759  15.866   5.643   6.504  0.1247  0.0611 -0.0814
  696POPI   C2B10760  15.595   5.551   6.868 -0.1398 -0.0134 -0.1299
  696POPI   C3B10761  15.592   5.454   7.261  0.0113 -0.1715  0.1002
  696POPI   C4B10762  15.647   5.445   7.663  0.3662  0.0579  0.2659
  697POPI    C110763  11.366   3.286   5.629  0.1930 -0.2223  0.0645
  697POPI    C210764  11.486   2.956   5.436  0.3289 -0.0507 -0.1491
  697POPI    C310765  11.400   3.288   5.230 -0.1488 -0.0535  0.0333
  697POPI   PO410766  11.207   3.149   5.833 -0.4890 -0.0216  0.1855
  697POPI   GL110767  11.326   3.051   6.317 -0.1511  0.1638 -0.2006
  697POPI   GL210768  11.678   3.041   6.359  0.0855  0.2195 -0.0114
  697POPI   C1A10769  11.301   3.190   6.700  0.0541  0.1280  0.3084
  697POPI   D2A10770  11.238   3.143   7.164 -0.2253 -0.0410  0.2372
  697POPI   C3A10771  11.558   3.189   7.452 -0.2483  0.0391  0.1734
  697POPI   C4A10772  11.633   3.377   7.782  0.2961  0.0131 -0.1575
  697POPI   C1B10773  11.801   3.090   6.745 -0.1948  0.1918 -0.1281
  697POPI   C2B10774  11.989   3.059   7.116  0.0639 -0.1473  0.1324
  697POPI   C3B10775  12.075   3.265   7.537 -0.0323  0.0351 -0.0512
  697POPI   C4B10776  11.998   3.662   7.568  0.3214  0.0783 -0.1861
  698POPI    C110777   3.194   3.041   5.688 -0.0501  0.1852  0.1910
  698POPI    C210778   3.150   2.733   5.940  0.5555 -0.0061  0.0777
  698POPI    C310779   3.239   2.666   5.555  0.1133  0.2999 -0.0852
  698POPI   PO410780   3.308   3.263   5.866 -0.3461  0.1452  0.2505
  698POPI   GL110781   3.437   3.457   6.183 -0.0532 -0.1521  0.2004
  698POPI   GL210782   3.274   3.517   6.410  0.0802 -0.0567  0.0944
  698POPI   C1A10783   3.747   3.579   6.476 -0.2131 -0.0173  0.2242
  698POPI   D2A10784   3.822   3.680   6.983 -0.3666  0.2931 -0.2527
  698POPI   C3A10785   4.032   3.470   7.303 -0.0303  0.2537 -0.2200
  698POPI   C4A10786   4.196   3.251   7.600  0.0839  0.1411 -0.3688
  698POPI   C1B10787   3.380   3.609   6.777  0.0546 -0.1886  0.0415
  698POPI   C2B10788   3.374   3.755   7.133  0.2653 -0.0251  0.2710
  698POPI   C3B10789   3.299   4.052   7.424 -0.0734  0.1999 -0.0129
  698POPI   C4B10790   3.245   4.378   7.809 -0.2388  0.2335  0.2514
  699POPI    C110791   2.198   6.522   5.355  0.0711  0.3675 -0.0594
  699POPI    C210792   2.424   6.250   5.168 -0.0696  0.0055  0.2811
  699POPI    C310793   2.035   6.178   5.231 -0.1472  0.3620  0.2297
  699POPI   PO410794   2.376   6.594   5.615 -0.1825 -0.0131 -0.1299
  699POPI   GL110795   2.693   6.770   5.980 -0.3146  0.1107  0.1222
  699POPI   GL210796   2.440   6.951   6.259  0.0745  0.1312  0.4263
  699POPI   C1A10797   2.927   6.420   6.134 -0.0813 -0.0613 -0.2979
  699POPI   D2A10798   3.253   6.137   6.274 -0.2910 -0.2999 -0.1273
  699POPI   C3A10799   3.378   6.090   6.716 -0.1577 -0.1651  0.1612
  699POPI   C4A10800   3.308   6.064   7.101 -0.1482 -0.2483 -0.0259
  699POPI   C1B10801   2.726   6.739   6.623  0.0732 -0.4103  0.1266
  699POPI   C2B10802   2.746   6.654   7.080  0.0243  0.1972  0.1503
  699POPI   C3B10803   2.964   6.469   7.471 -0.2271  0.0386  0.1298
  699POPI   C4B10804   3.120   6.021   7.709  0.0771 -0.2883  0.2297
  700POPI    C110805  12.171  16.719   5.593 -0.2622  0.0089  0.1405
  700POPI    C210806  12.371  17.036   5.454 -0.1086 -0.0900  0.1336
  700POPI    C310807  12.006  16.953   5.315 -0.1707  0.1127  0.1726
  700POPI   PO410808  12.268  16.732   5.867  0.2698  0.1489  0.2062
  700POPI   GL110809  12.228  16.536   6.273 -0.0428  0.0508 -0.0581
  700POPI   GL210810  12.302  16.837   6.519  0.2885  0.4365 -0.1135
  700POPI   C1A10811  12.366  16.277   6.633 -0.1579 -0.2746 -0.1368
  700POPI   D2A10812  12.305  16.199   7.032  0.2362  0.1132  0.1106
  700POPI   C3A10813  12.117  16.499   7.333 -0.1595  0.0126 -0.1791
  700POPI   C4A10814  12.178  16.688   7.741  0.0831  0.1317  0.1482
  700POPI   C1B10815  12.373  16.993   6.846 -0.1470 -0.0962  0.0150
  700POPI   C2B10816  12.158  16.989   7.207 -0.1930  0.2723  0.1985
  700POPI   C3B10817  11.874  17.055   7.426 -0.0201  0.2158  0.1974
  700POPI   C4B10818  11.657  17.188   7.743  0.1606  0.1089 -0.2858
  701POPI    C110819  17.130   6.694   5.940  0.0299  0.1217  0.4401
  701POPI    C210820  17.189   7.085   6.000  0.2900  0.1559  0.0037
  701POPI    C310821  16.922   6.962   5.728 -0.0700  0.0193  0.4076
  701POPI   PO410822  16.938   6.498   6.117 -0.0208  0.1325 -0.1073
  701POPI   GL110823  17.079   6.298   6.482  0.1071 -0.0217  0.3048
  701POPI   GL210824  17.164   5.992   6.424  0.0613  0.2788  0.0767
  701POPI   C1A10825  17.133   6.269   7.017  0.1206  0.1692 -0.0026
  701POPI   D2A10826  17.045   6.211   7.434  0.0863  0.4843 -0.1469
  701POPI   C3A10827  17.395   6.135   7.648 -0.2551  0.0616  0.0432
  701POPI   C4A10828  17.639   6.014   7.963  0.3752  0.0273 -0.0962
  701POPI   C1B10829  17.316   5.851   6.770 -0.1875  0.0230 -0.3770
  701POPI   C2B10830  17.328   5.739   7.165  0.0507 -0.2003 -0.0109
  701POPI   C3B10831  17.071   5.743   7.553  0.0411 -0.0707 -0.0569
  701POPI   C4B10832  16.901   6.015   7.901  0.0337  0.2750 -0.0800
  702POPI    C110833   5.237  15.542   5.786 -0.1243  0.1213 -0.0216
  702POPI    C210834   5.479  15.840   5.899  0.0731 -0.0077 -0.0979
  702POPI    C310835   5.603  15.573   5.628 -0.1861 -0.0291 -0.1987
  702POPI   PO410836   5.177  15.428   6.029  0.0757  0.1374  0.1777
  702POPI   GL110837   5.277  15.410   6.383  0.1502  0.0690 -0.0322
  702POPI   GL210838   5.513  15.675   6.363 -0.2549  0.2071 -0.0972
  702POPI   C1A10839   5.327  15.032   6.639 -0.1518  0.0721 -0.1597
  702POPI   D2A10840   5.297  14.790   7.003 -0.4025  0.2821  0.4184
  702POPI   C3A10841   5.604  14.860   7.331  0.0570  0.2534  0.0723
  702POPI   C4A10842   5.639  14.843   7.703 -0.1129  0.0578  0.0530
  702POPI   C1B10843   5.497  15.558   6.804 -0.0845  0.1815  0.0544
  702POPI   C2B10844   5.432  15.269   7.077  0.1048  0.3451 -0.2732
  702POPI   C3B10845   5.323  15.244   7.369  0.2335 -0.2619 -0.2470
  702POPI   C4B10846   5.323  15.226   7.829  0.1721 -0.1754 -0.2927
  703POPI    C110847   5.707   7.541   5.672 -0.2357  0.0128 -0.2601
  703POPI    C210848   5.586   7.920   5.637  0.1236  0.1443 -0.1311
  703POPI    C310849   5.943   7.810   5.495  0.2246 -0.0366  0.2505
  703POPI   PO410850   5.538   7.490   5.894 -0.3323  0.2443 -0.0310
  703POPI   GL110851   5.581   7.682   6.250 -0.1174  0.0843 -0.1659
  703POPI   GL210852   5.758   7.918   6.086 -0.4821 -0.0757  0.0895
  703POPI   C1A10853   5.671   7.711   6.671 -0.1270 -0.1482  0.1578
  703POPI   D2A10854   6.073   7.744   6.954 -0.1351 -0.0314 -0.0131
  703POPI   C3A10855   5.953   7.833   7.476 -0.0087 -0.1482 -0.0549
  703POPI   C4A10856   5.893   8.014   7.869  0.3246 -0.0843  0.1955
  703POPI   C1B10857   5.338   8.044   6.479  0.0967  0.1915 -0.1450
  703POPI   C2B10858   5.164   8.207   6.881  0.0406  0.0970 -0.2431
  703POPI   C3B10859   5.286   8.135   7.262 -0.0580 -0.0783 -0.1476
  703POPI   C4B10860   5.372   7.936   7.728  0.1182 -0.0419 -0.2188
  704POPI    C110861   1.392  11.174   5.637  0.1288 -0.2706 -0.0123
  704POPI    C210862   1.187  10.994   5.344 -0.1190 -0.0727  0.0355
  704POPI    C310863   1.009  11.271   5.572  0.2923  0.3399 -0.1267
  704POPI   PO410864   1.562  10.947   5.731  0.1616  0.0014  0.1377
  704POPI   GL110865   1.648  11.013   6.136  0.2339 -0.0431 -0.1247
  704POPI   GL210866   1.377  11.141   6.136  0.3358 -0.1532  0.0395
  704POPI   C1A10867   1.633  10.962   6.578  0.1493 -0.3574  0.2764
  704POPI   D2A10868   1.618  10.916   6.963  0.0964 -0.0088 -0.0847
  704POPI   C3A10869   1.884  10.611   7.145 -0.0076  0.2437  0.2040
  704POPI   C4A10870   2.004  10.221   7.213  0.0444 -0.1156  0.1931
  704POPI   C1B10871   1.201  11.226   6.552  0.2557 -0.0860 -0.1162
  704POPI   C2B10872   1.189  11.345   6.931 -0.2690 -0.3356 -0.5416
  704POPI   C3B10873   1.074  11.465   7.374 -0.1856 -0.1701 -0.2002
  704POPI   C4B10874   1.125  11.628   7.812 -0.2082 -0.5169  0.2088
  705POPI    C110875  10.889  12.816   5.816  0.1941 -0.0780  0.0063
  705POPI    C210876  10.947  12.536   5.536 -0.0057 -0.0774 -0.0371
  705POPI    C310877  10.985  12.923   5.442  0.1408 -0.0844 -0.0093
  705POPI   PO410878  10.595  12.709   5.938 -0.1012  0.2140  0.2497
  705POPI   GL110879  10.491  12.428   6.215  0.3093  0.1592 -0.1787
  705POPI   GL210880  10.194  12.796   6.215 -0.4818 -0.2849 -0.2198
  705POPI   C1A10881  10.092  12.214   6.397 -0.0776 -0.1498 -0.1270
  705POPI   D2A10882  10.018  12.141   6.721  0.1337  0.0648  0.0215
  705POPI   C3A10883  10.400  11.983   7.014 -0.0729  0.3260 -0.0249
  705POPI   C4A10884  10.512  11.802   7.469 -0.2857 -0.1111  0.0344
  705POPI   C1B10885  10.210  12.686   6.670  0.2094  0.0921  0.3022
  705POPI   C2B10886  10.208  12.506   6.999  0.0140  0.2089  0.1487
  705POPI   C3B10887  10.332  12.324   7.398  0.1662 -0.2905  0.1071
  705POPI   C4B10888  10.488  12.235   7.786  0.0314  0.0371 -0.1844
  706POPI    C110889   0.575   2.137   5.655  0.0761 -0.0236 -0.0583
  706POPI    C210890   0.793   2.449   5.532 -0.2700  0.3072  0.1462
  706POPI    C310891   0.482   2.324   5.314 -0.2294  0.2059  0.1458
  706POPI   PO410892   0.494   2.177   5.882  0.1649 -0.0274  0.0749
  706POPI   GL110893   0.156   2.082   6.229 -0.2881  0.0994  0.0063
  706POPI   GL210894   0.126   2.487   6.177  0.0165  0.0603 -0.0601
  706POPI   C1A10895   0.067   2.182   6.616 -0.1348  0.0165 -0.4566
  706POPI   D2A10896  -0.051   2.012   6.979 -0.0315 -0.2367 -0.1792
  706POPI   C3A10897   0.032   2.148   7.354  0.1000  0.1578  0.0277
  706POPI   C4A10898   0.094   1.852   7.746  0.3771  0.1918  0.1468
  706POPI   C1B10899   0.231   2.638   6.611 -0.2164 -0.1367  0.2723
  706POPI   C2B10900   0.210   2.532   6.979 -0.1630  0.2690  0.0051
  706POPI   C3B10901   0.171   2.805   7.358  0.0631 -0.0924  0.1924
  706POPI   C4B10902  -0.020   2.764   7.816  0.1650  0.1527 -0.1584
  707POPI    C110903   0.925  14.231   5.717  0.0100  0.2317 -0.2709
  707POPI    C210904   1.232  14.374   5.505  0.3150  0.0523  0.0411
  707POPI    C310905   1.127  13.989   5.471  0.1258  0.1116 -0.0600
  707POPI   PO410906   0.889  14.283   6.034  0.3257 -0.0708 -0.0988
  707POPI   GL110907   0.510  14.179   6.388 -0.1676 -0.0370  0.2169
  707POPI   GL210908   0.488  14.437   6.334 -0.0239  0.0021 -0.0772
  707POPI   C1A10909   0.618  14.147   6.768 -0.1709 -0.3376 -0.0296
  707POPI   D2A10910   0.726  14.144   7.186  0.1873 -0.0936  0.2157
  707POPI   C3A10911   0.821  13.874   7.433 -0.1159 -0.2626  0.2459
  707POPI   C4A10912   1.082  13.943   7.839  0.0274  0.0996 -0.1301
  707POPI   C1B10913   0.805  14.596   6.548  0.1966 -0.1393 -0.2790
  707POPI   C2B10914   0.921  14.943   6.894  0.0325 -0.0223 -0.1808
  707POPI   C3B10915   0.723  15.352   7.033 -0.0981 -0.2676 -0.1179
  707POPI   C4B10916   0.887  15.766   7.118 -0.0240 -0.1568 -0.0675
  708POPI    C110917  13.100  11.263   5.886  0.0338 -0.1014 -0.0431
  708POPI    C210918  13.018  11.619   5.725 -0.1521 -0.1727 -0.1088
  708POPI    C310919  13.261  11.365   5.534 -0.0066 -0.0763 -0.0542
  708POPI   PO410920  13.106  11.279   6.151  0.0105 -0.0831  0.2812
  708POPI   GL110921  13.110  11.117   6.503 -0.0025  0.0788 -0.1946
  708POPI   GL210922  12.780  11.241   6.571  0.3461  0.2296  0.1901
  708POPI   C1A10923  13.189  11.118   6.862 -0.2755 -0.0976 -0.1207
  708POPI   D2A10924  13.158  11.161   7.286  0.1424 -0.1983  0.0516
  708POPI   C3A10925  13.154  10.945   7.678  0.0940 -0.0316  0.0143
  708POPI   C4A10926  13.086  10.929   8.147  0.0072 -0.1399  0.1887
  708POPI   C1B10927  12.719  11.192   7.019 -0.0520  0.0419  0.0894
  708POPI   C2B10928  12.693  11.033   7.414 -0.1196 -0.1071  0.0333
  708POPI   C3B10929  12.711  11.113   7.854 -0.0134  0.1135  0.1139
  708POPI   C4B10930  12.599  11.009   8.287  0.0718 -0.2845 -0.0388
  709POPI    C110931   5.916   4.594   5.976 -0.1473 -0.0923 -0.1008
  709POPI    C210932   5.964   4.203   6.047 -0.1130 -0.0879 -0.0996
  709POPI    C310933   5.965   4.339   5.671  0.0367 -0.0681 -0.0926
  709POPI   PO410934   5.709   4.655   6.075  0.1840 -0.1804  0.2331
  709POPI   GL110935   5.520   4.424   6.382  0.0060  0.1369  0.1650
  709POPI   GL210936   5.601   4.176   6.428 -0.0143  0.0528  0.1457
  709POPI   C1A10937   5.371   4.442   6.858  0.0021 -0.0891  0.0129
  709POPI   D2A10938   5.294   4.284   7.117 -0.3042 -0.1881  0.1066
  709POPI   C3A10939   5.321   4.560   7.571  0.2921 -0.1164  0.0883
  709POPI   C4A10940   5.197   4.634   8.004 -0.0164  0.0386 -0.1699
  709POPI   C1B10941   5.611   3.996   6.829 -0.1786 -0.0976  0.2287
  709POPI   C2B10942   5.439   3.717   7.107 -0.0858  0.0861 -0.1328
  709POPI   C3B10943   5.183   3.543   7.389 -0.0113 -0.1347 -0.2796
  709POPI   C4B10944   5.313   3.304   7.717 -0.3731  0.1719 -0.1557
  710POPI    C110945  16.308   4.181   5.688 -0.0083 -0.1545 -0.0440
  710POPI    C210946  15.994   4.215   5.934 -0.1314 -0.0444 -0.2145
  710POPI    C310947  16.009   3.916   5.668 -0.2585  0.1460 -0.4402
  710POPI   PO410948  16.601   4.216   5.869 -0.3237 -0.1321 -0.0463
  710POPI   GL110949  16.673   4.182   6.361 -0.1136  0.2206 -0.1132
  710POPI   GL210950  16.323   4.323   6.272 -0.0154 -0.3468 -0.0407
  710POPI   C1A10951  16.678   4.086   6.821  0.1090 -0.2352 -0.0424
  710POPI   D2A10952  16.811   3.820   7.145  0.1744 -0.0709  0.0525
  710POPI   C3A10953  16.988   4.102   7.526 -0.0681  0.1008  0.1420
  710POPI   C4A10954  16.939   4.354   7.942 -0.3061  0.1080 -0.2125
  710POPI   C1B10955  16.309   4.740   6.464 -0.0235  0.2272  0.0547
  710POPI   C2B10956  16.150   5.081   6.719 -0.1585  0.1605  0.2354
  710POPI   C3B10957  16.016   5.131   7.162  0.0258  0.4595 -0.1834
  710POPI   C4B10958  15.906   5.007   7.520 -0.1322  0.2669  0.2756
  711POPI    C110959  17.642   5.880   5.885  0.1842 -0.0438  0.0372
  711POPI    C210960  17.670   6.189   5.632 -0.0035  0.0318  0.1070
  711POPI    C310961  17.845   5.841   5.543 -0.0885  0.0504 -0.1387
  711POPI   PO410962  17.394   5.871   5.951  0.0583  0.1035 -0.0921
  711POPI   GL110963  17.473   5.673   6.349 -0.1467 -0.2182 -0.3818
  711POPI   GL210964  17.677   5.968   6.392 -0.0298 -0.1085  0.0767
  711POPI   C1A10965  17.465   5.383   6.745 -0.0914  0.0677  0.1574
  711POPI   D2A10966  17.498   5.222   7.159  0.2976  0.0068  0.0036
  711POPI   C3A10967  17.216   5.290   7.486  0.0211  0.0340  0.0100
  711POPI   C4A10968  16.851   5.180   7.800  0.1050 -0.1307  0.0266
  711POPI   C1B10969  17.852   5.801   6.754 -0.0192  0.0706 -0.0894
  711POPI   C2B10970  17.815   5.602   7.205  0.0858  0.0875  0.4821
  711POPI   C3B10971  17.552   5.643   7.641 -0.0555  0.0697  0.1020
  711POPI   C4B10972  17.268   5.630   7.996 -0.0246  0.0220 -0.0492
  712POPI    C110973   2.266   9.244   5.822 -0.3364  0.0424 -0.0130
  712POPI    C210974   1.926   9.310   5.622 -0.1582 -0.0710 -0.3623
  712POPI    C310975   2.269   9.260   5.422  0.0848  0.1435 -0.0111
  712POPI   PO410976   2.266   9.005   5.989  0.1507  0.1083 -0.0533
  712POPI   GL110977   2.370   9.101   6.402 -0.0110 -0.0018  0.3399
  712POPI   GL210978   2.114   9.110   6.514  0.0153 -0.0365 -0.0165
  712POPI   C1A10979   2.752   9.120   6.614  0.1044  0.3915  0.2637
  712POPI   D2A10980   3.068   9.285   6.799 -0.2235  0.1237 -0.1171
  712POPI   C3A10981   3.142   9.275   7.303 -0.1787 -0.2594  0.3302
  712POPI   C4A10982   3.022   9.527   7.655 -0.1784  0.0621 -0.1242
  712POPI   C1B10983   2.305   9.186   6.949 -0.1294  0.3555  0.0514
  712POPI   C2B10984   2.233   9.175   7.323  0.0427 -0.0902  0.0160
  712POPI   C3B10985   2.305   9.216   7.737 -0.0237  0.1620  0.0581
  712POPI   C4B10986   2.582   9.454   8.001  0.0153  0.1450 -0.0683
  713POPI    C110987   0.588   7.080   6.003  0.0133 -0.0529 -0.1122
  713POPI    C210988   0.501   7.344   5.715  0.1832  0.1140 -0.0130
  713POPI    C310989   0.784   7.069   5.654  0.0408 -0.0155 -0.0980
  713POPI   PO410990   0.388   6.992   6.103 -0.2246  0.3934 -0.1547
  713POPI   GL110991   0.220   7.204   6.494 -0.0030 -0.1337  0.0113
  713POPI   GL210992   0.428   7.230   6.566  0.0844  0.0530  0.2082
  713POPI   C1A10993  -0.117   7.317   6.746  0.1218 -0.0650 -0.1548
  713POPI   D2A10994  -0.106   7.402   7.142 -0.2011 -0.0121  0.1794
  713POPI   C3A10995  -0.389   7.355   7.440 -0.0907  0.2144  0.0876
  713POPI   C4A10996  -0.829   7.402   7.605  0.0982 -0.0351  0.0098
  713POPI   C1B10997   0.304   7.110   6.974  0.0171  0.0638 -0.0886
  713POPI   C2B10998   0.214   6.970   7.399  0.2016 -0.1274  0.1460
  713POPI   C3B10999   0.302   7.110   7.820  0.2716  0.0240 -0.3317
  713POPI   C4B11000   0.186   7.464   8.055 -0.0998  0.1819 -0.0644
  714POPI    C111001   6.436  10.910   5.206  0.1945  0.1062  0.1217
  714POPI    C211002   6.587  11.231   5.022  0.0216 -0.0861 -0.3745
  714POPI    C311003   6.832  10.945   5.156  0.1718  0.2126  0.0103
  714POPI   PO411004   6.281  11.076   5.480  0.0502 -0.2119  0.1339
  714POPI   GL111005   6.344  11.080   5.895  0.0813  0.0532 -0.0365
  714POPI   GL211006   5.969  11.097   6.019  0.1710 -0.1330  0.2547
  714POPI   C1A11007   6.557  11.333   6.224 -0.0139  0.2939  0.1880
  714POPI   D2A11008   7.097  11.457   6.385 -0.0687  0.2778 -0.0387
  714POPI   C3A11009   7.418  11.170   6.581 -0.2191  0.2530 -0.2093
  714POPI   C4A11010   7.563  11.128   6.934 -0.1583 -0.0727  0.0601
  714POPI   C1B11011   6.105  10.936   6.416 -0.0095  0.1594  0.1453
  714POPI   C2B11012   6.488  11.078   6.657  0.0478 -0.2710 -0.0041
  714POPI   C3B11013   6.647  10.996   7.135 -0.2308  0.3758  0.1861
  714POPI   C4B11014   6.926  11.299   7.475  0.0633 -0.0439  0.0015
  715POPI    C111015  12.019  14.900   5.820  0.0079  0.2252 -0.1504
  715POPI    C211016  11.748  14.606   5.825 -0.1127  0.3370 -0.0110
  715POPI    C311017  12.118  14.535   5.691 -0.1005  0.0872  0.1487
  715POPI   PO411018  12.002  15.040   6.144 -0.0771  0.3398  0.0930
  715POPI   GL111019  12.133  15.227   6.519 -0.1938 -0.1867 -0.0946
  715POPI   GL211020  12.475  15.242   6.348 -0.2288 -0.0459  0.0440
  715POPI   C1A11021  11.895  14.911   6.783 -0.1823 -0.1128 -0.1431
  715POPI   D2A11022  11.916  14.649   7.254 -0.0093 -0.0039 -0.2721
  715POPI   C3A11023  11.774  14.893   7.615  0.0459  0.0048 -0.1393
  715POPI   C4A11024  11.670  15.245   7.867  0.0023  0.2364  0.0930
  715POPI   C1B11025  12.540  15.222   6.889 -0.1965  0.0157  0.4528
  715POPI   C2B11026  12.402  15.424   7.267 -0.3000  0.0426  0.1481
  715POPI   C3B11027  12.510  15.401   7.697  0.1841 -0.3061  0.1399
  715POPI   C4B11028  12.338  15.834   7.928 -0.1553 -0.0373 -0.2616
  716POPI    C111029   6.639   7.000   5.581 -0.0301 -0.0751  0.0170
  716POPI    C211030   6.583   6.786   5.248  0.0690  0.3210 -0.2614
  716POPI    C311031   6.896   7.033   5.277  0.1257  0.2064  0.1752
  716POPI   PO411032   6.573   6.791   5.850 -0.1790  0.0402  0.1051
  716POPI   GL111033   6.370   6.868   6.216  0.0820  0.0514  0.2312
  716POPI   GL211034   6.672   6.976   6.352 -0.4323 -0.0146 -0.1414
  716POPI   C1A11035   6.305   6.697   6.683 -0.1004  0.0150  0.0438
  716POPI   D2A11036   6.024   6.648   6.963 -0.1505  0.2157 -0.2140
  716POPI   C3A11037   5.953   6.842   7.310 -0.0235 -0.3084  0.1175
  716POPI   C4A11038   5.708   7.004   7.539  0.2039  0.1361 -0.2275
  716POPI   C1B11039   6.644   6.994   6.871  0.3142  0.1094  0.0160
  716POPI   C2B11040   6.443   6.810   7.206  0.0297 -0.2006 -0.1759
  716POPI   C3B11041   6.463   6.926   7.642  0.2904  0.2211 -0.1509
  716POPI   C4B11042   6.534   6.883   8.057  0.1588 -0.0080 -0.1400
  717POPI    C111043  15.564  17.608   5.757  0.0784  0.0676  0.0593
  717POPI    C211044  15.886  17.845   5.778  0.0428  0.1277 -0.0642
  717POPI    C311045  15.812  17.636   5.445  0.0349 -0.0023  0.0182
  717POPI   PO411046  15.665  17.429   6.043 -0.3154 -0.0580 -0.1223
  717POPI   GL111047  15.518  17.210   6.452  0.2452  0.1668  0.0631
  717POPI   GL211048  15.841  17.044   6.528  0.0438 -0.1060  0.1751
  717POPI   C1A11049  15.332  17.508   6.772 -0.0037 -0.2802 -0.0423
  717POPI   D2A11050  14.905  17.810   6.865  0.1854  0.3458 -0.0355
  717POPI   C3A11051  14.915  17.905   7.303 -0.1147  0.0255  0.2218
  717POPI   C4A11052  15.245  18.279   7.398  0.0073  0.1487 -0.3441
  717POPI   C1B11053  15.776  17.156   6.962  0.0662 -0.0275  0.0128
  717POPI   C2B11054  15.718  17.314   7.292  0.0388 -0.0697 -0.0840
  717POPI   C3B11055  15.795  17.624   7.560 -0.0347  0.0753  0.4443
  717POPI   C4B11056  15.701  17.480   7.994 -0.1050 -0.0176  0.0960
  718POPI    C111057  10.941  16.342   6.193  0.2353 -0.2219 -0.2136
  718POPI    C211058  10.695  16.539   5.948  0.3252  0.1959  0.0220
  718POPI    C311059  11.067  16.451   5.829  0.2259 -0.0001 -0.1515
  718POPI   PO411060  10.813  16.118   6.317  0.0047 -0.2032 -0.1669
  718POPI   GL111061  10.865  15.926   6.702 -0.2527 -0.0573 -0.0489
  718POPI   GL211062  10.519  15.889   6.610 -0.0525  0.0715  0.0712
  718POPI   C1A11063  10.971  15.802   7.053 -0.0994 -0.0330 -0.2073
  718POPI   D2A11064  10.937  15.823   7.346  0.0414 -0.1661  0.1297
  718POPI   C3A11065  11.208  15.594   7.590  0.1804 -0.0305  0.0711
  718POPI   C4A11066  11.343  15.595   7.977  0.3659 -0.0041 -0.0269
  718POPI   C1B11067  10.365  15.767   7.009 -0.0095  0.1102 -0.0907
  718POPI   C2B11068  10.363  15.770   7.374 -0.0524  0.4346 -0.0307
  718POPI   C3B11069  10.576  15.777   7.764 -0.0458 -0.1245  0.0975
  718POPI   C4B11070  10.839  15.636   8.147 -0.1855  0.1399  0.2432
  719POPI    C111071   6.442   4.088   5.573  0.1717 -0.1361  0.1357
  719POPI    C211072   6.824   3.980   5.626  0.1818 -0.1127  0.1115
  719POPI    C311073   6.639   3.898   5.281  0.2351  0.0795  0.0361
  719POPI   PO411074   6.342   3.996   5.825 -0.0963  0.0442  0.0957
  719POPI   GL111075   6.342   4.187   6.390  0.0823 -0.2025  0.1074
  719POPI   GL211076   6.597   4.064   6.625 -0.2842  0.0814 -0.3743
  719POPI   C1A11077   6.127   4.012   6.703  0.1182  0.0918 -0.2188
  719POPI   D2A11078   6.331   4.159   7.042  0.0057 -0.2894 -0.0764
  719POPI   C3A11079   6.413   4.166   7.534  0.0280  0.1747  0.1658
  719POPI   C4A11080   6.378   4.186   7.945 -0.2077 -0.1243  0.0645
  719POPI   C1B11081   6.930   4.003   6.994  0.0120 -0.0422 -0.1333
  719POPI   C2B11082   7.311   4.087   7.199  0.0505  0.3831 -0.1475
  719POPI   C3B11083   7.660   4.291   7.565  0.1323 -0.1956 -0.0055
  719POPI   C4B11084   8.066   4.147   7.638  0.2692  0.2076  0.2507
  720POPI    C111085  10.204   9.917   5.148  0.0928  0.1507 -0.2586
  720POPI    C211086  10.524  10.135   5.045  0.2177  0.0419 -0.1062
  720POPI    C311087  10.519   9.741   4.975  0.0773  0.0588 -0.1941
  720POPI   PO411088  10.043  10.010   5.374  0.5514 -0.1511 -0.0021
  720POPI   GL111089  10.151  10.277   5.688  0.2423  0.0309  0.0361
  720POPI   GL211090  10.386  10.370   5.863  0.4397 -0.0621  0.1214
  720POPI   C1A11091   9.954  10.173   6.095 -0.1472  0.1116 -0.0542
  720POPI   D2A11092   9.959  10.189   6.505 -0.1843  0.1190  0.2436
  720POPI   C3A11093   9.632  10.238   6.855 -0.0160  0.0923 -0.1062
  720POPI   C4A11094   9.670  10.273   7.346 -0.0460 -0.1473 -0.1310
  720POPI   C1B11095  10.453  10.229   6.282 -0.1998 -0.0134 -0.1253
  720POPI   C2B11096  10.407  10.159   6.664  0.0751 -0.0393 -0.0457
  720POPI   C3B11097  10.563  10.102   7.021 -0.0542 -0.1803 -0.2010
  720POPI   C4B11098  10.520  10.233   7.524 -0.3385 -0.0162  0.0129
  721POPI    C111099  13.283   1.886   6.058 -0.2072 -0.0769 -0.0414
  721POPI    C211100  13.664   1.925   5.944 -0.2695  0.1369 -0.1824
  721POPI    C311101  13.498   1.562   5.965 -0.1299  0.0612 -0.3582
  721POPI   PO411102  13.180   2.099   5.925  0.1626  0.0606 -0.1264
  721POPI   GL111103  12.939   2.351   6.205  0.0875  0.1239  0.1397
  721POPI   GL211104  12.824   2.072   6.246 -0.1939 -0.1772 -0.0687
  721POPI   C1A11105  13.027   2.578   6.588  0.0741 -0.3173 -0.0417
  721POPI   D2A11106  13.115   2.863   6.959 -0.0528  0.3739  0.0844
  721POPI   C3A11107  13.116   2.793   7.353  0.0080 -0.0209 -0.1569
  721POPI   C4A11108  12.915   2.915   7.760  0.0051 -0.3047 -0.0213
  721POPI   C1B11109  12.893   2.098   6.726 -0.1796 -0.0997  0.2046
  721POPI   C2B11110  13.086   2.188   7.211  0.2395 -0.0556  0.1337
  721POPI   C3B11111  13.222   2.206   7.638 -0.1045  0.2275 -0.0461
  721POPI   C4B11112  13.071   2.326   8.000  0.0211  0.3961 -0.1483
  722POPI    C111113  18.030   5.224   5.656  0.1786 -0.1577  0.1602
  722POPI    C211114  17.945   5.399   5.306 -0.3588 -0.3935  0.1633
  722POPI    C311115  18.326   5.351   5.418 -0.1887  0.1908 -0.1249
  722POPI   PO411116  17.758   5.004   5.687  0.2651 -0.1790  0.0177
  722POPI   GL111117  17.677   5.029   6.028 -0.1648  0.1664  0.2391
  722POPI   GL211118  17.358   5.155   6.166  0.0611 -0.0310  0.0394
  722POPI   C1A11119  17.590   4.851   6.502  0.0775 -0.2218  0.2734
  722POPI   D2A11120  17.654   4.778   6.921  0.2092  0.0411 -0.1227
  722POPI   C3A11121  17.716   4.813   7.326 -0.0784  0.1486 -0.1315
  722POPI   C4A11122  17.698   5.207   7.637 -0.2799 -0.0298  0.1585
  722POPI   C1B11123  17.134   5.037   6.472 -0.0465 -0.1468 -0.0950
  722POPI   C2B11124  17.095   4.916   6.906 -0.4089 -0.0585 -0.0767
  722POPI   C3B11125  17.025   4.906   7.307 -0.1162 -0.0244  0.0240
  722POPI   C4B11126  16.758   4.635   7.476  0.0499 -0.0908  0.0660
  723POPI    C111127  16.737   0.119   5.894 -0.3098 -0.0792 -0.1215
  723POPI    C211128  17.136   0.125   5.872 -0.2944  0.0465  0.1511
  723POPI    C311129  16.924   0.438   5.742 -0.3047 -0.0144  0.0195
  723POPI   PO411130  16.659   0.014   6.103  0.1873 -0.0350 -0.0341
  723POPI   GL111131  16.664  -0.218   6.433 -0.0545  0.1457 -0.0033
  723POPI   GL211132  16.896  -0.396   6.510 -0.2971  0.0017 -0.1777
  723POPI   C1A11133  16.685  -0.013   6.878  0.0257 -0.3155 -0.1017
  723POPI   D2A11134  16.491   0.234   7.157  0.1564  0.1955  0.0913
  723POPI   C3A11135  16.576   0.254   7.581 -0.1587  0.0743  0.1433
  723POPI   C4A11136  16.681   0.303   8.038  0.0500 -0.1370 -0.1509
  723POPI   C1B11137  17.102  -0.314   6.930  0.2593  0.2027  0.1491
  723POPI   C2B11138  17.121  -0.342   7.347  0.0922  0.2195  0.0931
  723POPI   C3B11139  17.182  -0.315   7.818 -0.0381 -0.1272 -0.2136
  723POPI   C4B11140  17.350  -0.451   8.213 -0.2381 -0.0480  0.0603
  724POPI    C111141   0.380  16.391   5.965  0.0528 -0.0306 -0.0880
  724POPI    C211142   0.560  16.695   5.777  0.2293 -0.0808 -0.0022
  724POPI    C311143   0.771  16.373   5.886  0.0789 -0.1582  0.0642
  724POPI   PO411144   0.309  16.456   6.188 -0.0515  0.4127 -0.2226
  724POPI   GL111145   0.010  16.397   6.536 -0.1190 -0.0447 -0.1943
  724POPI   GL211146   0.255  16.735   6.606 -0.2233  0.2234  0.3602
  724POPI   C1A11147   0.034  16.173   6.912 -0.0823 -0.1699  0.1047
  724POPI   D2A11148   0.037  15.845   7.232  0.2377 -0.1631 -0.1284
  724POPI   C3A11149   0.198  15.919   7.607 -0.3030 -0.1401  0.0406
  724POPI   C4A11150   0.462  16.220   7.928  0.1752 -0.1748  0.0365
  724POPI   C1B11151   0.094  16.620   6.990 -0.1172 -0.2077 -0.1474
  724POPI   C2B11152   0.100  16.353   7.406  0.1546 -0.2998  0.1614
  724POPI   C3B11153  -0.161  16.433   7.830 -0.1604  0.1441  0.0779
  724POPI   C4B11154  -0.172  16.477   8.289 -0.1717 -0.0526 -0.0604
  725POPI    C111155  11.230  17.066   5.577  0.0603 -0.2636  0.0014
  725POPI    C211156  10.872  16.887   5.578 -0.1424  0.1210  0.4781
  725POPI    C311157  10.931  17.216   5.358 -0.0097 -0.0692  0.2250
  725POPI   PO411158  11.273  16.923   5.876  0.0235  0.1042  0.2205
  725POPI   GL111159  11.187  16.777   6.329  0.2587  0.0764  0.0901
  725POPI   GL211160  10.923  16.775   6.436  0.2866 -0.1413  0.1378
  725POPI   C1A11161  11.563  17.104   6.442  0.1878  0.3121 -0.2790
  725POPI   D2A11162  12.002  17.235   6.369  0.2508  0.0220 -0.0512
  725POPI   C3A11163  12.301  17.484   6.606  0.0803 -0.1015 -0.1477
  725POPI   C4A11164  12.425  17.471   7.048  0.1504 -0.0456 -0.0398
  725POPI   C1B11165  11.055  16.808   6.819 -0.0381  0.0281  0.1853
  725POPI   C2B11166  11.058  16.759   7.256 -0.1803 -0.2845  0.1107
  725POPI   C3B11167  11.163  16.499   7.683 -0.0038 -0.0849  0.2498
  725POPI   C4B11168  11.513  16.291   7.931  0.0592 -0.0257 -0.0920
  726POPI    C111169   0.553  11.684   5.503 -0.0422  0.0601  0.1147
  726POPI    C211170   0.194  11.596   5.655 -0.1476 -0.1912 -0.2662
  726POPI    C311171   0.249  11.596   5.259  0.2394 -0.0143 -0.2171
  726POPI   PO411172   0.707  11.566   5.805  0.0722  0.0311 -0.0852
  726POPI   GL111173   0.701  11.656   6.255 -0.2376 -0.0748  0.2533
  726POPI   GL211174   0.384  11.834   6.115 -0.3473  0.2440  0.1156
  726POPI   C1A11175   0.790  11.522   6.616 -0.0350  0.3325  0.0885
  726POPI   D2A11176   0.707  11.692   6.998 -0.0095  0.0679  0.2976
  726POPI   C3A11177   0.666  11.674   7.458  0.2426 -0.1883 -0.0384
  726POPI   C4A11178   0.654  11.360   7.844 -0.1730  0.1098 -0.0333
  726POPI   C1B11179   0.296  11.823   6.500  0.3360 -0.0475 -0.0306
  726POPI   C2B11180   0.273  11.941   6.856 -0.0041 -0.1649  0.0617
  726POPI   C3B11181   0.207  11.870   7.339 -0.2546 -0.2361  0.0875
  726POPI   C4B11182   0.168  11.996   7.757  0.3661  0.0735  0.0155
  727POPI    C111183   4.926  14.114   5.490 -0.0476 -0.0171 -0.0583
  727POPI    C211184   4.922  14.491   5.355 -0.0282  0.0217  0.0481
  727POPI    C311185   5.082  14.200   5.131 -0.0316  0.0786 -0.0289
  727POPI   PO411186   4.860  14.192   5.808  0.3276 -0.0793  0.0548
  727POPI   GL111187   4.747  14.027   6.199  0.0268 -0.1826  0.2499
  727POPI   GL211188   4.939  13.832   6.153 -0.0342  0.3041  0.0225
  727POPI   C1A11189   4.754  13.924   6.674  0.0314  0.2248 -0.1759
  727POPI   D2A11190   4.626  13.680   6.982 -0.3281  0.1571 -0.0031
  727POPI   C3A11191   4.611  13.827   7.374  0.0247  0.1384  0.2738
  727POPI   C4A11192   4.728  13.826   7.852 -0.0412  0.0142 -0.1151
  727POPI   C1B11193   5.193  13.493   6.457  0.0852 -0.1053 -0.1892
  727POPI   C2B11194   5.325  13.174   6.734  0.1795 -0.0317 -0.3389
  727POPI   C3B11195   5.178  13.088   7.213  0.1643 -0.1005 -0.0133
  727POPI   C4B11196   4.918  13.414   7.512 -0.1060 -0.1157 -0.2280
  728POPI    C111197  13.160  13.710   5.583 -0.0061 -0.2279 -0.0722
  728POPI    C211198  12.785  13.848   5.563  0.0360 -0.1123 -0.0718
  728POPI    C311199  12.899  13.545   5.328 -0.0156 -0.0475 -0.1807
  728POPI   PO411200  13.163  13.742   5.882  0.1190 -0.0420 -0.0920
  728POPI   GL111201  13.230  13.949   6.245  0.1115  0.2678  0.0080
  728POPI   GL211202  13.311  14.178   6.454  0.0079 -0.4707 -0.0246
  728POPI   C1A11203  12.987  13.847   6.615 -0.0081 -0.2806  0.4460
  728POPI   D2A11204  12.496  13.906   6.529  0.2886 -0.4204  0.0051
  728POPI   C3A11205  12.263  14.036   6.896  0.2977 -0.0464  0.0755
  728POPI   C4A11206  12.184  14.447   6.851  0.1700  0.1830  0.0110
  728POPI   C1B11207  13.231  14.448   6.785  0.2554 -0.0217 -0.1438
  728POPI   C2B11208  13.155  14.494   7.231 -0.0780 -0.1071 -0.0780
  728POPI   C3B11209  13.023  14.279   7.583 -0.1296 -0.0725 -0.0188
  728POPI   C4B11210  13.028  14.522   7.888 -0.0447  0.1690  0.0710
  729POPI    C111211  17.616   3.531   5.457 -0.2452 -0.0326 -0.0757
  729POPI    C211212  17.378   3.246   5.307  0.0145 -0.1126 -0.3457
  729POPI    C311213  17.619   3.453   5.064 -0.0716  0.2469 -0.1324
  729POPI   PO411214  17.478   3.632   5.658 -0.0510 -0.2491  0.2062
  729POPI   GL111215  17.533   3.822   5.988 -0.3219 -0.0929  0.0594
  729POPI   GL211216  17.343   3.581   6.098 -0.0361  0.2634 -0.2392
  729POPI   C1A11217  17.768   3.663   6.382 -0.1566  0.0884 -0.0746
  729POPI   D2A11218  17.751   3.617   6.840  0.2139 -0.2352 -0.1331
  729POPI   C3A11219  17.857   3.980   7.098 -0.0738  0.0466  0.0416
  729POPI   C4A11220  17.722   4.323   7.200 -0.3091  0.0426  0.1558
  729POPI   C1B11221  17.261   3.476   6.532 -0.0023 -0.1266 -0.3738
  729POPI   C2B11222  17.317   3.395   6.984  0.0348  0.3805  0.0207
  729POPI   C3B11223  17.562   3.483   7.275 -0.0792  0.1375  0.2147
  729POPI   C4B11224  17.605   3.472   7.754 -0.0630 -0.2952 -0.2103
  730POPI    C111225  10.982  10.146   5.402  0.1616 -0.1113  0.0014
  730POPI    C211226  11.260  10.201   5.684  0.0683  0.0196  0.0691
  730POPI    C311227  11.144  10.508   5.455  0.1676 -0.0935 -0.1352
  730POPI   PO411228  11.032   9.808   5.407  0.1296  0.2753  0.1231
  730POPI   GL111229  10.953   9.467   5.762  0.0387  0.3059 -0.2807
  730POPI   GL211230  10.681   9.603   5.860 -0.0794  0.1548  0.0682
  730POPI   C1A11231  11.186   9.595   6.116  0.0943 -0.0944 -0.1969
  730POPI   D2A11232  11.182   9.553   6.632  0.0641  0.0123 -0.1052
  730POPI   C3A11233  11.443   9.336   6.886  0.3368  0.1796  0.0423
  730POPI   C4A11234  11.661   9.291   7.275  0.2341  0.0607 -0.1644
  730POPI   C1B11235  10.703   9.640   6.295 -0.2821  0.0809 -0.1391
  730POPI   C2B11236  10.675   9.666   6.722 -0.0331 -0.1032  0.1324
  730POPI   C3B11237  10.580   9.675   7.166 -0.2983  0.0794 -0.0330
  730POPI   C4B11238  10.564   9.771   7.540 -0.2883 -0.0227  0.2635
  731POPI    C111239  11.928   1.330   5.643 -0.0873 -0.1841 -0.0248
  731POPI    C211240  11.641   1.498   5.420 -0.1370 -0.1006  0.1012
  731POPI    C311241  12.025   1.552   5.324 -0.1624 -0.2148 -0.0695
  731POPI   PO411242  11.818   1.216   5.869 -0.0368 -0.0359  0.0409
  731POPI   GL111243  11.753   1.472   6.253 -0.0770 -0.2572  0.0478
  731POPI   GL211244  11.428   1.541   6.072 -0.1936  0.1457 -0.0830
  731POPI   C1A11245  11.936   1.296   6.628 -0.0867 -0.1965  0.0255
  731POPI   D2A11246  11.863   1.166   7.037 -0.1451  0.0407 -0.0640
  731POPI   C3A11247  11.753   1.504   7.206  0.0775  0.3990  0.0109
  731POPI   C4A11248  11.421   1.706   7.429  0.2009  0.0422  0.1829
  731POPI   C1B11249  11.384   1.741   6.493  0.1451  0.1672  0.0775
  731POPI   C2B11250  11.702   1.945   6.812  0.4967 -0.0141  0.1125
  731POPI   C3B11251  11.808   2.066   7.168  0.0050 -0.0273 -0.4470
  731POPI   C4B11252  11.699   2.242   7.579  0.1049  0.1176 -0.0130
  732POPI    C111253   5.492   2.342   5.968  0.1722  0.0956 -0.1946
  732POPI    C211254   5.338   2.586   5.691 -0.1825  0.0515 -0.0409
  732POPI    C311255   5.578   2.286   5.581 -0.0818  0.2130 -0.2703
  732POPI   PO411256   5.635   2.471   6.185 -0.0501 -0.1398 -0.0118
  732POPI   GL111257   5.597   2.704   6.434  0.2334 -0.2389 -0.0616
  732POPI   GL211258   5.824   2.932   6.396 -0.0673  0.0580 -0.0389
  732POPI   C1A11259   5.627   2.591   6.849  0.4558  0.0263 -0.1836
  732POPI   D2A11260   5.518   2.685   7.236 -0.0355  0.1249  0.1856
  732POPI   C3A11261   5.239   2.337   7.391  0.0246  0.0288  0.1829
  732POPI   C4A11262   5.122   1.821   7.498 -0.0481  0.0899  0.1544
  732POPI   C1B11263   6.066   2.642   6.696  0.2028 -0.1147  0.0805
  732POPI   C2B11264   6.045   2.685   7.136  0.1621  0.1841 -0.1065
  732POPI   C3B11265   6.253   2.753   7.526  0.3087  0.2073  0.0923
  732POPI   C4B11266   6.553   2.814   7.811 -0.3238 -0.1642  0.2274
  733POPI    C111267  15.977   8.586   5.650  0.1415  0.1575 -0.0140
  733POPI    C211268  16.264   8.367   5.478  0.1017 -0.0605  0.1927
  733POPI    C311269  16.221   8.752   5.379  0.2709 -0.1039 -0.0605
  733POPI   PO411270  15.960   8.529   5.977 -0.1585  0.1787 -0.1658
  733POPI   GL111271  15.841   8.150   6.199  0.0876  0.2567  0.0203
  733POPI   GL211272  16.019   7.901   6.312 -0.0423 -0.0135 -0.2181
  733POPI   C1A11273  15.570   8.183   6.558  0.1652 -0.4542 -0.2405
  733POPI   D2A11274  15.138   8.252   6.798  0.0846 -0.2919 -0.2722
  733POPI   C3A11275  14.952   8.022   7.157 -0.0002  0.0026  0.0496
  733POPI   C4A11276  14.560   8.033   7.263 -0.3163 -0.1489  0.2106
  733POPI   C1B11277  15.904   7.837   6.754  0.1811 -0.0232  0.0039
  733POPI   C2B11278  15.853   7.894   7.183  0.3386  0.2753  0.2320
  733POPI   C3B11279  15.841   8.179   7.582 -0.0673  0.1291  0.5122
  733POPI   C4B11280  15.775   8.173   8.126  0.1575 -0.1420  0.0838
  734POPI    C111281  10.551   5.443   5.821 -0.1379  0.3563 -0.1579
  734POPI    C211282  10.345   5.375   5.485 -0.0914 -0.0694 -0.1058
  734POPI    C311283  10.517   5.071   5.679  0.3435  0.2409  0.0108
  734POPI   PO411284  10.468   5.630   5.905  0.1829 -0.0236  0.1416
  734POPI   GL111285  10.292   5.706   6.329 -0.2874  0.0564  0.0698
  734POPI   GL211286   9.899   5.623   6.325 -0.0771  0.4955  0.0249
  734POPI   C1A11287  10.572   5.911   6.615 -0.2163  0.0141  0.0176
  734POPI   D2A11288  10.555   5.720   7.038  0.1132 -0.0139  0.1214
  734POPI   C3A11289  10.335   6.046   7.421 -0.1187 -0.0313  0.0443
  734POPI   C4A11290  10.219   6.238   7.733 -0.0128  0.0071 -0.2195
  734POPI   C1B11291   9.665   5.928   6.576 -0.1074  0.1464  0.0414
  734POPI   C2B11292   9.639   6.069   6.952 -0.0288  0.2559  0.0785
  734POPI   C3B11293   9.854   6.219   7.368  0.0818  0.3619  0.3715
  734POPI   C4B11294   9.716   6.197   7.795  0.0470 -0.1417  0.3319
  735POPI    C111295   8.367   1.783   5.688 -0.0728 -0.0363  0.4019
  735POPI    C211296   8.675   1.529   5.713 -0.1373 -0.1624 -0.0124
  735POPI    C311297   8.628   1.754   5.386 -0.3371  0.0523  0.1609
  735POPI   PO411298   8.272   1.677   5.942  0.0810  0.2235  0.4679
  735POPI   GL111299   8.384   1.666   6.315  0.3027  0.1401 -0.4935
  735POPI   GL211300   8.502   1.463   6.496  0.1274 -0.0526 -0.2769
  735POPI   C1A11301   8.381   1.990   6.647  0.1067  0.0449  0.3833
  735POPI   D2A11302   8.508   2.461   6.762  0.0371 -0.3200  0.1110
  735POPI   C3A11303   8.455   2.637   7.153 -0.4311 -0.1721 -0.0469
  735POPI   C4A11304   8.351   2.764   7.586  0.1429  0.1237 -0.0531
  735POPI   C1B11305   8.450   1.570   6.873 -0.1284 -0.1980  0.1208
  735POPI   C2B11306   8.524   2.007   7.124 -0.2525  0.0311  0.1446
  735POPI   C3B11307   8.281   2.276   7.445  0.3856  0.3238 -0.2434
  735POPI   C4B11308   7.955   2.415   7.660  0.1254 -0.0355  0.0568
  736POPI    C111309   0.163  15.528   5.874 -0.3400  0.1343 -0.0752
  736POPI    C211310   0.128  15.141   5.778  0.0499  0.1010 -0.0969
  736POPI    C311311   0.112  15.421   5.492  0.0732  0.0798 -0.1190
  736POPI   PO411312   0.115  15.527   6.181  0.0427  0.0832  0.3356
  736POPI   GL111313  -0.240  15.637   6.437 -0.0856 -0.3085 -0.0764
  736POPI   GL211314  -0.400  15.486   6.249  0.1460 -0.2246  0.0005
  736POPI   C1A11315  -0.244  15.743   6.842  0.0987  0.0576 -0.1316
  736POPI   D2A11316  -0.511  15.682   7.183 -0.1567 -0.0881 -0.1913
  736POPI   C3A11317  -0.355  15.950   7.512  0.0966 -0.0424  0.3470
  736POPI   C4A11318  -0.377  15.933   7.992  0.0284 -0.1510 -0.0366
  736POPI   C1B11319  -0.580  15.316   6.682  0.0217  0.2771 -0.0153
  736POPI   C2B11320  -0.892  15.243   6.946 -0.2399  0.0179 -0.1627
  736POPI   C3B11321  -0.845  15.309   7.388 -0.1213  0.2351  0.0855
  736POPI   C4B11322  -0.548  15.502   7.736 -0.0949  0.3631 -0.0599
  737POPI    C111323   1.886   1.112   5.842  0.2105 -0.1268  0.0016
  737POPI    C211324   1.721   1.129   5.478 -0.0775 -0.0984  0.1303
  737POPI    C311325   1.850   1.464   5.655  0.0343 -0.1082  0.0686
  737POPI   PO411326   2.016   0.847   5.862  0.2761 -0.1140  0.0496
  737POPI   GL111327   2.024   0.670   6.146  0.2001  0.2785 -0.2557
  737POPI   GL211328   2.014   0.335   6.133  0.0726  0.2613 -0.0091
  737POPI   C1A11329   1.858   0.513   6.590  0.0637 -0.1300  0.0555
  737POPI   D2A11330   1.678   0.501   7.002  0.1784  0.0708  0.0147
  737POPI   C3A11331   1.902   0.437   7.342  0.0220 -0.1810 -0.1219
  737POPI   C4A11332   2.026   0.599   7.661  0.0729  0.0768  0.0900
  737POPI   C1B11333   2.336   0.506   6.515 -0.2653 -0.0451 -0.0915
  737POPI   C2B11334   2.518   0.318   6.797 -0.5750  0.1785  0.0778
  737POPI   C3B11335   2.860   0.222   7.170  0.0469  0.1283 -0.2943
  737POPI   C4B11336   2.851   0.318   7.598 -0.0128  0.0480  0.0777
  738POPI    C111337   4.245  17.131   5.841  0.2273 -0.1005 -0.1340
  738POPI    C211338   4.364  17.181   5.462 -0.0999  0.0146 -0.2248
  738POPI    C311339   4.347  16.813   5.620  0.2383 -0.0160 -0.2512
  738POPI   PO411340   4.321  17.315   5.965  0.0471  0.3827 -0.1139
  738POPI   GL111341   4.251  17.584   6.278  0.2346 -0.2503  0.1351
  738POPI   GL211342   4.163  17.861   6.353  0.2371 -0.1706  0.0195
  738POPI   C1A11343   4.015  17.392   6.527 -0.2452 -0.0471  0.0245
  738POPI   D2A11344   3.844  17.430   6.966 -0.1040 -0.0237 -0.0847
  738POPI   C3A11345   4.073  17.618   7.250  0.0991  0.0364 -0.2084
  738POPI   C4A11346   4.058  17.793   7.565  0.0255  0.1256  0.0600
  738POPI   C1B11347   4.175  17.876   6.795  0.0960 -0.0329 -0.0511
  738POPI   C2B11348   4.270  18.199   7.175  0.0578  0.0328 -0.1835
  738POPI   C3B11349   4.303  18.227   7.674  0.1473  0.1430  0.1104
  738POPI   C4B11350   4.403  18.429   8.032 -0.0510 -0.1216  0.0575
  739POPI    C111351  16.608  16.286   5.837 -0.0739 -0.0434 -0.0559
  739POPI    C211352  16.246  16.443   5.769 -0.0829  0.0018  0.0936
  739POPI    C311353  16.563  16.573   5.562 -0.1832 -0.1719 -0.1742
  739POPI   PO411354  16.515  16.192   6.133 -0.1172 -0.2253  0.2625
  739POPI   GL111355  16.389  16.317   6.530 -0.3676 -0.0269 -0.1085
  739POPI   GL211356  16.720  16.424   6.572  0.1197  0.1527 -0.0405
  739POPI   C1A11357  16.176  16.220   6.888 -0.0512  0.4827  0.1086
  739POPI   D2A11358  16.143  16.201   7.348  0.0927  0.2736 -0.0840
  739POPI   C3A11359  15.934  16.278   7.614  0.2759 -0.3056  0.0710
  739POPI   C4A11360  15.901  16.606   7.889  0.2116 -0.4171  0.2060
  739POPI   C1B11361  16.653  16.614   6.897  0.1738  0.0145  0.1579
  739POPI   C2B11362  16.683  16.597   7.382  0.3434 -0.4678 -0.2934
  739POPI   C3B11363  16.461  16.615   7.802 -0.0050  0.2983 -0.2961
  739POPI   C4B11364  16.431  16.636   8.326 -0.3367  0.1766 -0.1553
  740POPI    C111365  17.391  12.676   5.472  0.0104  0.0488  0.0022
  740POPI    C211366  17.693  12.414   5.476 -0.2288 -0.2309  0.3409
  740POPI    C311367  17.484  12.474   5.140  0.3954  0.2048  0.0100
  740POPI   PO411368  17.458  12.787   5.701  0.0461 -0.1414 -0.1124
  740POPI   GL111369  17.388  12.817   6.203  0.0027 -0.1904 -0.1437
  740POPI   GL211370  17.580  12.512   6.129  0.2363 -0.0057  0.3894
  740POPI   C1A11371  17.270  12.628   6.558  0.0326 -0.1303  0.2456
  740POPI   D2A11372  17.093  12.604   7.065 -0.2737  0.2031  0.0365
  740POPI   C3A11373  17.241  12.701   7.346  0.0996  0.0744 -0.1542
  740POPI   C4A11374  17.697  12.723   7.487 -0.1253 -0.0489  0.1105
  740POPI   C1B11375  17.801  12.618   6.508  0.3306  0.0116 -0.0717
  740POPI   C2B11376  17.628  12.737   6.871 -0.3894  0.0466  0.1281
  740POPI   C3B11377  17.559  12.434   7.121  0.2753  0.0542 -0.1100
  740POPI   C4B11378  17.399  12.031   7.434  0.2078 -0.1339 -0.0759
  741POPS   CNO11379   0.038   1.315   6.094  0.0997  0.0600 -0.1645
  741POPS   PO411380   0.418   1.454   6.081  0.1680 -0.0264 -0.0881
  741POPS   GL111381   0.255   1.459   6.489 -0.2034  0.1135  0.1559
  741POPS   GL211382   0.333   1.761   6.527 -0.0822  0.3923  0.1944
  741POPS   C1A11383   0.097   1.491   6.927 -0.2547 -0.0816 -0.0435
  741POPS   D2A11384   0.113   1.592   7.288 -0.1683  0.2058 -0.0818
  741POPS   C3A11385   0.188   1.410   7.590  0.0884 -0.1354  0.0745
  741POPS   C4A11386   0.248   1.341   8.026 -0.1715 -0.1058  0.1315
  741POPS   C1B11387   0.411   1.947   6.905  0.2282 -0.0232 -0.2135
  741POPS   C2B11388   0.524   1.870   7.268 -0.1504  0.3221  0.0444
  741POPS   C3B11389   0.539   1.718   7.735  0.1114 -0.0629 -0.0283
  741POPS   C4B11390   0.739   1.612   8.143 -0.2261  0.0924  0.0995
  742POPS   CNO11391  12.167  11.024   5.973 -0.0091 -0.0675 -0.1506
  742POPS   PO411392  12.419  10.690   6.073  0.0142 -0.0435  0.0785
  742POPS   GL111393  12.092  10.579   6.332  0.2044 -0.1124  0.0857
  742POPS   GL211394  11.766  10.802   6.208  0.0290  0.0074 -0.0328
  742POPS   C1A11395  11.924  10.257   6.620  0.2051 -0.0840 -0.0076
  742POPS   D2A11396  12.005  10.014   6.922 -0.0750  0.0531 -0.0994
  742POPS   C3A11397  12.000   9.876   7.403 -0.1817  0.0111  0.2553
  742POPS   C4A11398  11.949   9.546   7.593  0.0810  0.0188 -0.3367
  742POPS   C1B11399  11.847  10.779   6.733 -0.2042 -0.0810  0.2933
  742POPS   C2B11400  11.955  10.486   7.080  0.1241  0.0310 -0.2074
  742POPS   C3B11401  11.693  10.247   7.454  0.2228 -0.2870 -0.0255
  742POPS   C4B11402  11.352  10.130   7.730 -0.2422  0.0467  0.1190
  743POPS   CNO11403   4.236   3.733   5.510  0.0570  0.2500  0.0988
  743POPS   PO411404   4.365   3.407   5.694 -0.1178 -0.0436 -0.1477
  743POPS   GL111405   4.393   3.532   6.196  0.1731  0.1724  0.4602
  743POPS   GL211406   4.116   3.247   6.341 -0.1006 -0.1259  0.0486
  743POPS   C1A11407   4.549   3.280   6.606 -0.0252 -0.0300  0.0416
  743POPS   D2A11408   4.839   3.155   6.734  0.0169 -0.3715  0.2318
  743POPS   C3A11409   5.042   3.504   6.906  0.0975 -0.0009 -0.1521
  743POPS   C4A11410   4.944   3.916   7.137 -0.0858 -0.0538 -0.1711
  743POPS   C1B11411   4.052   3.281   6.751 -0.0384  0.0954 -0.0249
  743POPS   C2B11412   4.365   3.123   7.032  0.2420 -0.0235  0.1279
  743POPS   C3B11413   4.587   3.222   7.299 -0.0612  0.0194  0.0102
  743POPS   C4B11414   4.736   3.480   7.561 -0.1312 -0.1642  0.0807
  744POPS   CNO11415   9.940   8.666   5.332  0.1666 -0.0956  0.0564
  744POPS   PO411416   9.666   8.723   5.627  0.0841  0.0606 -0.1135
  744POPS   GL111417   9.661   8.662   6.117  0.1382  0.0410  0.1099
  744POPS   GL211418   9.791   8.941   6.189  0.1289 -0.4032  0.2187
  744POPS   C1A11419   9.333   8.758   6.415  0.0866  0.2654  0.0574
  744POPS   D2A11420   9.221   8.757   6.860 -0.0593 -0.3782  0.0472
  744POPS   C3A11421   8.745   8.567   7.046 -0.3611 -0.3419 -0.2377
  744POPS   C4A11422   8.462   8.515   7.415  0.0545 -0.1432  0.1335
  744POPS   C1B11423   9.766   8.855   6.661  0.1859 -0.0623  0.0073
  744POPS   C2B11424   9.650   8.838   7.115 -0.1914 -0.2862 -0.1524
  744POPS   C3B11425   9.660   8.733   7.565  0.0650 -0.3220 -0.0948
  744POPS   C4B11426   9.513   8.873   8.004  0.0968 -0.0374  0.0299
  745POPS   CNO11427   9.796   3.987   5.637 -0.0007 -0.0158 -0.0663
  745POPS   PO411428   9.732   4.357   5.745 -0.1818  0.5263  0.1243
  745POPS   GL111429   9.724   4.522   6.144 -0.0751 -0.1404 -0.0611
  745POPS   GL211430   9.482   4.264   6.229  0.0154 -0.1092  0.2107
  745POPS   C1A11431   9.708   4.634   6.545 -0.0517  0.2607  0.0393
  745POPS   D2A11432   9.682   4.496   6.962  0.2584 -0.0473  0.0613
  745POPS   C3A11433   9.737   4.618   7.385 -0.0591  0.1059 -0.0234
  745POPS   C4A11434   9.641   4.779   7.781  0.0133  0.1749  0.0638
  745POPS   C1B11435   9.444   4.177   6.631 -0.3366  0.2820  0.0810
  745POPS   C2B11436   9.365   4.052   7.043 -0.0544  0.0409  0.0841
  745POPS   C3B11437   9.413   4.059   7.462 -0.1646  0.1651  0.0537
  745POPS   C4B11438   9.330   3.874   7.832 -0.0490 -0.1533 -0.2640
  746POPS   CNO11439  13.568   2.385   5.602  0.1760 -0.4631  0.2295
  746POPS   PO411440  13.910   2.235   5.499  0.0281 -0.0651  0.4485
  746POPS   GL111441  14.050   2.224   5.991  0.0200 -0.1143  0.0497
  746POPS   GL211442  14.378   2.523   6.156  0.3357 -0.0337 -0.2564
  746POPS   C1A11443  14.141   2.252   6.504 -0.1117 -0.3139 -0.2097
  746POPS   D2A11444  14.467   2.153   6.793  0.0435 -0.0449  0.3971
  746POPS   C3A11445  14.504   2.363   7.113 -0.0149  0.1687  0.0079
  746POPS   C4A11446  14.684   2.747   7.378  0.1571 -0.2937  0.1609
  746POPS   C1B11447  14.521   2.598   6.611 -0.0890  0.2699  0.1938
  746POPS   C2B11448  14.411   2.810   6.928 -0.1833 -0.1193 -0.3485
  746POPS   C3B11449  14.642   3.193   7.223  0.0116 -0.2354 -0.0326
  746POPS   C4B11450  14.844   3.480   7.238  0.0723 -0.1560  0.1540
  747POPS   CNO11451   0.090  13.978   5.392  0.3701  0.1438  0.1421
  747POPS   PO411452  -0.081  14.109   5.720  0.1545 -0.0788  0.0584
  747POPS   GL111453   0.003  14.177   6.161  0.1540 -0.0911  0.0824
  747POPS   GL211454  -0.061  14.479   6.307 -0.0383  0.0037 -0.0426
  747POPS   C1A11455   0.070  14.060   6.584 -0.0611  0.4793  0.1875
  747POPS   D2A11456   0.194  13.993   7.039 -0.1560 -0.0068  0.1980
  747POPS   C3A11457   0.295  14.332   7.301 -0.0851 -0.0287  0.1610
  747POPS   C4A11458   0.198  14.694   7.674 -0.1079 -0.2857  0.1409
  747POPS   C1B11459   0.076  14.575   6.735 -0.1397 -0.0996 -0.0952
  747POPS   C2B11460  -0.004  14.748   7.135  0.2221 -0.0596  0.0995
  747POPS   C3B11461  -0.215  14.936   7.547 -0.1190 -0.2916 -0.4121
  747POPS   C4B11462  -0.064  14.983   7.955 -0.3940  0.3895  0.1434
  748POPS   CNO11463   8.769  12.974   5.204  0.1183 -0.1947 -0.1701
  748POPS   PO411464   8.761  12.959   5.667  0.0683 -0.3741  0.2988
  748POPS   GL111465   8.794  12.691   6.060 -0.0433 -0.2465 -0.3047
  748POPS   GL211466   8.522  12.489   5.998 -0.3744 -0.0127 -0.1157
  748POPS   C1A11467   8.623  12.502   6.483 -0.1214  0.0442 -0.0385
  748POPS   D2A11468   8.452  12.432   6.910 -0.0761  0.0864 -0.0535
  748POPS   C3A11469   8.720  12.520   7.221  0.3668 -0.2047 -0.0973
  748POPS   C4A11470   8.702  12.747   7.598  0.0519 -0.1666 -0.0442
  748POPS   C1B11471   8.241  12.266   6.323 -0.1264  0.3629 -0.2189
  748POPS   C2B11472   8.024  12.339   6.645 -0.1479  0.0037 -0.0469
  748POPS   C3B11473   7.896  12.473   7.094 -0.3071 -0.1992 -0.1050
  748POPS   C4B11474   7.753  12.375   7.470  0.0342  0.1558 -0.0058
  749POPS   CNO11475   7.551   3.554   5.998 -0.1863 -0.0353 -0.0392
  749POPS   PO411476   7.128   3.747   5.990  0.0141 -0.0540 -0.0458
  749POPS   GL111477   7.196   3.508   6.310 -0.0123 -0.0699 -0.0314
  749POPS   GL211478   6.971   3.528   6.477 -0.0759 -0.0280 -0.0911
  749POPS   C1A11479   7.516   3.318   6.488  0.1213  0.2221  0.0364
  749POPS   D2A11480   7.876   3.252   6.637  0.1188  0.0425 -0.0837
  749POPS   C3A11481   8.046   3.448   6.926 -0.1998  0.1268  0.0836
  749POPS   C4A11482   8.328   3.275   7.259 -0.1536  0.0222  0.1382
  749POPS   C1B11483   6.872   3.506   6.798 -0.0017  0.2193  0.0047
  749POPS   C2B11484   7.094   3.593   7.181 -0.0888  0.0863  0.1674
  749POPS   C3B11485   7.302   3.499   7.444  0.1399 -0.3565 -0.0670
  749POPS   C4B11486   7.433   3.462   7.852 -0.0903 -0.0887 -0.0528
  750POPS   CNO11487   1.161  13.081   5.362 -0.1151 -0.0317  0.0014
  750POPS   PO411488   0.958  12.900   5.583  0.1765 -0.1404 -0.0152
  750POPS   GL111489   0.935  12.980   5.986 -0.1869 -0.0124  0.0549
  750POPS   GL211490   0.988  13.300   6.073 -0.2986 -0.1383 -0.2621
  750POPS   C1A11491   0.961  12.730   6.347 -0.2159  0.0307  0.0603
  750POPS   D2A11492   0.944  12.717   6.783  0.3672  0.4968  0.4518
  750POPS   C3A11493   0.760  12.774   7.101 -0.2008 -0.0738  0.0035
  750POPS   C4A11494   0.442  12.715   7.381 -0.0050  0.1823  0.2193
  750POPS   C1B11495   1.304  13.142   6.293  0.0995  0.1321 -0.0860
  750POPS   C2B11496   1.401  12.846   6.638  0.1990 -0.2571 -0.2063
  750POPS   C3B11497   1.310  12.852   7.121 -0.1884 -0.0966  0.0332
  750POPS   C4B11498   1.167  12.978   7.375 -0.0678  0.1689 -0.1111
  751POPS   CNO11499   8.697   2.728   5.810  0.1614  0.3292 -0.0103
  751POPS   PO411500   9.018   2.411   5.996 -0.0311 -0.0987 -0.1677
  751POPS   GL111501   9.179   2.306   6.442  0.1601 -0.2399 -0.1215
  751POPS   GL211502   9.340   2.470   6.612  0.2065  0.1036 -0.2815
  751POPS   C1A11503   9.163   2.051   6.913 -0.1332 -0.2055 -0.1645
  751POPS   D2A11504   9.204   2.027   7.356 -0.0312 -0.0388 -0.1055
  751POPS   C3A11505   8.904   2.312   7.586  0.1959 -0.0445  0.1586
  751POPS   C4A11506   8.603   2.417   7.860 -0.0096  0.4216  0.3397
  751POPS   C1B11507   9.075   2.599   6.886 -0.3587  0.1518 -0.0104
  751POPS   C2B11508   8.931   2.710   7.338 -0.0768  0.1251  0.0112
  751POPS   C3B11509   8.861   2.835   7.770 -0.3461 -0.0955  0.1460
  751POPS   C4B11510   8.946   3.111   8.094 -0.0680 -0.2198  0.1197
  752POPS   CNO11511   4.363   9.579   5.979  0.0587 -0.0460  0.1583
  752POPS   PO411512   4.525   9.940   5.759  0.0025 -0.0563  0.2179
  752POPS   GL111513   4.615  10.004   6.260  0.0716  0.0912 -0.0398
  752POPS   GL211514   4.808  10.268   6.303 -0.0155 -0.0488  0.4062
  752POPS   C1A11515   4.411   9.726   6.535  0.1875 -0.2294  0.2654
  752POPS   D2A11516   4.335   9.452   6.912 -0.1412 -0.0476 -0.3437
  752POPS   C3A11517   4.518   9.490   7.372 -0.0452 -0.0922 -0.1778
  752POPS   C4A11518   4.502   9.493   7.762  0.2587  0.0431 -0.1455
  752POPS   C1B11519   4.857  10.150   6.632 -0.1478  0.1865  0.3739
  752POPS   C2B11520   5.055  10.091   7.030 -0.0695 -0.0812  0.0584
  752POPS   C3B11521   5.205  10.409   7.408 -0.0128  0.0104  0.1365
  752POPS   C4B11522   5.405  10.627   7.728 -0.1249 -0.0538 -0.2171
  753POPS   CNO11523   0.017  10.233   5.474 -0.0040 -0.3178 -0.0519
  753POPS   PO411524  -0.389  10.176   5.746 -0.1257  0.0411  0.1575
  753POPS   GL111525  -0.431  10.334   6.154 -0.1598 -0.0906 -0.2846
  753POPS   GL211526  -0.206  10.591   6.283  0.3135  0.0496 -0.3062
  753POPS   C1A11527  -0.543  10.195   6.581 -0.2314  0.0637 -0.2094
  753POPS   D2A11528  -0.652   9.881   6.781 -0.2775  0.3190  0.1512
  753POPS   C3A11529  -0.552   9.990   7.209  0.0607 -0.1667 -0.2388
  753POPS   C4A11530  -0.378  10.081   7.635  0.1840  0.2001  0.0437
  753POPS   C1B11531  -0.081  10.380   6.638  0.2378  0.1651  0.1926
  753POPS   C2B11532  -0.123  10.214   6.985  0.0218  0.1714 -0.0917
  753POPS   C3B11533   0.065  10.216   7.391  0.0250 -0.1084  0.1776
  753POPS   C4B11534   0.104  10.096   7.761 -0.0679  0.1127  0.0655
  754POPS   CNO11535  11.926   2.665   5.528 -0.0856 -0.4406 -0.0092
  754POPS   PO411536  12.293   2.824   5.670  0.2474 -0.2084  0.0813
  754POPS   GL111537  12.083   2.826   6.045 -0.1636 -0.2247 -0.1562
  754POPS   GL211538  12.144   3.166   6.120  0.0779  0.1861  0.1513
  754POPS   C1A11539  12.120   2.695   6.400  0.4432 -0.2041  0.4971
  754POPS   D2A11540  12.218   2.747   6.812  0.0508  0.0297 -0.4238
  754POPS   C3A11541  12.137   2.538   7.217 -0.0671  0.2051  0.0096
  754POPS   C4A11542  12.253   2.222   7.520 -0.1441 -0.0180  0.0921
  754POPS   C1B11543  12.186   3.236   6.473  0.1186  0.2033  0.0711
  754POPS   C2B11544  12.273   3.413   6.887 -0.0342 -0.1838 -0.0180
  754POPS   C3B11545  12.229   3.820   7.050 -0.0862 -0.2012 -0.4395
  754POPS   C4B11546  11.988   4.152   7.246  0.1958  0.2882  0.4144
  755POPS   CNO11547   5.511   5.667   5.997  0.0784 -0.1787  0.0256
  755POPS   PO411548   5.912   5.886   6.033 -0.1851 -0.0892 -0.0680
  755POPS   GL111549   6.094   6.208   6.336 -0.1997  0.3224  0.1039
  755POPS   GL211550   5.951   6.514   6.423  0.1525  0.1120 -0.1702
  755POPS   C1A11551   6.236   6.203   6.778  0.0832  0.1363 -0.2842
  755POPS   D2A11552   6.306   6.331   7.133 -0.1296  0.2206 -0.2108
  755POPS   C3A11553   6.230   6.322   7.546  0.1884  0.2145  0.1941
  755POPS   C4A11554   6.381   6.358   7.924  0.0825 -0.2099 -0.0434
  755POPS   C1B11555   5.916   6.892   6.475  0.1366 -0.1420  0.1061
  755POPS   C2B11556   5.892   7.075   6.905 -0.0640  0.3423 -0.0662
  755POPS   C3B11557   5.820   7.318   7.125  0.0865 -0.0420  0.1639
  755POPS   C4B11558   5.559   7.678   7.130 -0.0375  0.0264  0.2567
  756POPS   CNO11559  13.048  10.506   5.471 -0.0833 -0.3633 -0.1300
  756POPS   PO411560  13.095  10.281   5.852  0.3208 -0.1301 -0.2867
  756POPS   GL111561  12.868  10.212   6.266 -0.0773 -0.0327  0.0884
  756POPS   GL211562  12.499  10.217   6.299  0.0644  0.0652 -0.2346
  756POPS   C1A11563  12.916  10.209   6.657  0.2604  0.1927  0.0098
  756POPS   D2A11564  12.908  10.097   7.004 -0.1823  0.0798  0.1004
  756POPS   C3A11565  12.925  10.152   7.370 -0.0493 -0.3411 -0.1549
  756POPS   C4A11566  12.758   9.879   7.753 -0.2014 -0.2265 -0.1584
  756POPS   C1B11567  12.391  10.304   6.692 -0.2405  0.0307 -0.0061
  756POPS   C2B11568  12.468  10.330   7.082  0.1734 -0.0314 -0.1937
  756POPS   C3B11569  12.380  10.131   7.495  0.1339  0.0522  0.1040
  756POPS   C4B11570  12.211   9.971   7.865  0.0833 -0.1088  0.0060
  757POPS   CNO11571  15.125  16.698   6.301  0.0869 -0.0782 -0.0701
  757POPS   PO411572  14.912  16.414   6.197  0.0341  0.0160  0.0549
  757POPS   GL111573  14.726  16.302   6.644 -0.3690  0.0306  0.0261
  757POPS   GL211574  14.405  16.337   6.512  0.3764  0.2344 -0.2317
  757POPS   C1A11575  14.466  16.435   7.022  0.2300  0.0053 -0.2871
  757POPS   D2A11576  14.213  16.652   7.366  0.1232 -0.0066  0.3461
  757POPS   C3A11577  14.330  16.981   7.638  0.0353  0.0486 -0.1445
  757POPS   C4A11578  14.568  17.124   8.010  0.1381  0.1249 -0.0474
  757POPS   C1B11579  14.089  16.256   6.796 -0.1460  0.2144  0.1762
  757POPS   C2B11580  14.044  16.206   7.197  0.1063 -0.2816  0.1121
  757POPS   C3B11581  14.140  16.203   7.640  0.0386  0.1353 -0.0025
  757POPS   C4B11582  14.460  16.252   8.030  0.3020 -0.1462  0.2100
  758POPS   CNO11583   9.662  13.820   5.952 -0.1665 -0.0427  0.3914
  758POPS   PO411584   9.743  13.409   5.928  0.0534  0.0794  0.0678
  758POPS   GL111585   9.674  13.222   6.305  0.0725 -0.1603  0.0381
  758POPS   GL211586   9.763  12.980   6.348 -0.1717 -0.2740 -0.0224
  758POPS   C1A11587   9.725  13.031   6.795  0.0488  0.3489  0.3660
  758POPS   D2A11588   9.731  12.852   7.160 -0.2495  0.1547  0.0372
  758POPS   C3A11589   9.675  12.943   7.522 -0.0755  0.2743  0.0040
  758POPS   C4A11590   9.410  12.800   7.845 -0.3214  0.0284 -0.1004
  758POPS   C1B11591   9.722  12.571   6.587 -0.1065 -0.0433  0.0814
  758POPS   C2B11592   9.668  12.409   6.958  0.1610 -0.0659 -0.1389
  758POPS   C3B11593   9.936  12.059   7.186 -0.2186  0.2152 -0.0402
  758POPS   C4B11594  10.059  11.994   7.671 -0.1350  0.2674 -0.1273
  759POPS   CNO11595   0.010   2.212   5.507 -0.0048 -0.0434 -0.0222
  759POPS   PO411596  -0.309   1.935   5.705  0.0267  0.1970  0.1262
  759POPS   GL111597  -0.310   1.931   6.122  0.2523  0.2289 -0.0320
  759POPS   GL211598  -0.312   1.709   6.323 -0.1536 -0.4563 -0.0644
  759POPS   C1A11599  -0.502   2.127   6.403  0.2161  0.1467  0.1417
  759POPS   D2A11600  -0.657   2.068   6.829 -0.0903  0.1492 -0.0205
  759POPS   C3A11601  -0.492   1.947   7.173  0.1938 -0.0674  0.3455
  759POPS   C4A11602  -0.335   1.855   7.503  0.1313 -0.1746  0.4192
  759POPS   C1B11603  -0.381   1.654   6.775 -0.0102 -0.3087  0.0065
  759POPS   C2B11604  -0.463   1.449   7.242  0.0060 -0.3311  0.2790
  759POPS   C3B11605  -0.441   1.377   7.635 -0.1387  0.0436 -0.0774
  759POPS   C4B11606  -0.301   1.609   7.911 -0.0030 -0.1721 -0.0971
  760POPS   CNO11607  10.397   0.515   5.875  0.0556 -0.1646 -0.0843
  760POPS   PO411608  10.141   0.655   6.010  0.1468  0.1281  0.0049
  760POPS   GL111609  10.149   0.376   6.439 -0.0124 -0.2591 -0.1346
  760POPS   GL211610   9.993   0.482   6.733  0.0725 -0.3165  0.0902
  760POPS   C1A11611  10.454   0.269   6.697 -0.0920  0.0754  0.1117
  760POPS   D2A11612  10.581   0.011   6.984 -0.0609 -0.1120  0.1417
  760POPS   C3A11613  10.558   0.146   7.328  0.0495 -0.1481  0.1574
  760POPS   C4A11614  10.659   0.567   7.551  0.1613 -0.4891 -0.0713
  760POPS   C1B11615  10.232   0.555   7.091  0.1097 -0.0115 -0.0350
  760POPS   C2B11616  10.131   0.551   7.475  0.2847 -0.2479  0.2649
  760POPS   C3B11617  10.082   0.470   7.907 -0.1319  0.2748  0.0727
  760POPS   C4B11618  10.030   0.222   8.289 -0.2673 -0.0044 -0.0598
  761POPS   CNO11619  16.532   3.017   5.010 -0.1285 -0.1181  0.2078
  761POPS   PO411620  16.161   2.838   5.181 -0.3985 -0.0130  0.0904
  761POPS   GL111621  16.013   2.743   5.649  0.0320  0.1773  0.0228
  761POPS   GL211622  16.005   3.064   5.839 -0.0327  0.1341 -0.1813
  761POPS   C1A11623  15.826   2.543   6.122  0.1193 -0.2426 -0.1815
  761POPS   D2A11624  15.705   2.739   6.474  0.2521 -0.0426  0.4394
  761POPS   C3A11625  15.455   3.176   6.463 -0.1243  0.1219  0.0965
  761POPS   C4A11626  15.310   3.587   6.411  0.1941 -0.0110 -0.1010
  761POPS   C1B11627  16.110   3.066   6.267 -0.1053 -0.1989  0.0422
  761POPS   C2B11628  15.968   3.113   6.745  0.1431 -0.0301 -0.1259
  761POPS   C3B11629  15.873   2.964   7.122 -0.0812  0.0665 -0.2176
  761POPS   C4B11630  15.607   3.057   7.460  0.1200 -0.1741 -0.1718
  762POPS   CNO11631  10.575  17.318   5.750 -0.0199  0.1034 -0.0442
  762POPS   PO411632  10.736  17.097   6.099 -0.0587  0.0651  0.2798
  762POPS   GL111633  10.593  17.201   6.508  0.1828  0.0741  0.0164
  762POPS   GL211634  10.533  16.955   6.773  0.0007 -0.3845 -0.1407
  762POPS   C1A11635  10.901  17.345   6.884 -0.0221 -0.2179 -0.2328
  762POPS   D2A11636  11.111  17.236   7.245 -0.1699  0.1632 -0.0880
  762POPS   C3A11637  11.347  17.547   7.506  0.2364  0.0432  0.0294
  762POPS   C4A11638  11.406  18.007   7.483  0.1151  0.0699 -0.1210
  762POPS   C1B11639  10.594  16.976   7.204 -0.1578 -0.2133  0.3227
  762POPS   C2B11640  10.672  17.320   7.441 -0.0047  0.1480  0.1075
  762POPS   C3B11641  10.939  17.420   7.724  0.1515  0.2278 -0.0326
  762POPS   C4B11642  11.227  17.419   8.015  0.2001 -0.1391  0.0255
  763POPS   CNO11643  11.070   7.947   5.692  0.2071  0.0422  0.2141
  763POPS   PO411644  11.002   8.370   5.774  0.1457  0.0448  0.1948
  763POPS   GL111645  10.873   8.059   6.178  0.0280 -0.1055 -0.1236
  763POPS   GL211646  10.584   8.215   6.187 -0.4527  0.0580  0.3803
  763POPS   C1A11647  10.685   7.777   6.525 -0.0344  0.1592  0.0656
  763POPS   D2A11648  10.775   7.583   7.024 -0.0260 -0.1367 -0.2228
  763POPS   C3A11649  11.133   7.602   7.270  0.0966 -0.0556 -0.1499
  763POPS   C4A11650  11.245   7.585   7.752  0.0660  0.1534  0.0308
  763POPS   C1B11651  10.710   8.265   6.594 -0.1708  0.0241 -0.1609
  763POPS   C2B11652  10.720   8.404   6.951 -0.0169 -0.1513 -0.1982
  763POPS   C3B11653  10.748   8.451   7.344 -0.2052  0.0363 -0.2181
  763POPS   C4B11654  10.872   8.469   7.811  0.1580 -0.2973  0.0063
  764POPS   CNO11655  14.125  16.731   6.487 -0.1484 -0.1838  0.0285
  764POPS   PO411656  14.126  16.854   6.047  0.2025  0.4316 -0.2078
  764POPS   GL111657  13.928  17.157   6.383 -0.2494 -0.0908  0.1821
  764POPS   GL211658  14.233  17.230   6.591  0.2775  0.0134 -0.2729
  764POPS   C1A11659  13.726  17.011   6.751 -0.1405 -0.0487 -0.1750
  764POPS   D2A11660  13.317  16.948   6.953  0.0416 -0.0317 -0.1142
  764POPS   C3A11661  13.213  17.065   7.392  0.0059 -0.2217 -0.0003
  764POPS   C4A11662  13.024  17.222   7.786 -0.3335  0.1583  0.0863
  764POPS   C1B11663  14.176  17.110   6.959  0.0730  0.0205 -0.1321
  764POPS   C2B11664  14.010  17.215   7.351  0.0338  0.0442  0.2314
  764POPS   C3B11665  13.755  17.465   7.608  0.0302  0.1547 -0.1982
  764POPS   C4B11666  13.453  17.701   7.931 -0.0743 -0.0148 -0.1137
  765POPS   CNO11667  14.411   9.284   6.117  0.2775  0.0215  0.1564
  765POPS   PO411668  14.111   9.474   5.910 -0.2093  0.0106  0.2401
  765POPS   GL111669  14.039   9.517   6.361 -0.1776  0.2765 -0.2152
  765POPS   GL211670  14.044   9.205   6.566 -0.0176  0.3399  0.3127
  765POPS   C1A11671  14.098   9.704   6.785 -0.1357  0.1153  0.2656
  765POPS   D2A11672  14.184   9.663   7.179 -0.0031 -0.1336  0.0913
  765POPS   C3A11673  14.400  10.045   7.487  0.1252  0.0581  0.3974
  765POPS   C4A11674  14.113  10.258   7.754 -0.0278  0.0232  0.2221
  765POPS   C1B11675  13.949   9.225   7.048 -0.0661 -0.0768 -0.0079
  765POPS   C2B11676  14.041   9.310   7.492  0.2102 -0.0484  0.4085
  765POPS   C3B11677  14.183   9.219   7.886 -0.0525  0.0756  0.2745
  765POPS   C4B11678  14.314   9.056   8.294  0.0460  0.2032 -0.1025
  766POPS   CNO11679   0.780   4.806   5.593  0.3487 -0.1779  0.0355
  766POPS   PO411680   0.622   4.558   5.926  0.0698  0.0201  0.1208
  766POPS   GL111681   0.450   4.540   6.198 -0.0473  0.1066  0.0722
  766POPS   GL211682   0.395   4.814   6.326  0.0925  0.1832  0.0213
  766POPS   C1A11683   0.454   4.336   6.549 -0.0463 -0.1764 -0.2075
  766POPS   D2A11684   0.418   3.975   6.675  0.0915 -0.0071 -0.1598
  766POPS   C3A11685   0.553   3.746   7.122 -0.0628 -0.0232 -0.2246
  766POPS   C4A11686   0.414   3.663   7.532  0.0044 -0.1537 -0.2404
  766POPS   C1B11687   0.477   4.811   6.701  0.2322  0.0069 -0.0567
  766POPS   C2B11688   0.558   4.449   7.064 -0.3681  0.3085  0.2365
  766POPS   C3B11689   0.708   4.324   7.450  0.0212  0.0582  0.1267
  766POPS   C4B11690   0.624   4.541   7.826 -0.0324 -0.0412  0.1304
  767POPS   CNO11691   2.825   6.381   5.612  0.2219 -0.1379 -0.0516
  767POPS   PO411692   2.943   6.002   5.521 -0.4545 -0.3228  0.0832
  767POPS   GL111693   2.763   5.957   5.879  0.0471 -0.1737 -0.0232
  767POPS   GL211694   2.513   6.198   6.058  0.2213  0.2118 -0.1817
  767POPS   C1A11695   2.811   5.953   6.361 -0.1058 -0.2913  0.3420
  767POPS   D2A11696   2.750   6.248   6.762 -0.0610  0.1161  0.0125
  767POPS   C3A11697   2.794   6.079   7.189 -0.0150 -0.2234  0.1499
  767POPS   C4A11698   2.773   5.652   7.413 -0.0853  0.1021  0.2163
  767POPS   C1B11699   2.334   6.492   6.374  0.0618  0.1851  0.1315
  767POPS   C2B11700   2.207   6.569   6.817 -0.1329  0.1186 -0.1437
  767POPS   C3B11701   2.386   6.321   7.185 -0.0400  0.0398  0.0412
  767POPS   C4B11702   2.539   6.274   7.638 -0.1321 -0.0534  0.0301
  768POPS   CNO11703  15.488  10.620   5.725 -0.3312  0.3820 -0.1935
  768POPS   PO411704  15.477  10.777   6.042 -0.0179  0.0388 -0.3668
  768POPS   GL111705  15.555  10.626   6.520 -0.0456 -0.2095  0.1583
  768POPS   GL211706  15.757  10.458   6.681 -0.2434  0.3876  0.3041
  768POPS   C1A11707  15.309  10.738   6.892  0.1063 -0.2370 -0.1187
  768POPS   D2A11708  15.374  10.796   7.246 -0.0072 -0.4621 -0.4511
  768POPS   C3A11709  15.232  10.650   7.574  0.2744  0.2946 -0.0598
  768POPS   C4A11710  15.385  10.688   7.992  0.0967  0.0442  0.1577
  768POPS   C1B11711  15.870  10.657   7.029 -0.1120 -0.1497  0.1334
  768POPS   C2B11712  15.899  10.572   7.396 -0.3666 -0.0974 -0.1861
  768POPS   C3B11713  15.922  10.532   7.854 -0.0739  0.1215 -0.3044
  768POPS   C4B11714  15.829  10.633   8.314  0.1341  0.0339  0.1502
  769POPS   CNO11715   1.631   8.469   6.113  0.1794 -0.1431  0.1408
  769POPS   PO411716   1.363   8.820   6.139  0.1262 -0.1502  0.0721
  769POPS   GL111717   1.452   8.762   6.567 -0.2129 -0.0022 -0.0129
  769POPS   GL211718   1.675   8.814   6.571 -0.0742  0.3476  0.0883
  769POPS   C1A11719   1.483   8.614   7.068  0.2171 -0.1472  0.0819
  769POPS   D2A11720   1.469   8.589   7.441 -0.1141  0.1941  0.1590
  769POPS   C3A11721   1.677   8.428   7.796 -0.0434  0.0917  0.0305
  769POPS   C4A11722   2.058   8.484   8.051 -0.3229 -0.3348  0.3831
  769POPS   C1B11723   1.836   8.956   6.930 -0.3818  0.1875 -0.2854
  769POPS   C2B11724   1.821   8.905   7.371  0.0252 -0.1300 -0.0517
  769POPS   C3B11725   1.889   8.912   7.827 -0.1074  0.2846  0.3855
  769POPS   C4B11726   1.779   9.119   8.159  0.2253 -0.1935  0.4497
  770POPS   CNO11727  18.005   3.496   5.950  0.0960  0.0816  0.1204
  770POPS   PO411728  17.753   3.115   5.664 -0.0191 -0.0974  0.0675
  770POPS   GL111729  17.690   3.163   6.134  0.0691 -0.0051 -0.1575
  770POPS   GL211730  17.730   2.819   6.273 -0.1571 -0.2747  0.0530
  770POPS   C1A11731  17.536   3.079   6.593 -0.0927  0.3807 -0.0216
  770POPS   D2A11732  17.487   2.890   6.903 -0.1565 -0.2799  0.1623
  770POPS   C3A11733  17.449   2.962   7.306 -0.1476  0.2339 -0.3785
  770POPS   C4A11734  17.241   3.084   7.573  0.1065  0.0362 -0.1696
  770POPS   C1B11735  17.883   2.541   6.614 -0.3159 -0.0447 -0.1211
  770POPS   C2B11736  17.905   2.452   7.038 -0.1250  0.1910  0.0518
  770POPS   C3B11737  17.791   2.573   7.444  0.1000  0.2075 -0.1960
  770POPS   C4B11738  17.599   2.544   7.859  0.4721  0.1522 -0.0666
  771POPS   CNO11739   4.134   4.242   5.325 -0.0061  0.0942 -0.3244
  771POPS   PO411740   4.251   4.350   5.781 -0.2147  0.0444 -0.0009
  771POPS   GL111741   4.262   4.195   6.251  0.0810 -0.0912 -0.2622
  771POPS   GL211742   4.091   3.922   6.424 -0.1760 -0.0395 -0.1102
  771POPS   C1A11743   4.473   4.303   6.612  0.2298 -0.1866  0.0574
  771POPS   D2A11744   4.431   4.316   7.146 -0.0375  0.1990  0.1510
  771POPS   C3A11745   4.368   4.238   7.526 -0.1601 -0.1956 -0.2435
  771POPS   C4A11746   4.158   4.216   7.986 -0.1708 -0.0878  0.3490
  771POPS   C1B11747   4.145   4.038   6.901 -0.0296  0.0946 -0.0148
  771POPS   C2B11748   3.958   4.043   7.373 -0.1292  0.0723 -0.2349
  771POPS   C3B11749   3.759   4.046   7.675 -0.2175 -0.0070 -0.0042
  771POPS   C4B11750   3.692   3.965   8.058  0.2099  0.1759 -0.0904
  772POPS   CNO11751  14.993   0.489   5.784 -0.1090 -0.0153  0.3464
  772POPS   PO411752  14.697   0.817   5.875 -0.3881 -0.0722  0.0041
  772POPS   GL111753  14.820   0.717   6.195  0.1823 -0.2818 -0.2297
  772POPS   GL211754  15.137   0.826   6.261  0.2275  0.3497 -0.0555
  772POPS   C1A11755  14.610   0.316   6.387 -0.1727 -0.2386 -0.1457
  772POPS   D2A11756  14.565  -0.041   6.608 -0.2400 -0.0062  0.2006
  772POPS   C3A11757  14.127  -0.088   6.739 -0.0119  0.2311  0.0556
  772POPS   C4A11758  13.758  -0.016   6.570  0.2242  0.3892 -0.0437
  772POPS   C1B11759  15.055   0.625   6.623 -0.4846 -0.1701 -0.1526
  772POPS   C2B11760  15.096   0.694   7.130  0.0737 -0.1095  0.2068
  772POPS   C3B11761  15.169   0.607   7.511 -0.2208  0.0907 -0.1171
  772POPS   C4B11762  15.204   0.683   7.956  0.0571 -0.1221 -0.0837
  773POPS   CNO11763   5.426  17.898   5.541 -0.3073 -0.1950 -0.1441
  773POPS   PO411764   5.668  18.122   5.717  0.1610 -0.0240  0.1562
  773POPS   GL111765   5.802  18.115   6.120  0.0305  0.1689 -0.1563
  773POPS   GL211766   5.623  18.359   6.176  0.3437 -0.0586  0.1969
  773POPS   C1A11767   6.023  18.218   6.534  0.0527 -0.0891  0.0535
  773POPS   D2A11768   5.924  18.349   7.039  0.0273 -0.1593  0.1046
  773POPS   C3A11769   6.236  18.632   7.056  0.0755 -0.3287 -0.0173
  773POPS   C4A11770   6.545  18.842   7.323 -0.1264 -0.0144 -0.2048
  773POPS   C1B11771   5.989  18.611   6.212  0.1450 -0.0128  0.2231
  773POPS   C2B11772   6.242  18.760   6.571  0.0826  0.1493  0.0801
  773POPS   C3B11773   6.639  18.920   6.766 -0.2412  0.0442  0.0217
  773POPS   C4B11774   6.950  18.666   6.926 -0.1107 -0.0737 -0.2221
  774POPS   CNO11775   3.760   1.206   5.611 -0.0324  0.2489  0.0587
  774POPS   PO411776   3.503   1.359   5.877 -0.0252  0.0637  0.1435
  774POPS   GL111777   3.470   1.220   6.279 -0.2430  0.1765  0.1160
  774POPS   GL211778   3.772   1.132   6.401 -0.1414 -0.2350 -0.0365
  774POPS   C1A11779   3.355   1.412   6.651  0.0022  0.1030  0.3132
  774POPS   D2A11780   3.441   1.406   7.107  0.2697 -0.2743 -0.0253
  774POPS   C3A11781   3.374   1.100   7.392 -0.1129 -0.0675  0.1830
  774POPS   C4A11782   3.463   0.991   7.906  0.0530 -0.3707  0.1179
  774POPS   C1B11783   3.853   1.277   6.745 -0.2499  0.0894 -0.2728
  774POPS   C2B11784   3.883   1.317   7.215  0.1150  0.1168  0.3543
  774POPS   C3B11785   3.663   1.499   7.587 -0.1465 -0.1709  0.0770
  774POPS   C4B11786   3.483   1.519   7.971 -0.1527  0.0346  0.0746
  775POPS   CNO11787   7.721  14.713   6.071  0.0822  0.0381 -0.3200
  775POPS   PO411788   7.636  15.094   5.880  0.0870 -0.1015 -0.0032
  775POPS   GL111789   7.501  15.087   6.346 -0.2759 -0.1252  0.1368
  775POPS   GL211790   7.721  15.295   6.542  0.4851 -0.0786  0.0878
  775POPS   C1A11791   7.346  14.763   6.694 -0.4036 -0.0431 -0.0227
  775POPS   D2A11792   7.406  14.696   7.174 -0.1136  0.0780  0.2499
  775POPS   C3A11793   7.029  14.598   7.461 -0.1531 -0.0637  0.1390
  775POPS   C4A11794   6.916  14.500   7.892 -0.1519 -0.0092  0.1415
  775POPS   C1B11795   7.810  15.597   6.838  0.1148  0.1082 -0.0763
  775POPS   C2B11796   7.856  15.720   7.196  0.1673  0.0275  0.0812
  775POPS   C3B11797   8.067  15.781   7.574  0.2235  0.1247 -0.2911
  775POPS   C4B11798   8.287  15.803   7.949  0.0000  0.0100 -0.1705
  776POPS   CNO11799   2.691   9.852   5.825 -0.0775 -0.0010 -0.0095
  776POPS   PO411800   2.485   9.956   6.214 -0.0438 -0.3380 -0.1925
  776POPS   GL111801   2.212   9.885   6.556 -0.1141  0.1512  0.0315
  776POPS   GL211802   1.971  10.026   6.721  0.3023  0.0157  0.1450
  776POPS   C1A11803   2.296   9.687   7.018 -0.2488  0.1336  0.1624
  776POPS   D2A11804   2.139   9.690   7.389  0.0768 -0.1427  0.2638
  776POPS   C3A11805   1.927   9.961   7.582 -0.2264 -0.1945 -0.1844
  776POPS   C4A11806   2.008  10.424   7.669  0.1773  0.1062  0.1553
  776POPS   C1B11807   1.657   9.865   6.970 -0.2439 -0.1591 -0.0229
  776POPS   C2B11808   1.518   9.805   7.338 -0.0539  0.2210 -0.3773
  776POPS   C3B11809   1.489   9.770   7.821 -0.1566 -0.0311  0.1832
  776POPS   C4B11810   1.451   9.676   8.211 -0.2290 -0.0625  0.2096
  777POPS   CNO11811   5.684  11.196   5.513 -0.1506  0.1714 -0.3429
  777POPS   PO411812   5.741  10.712   5.645 -0.0721 -0.0445  0.3119
  777POPS   GL111813   5.942  10.629   6.058  0.0086  0.0163 -0.3733
  777POPS   GL211814   6.316  10.635   6.132  0.1376 -0.1036  0.3485
  777POPS   C1A11815   5.724  10.609   6.419  0.1675 -0.0279  0.0592
  777POPS   D2A11816   5.624  10.769   6.803 -0.1840  0.0308  0.0972
  777POPS   C3A11817   5.754  10.749   7.225 -0.3289  0.1276 -0.0449
  777POPS   C4A11818   5.778  10.414   7.568 -0.1597 -0.1015 -0.1426
  777POPS   C1B11819   6.580  10.630   6.429  0.0616 -0.2870  0.2054
  777POPS   C2B11820   6.610  10.473   6.829 -0.1277  0.1862 -0.0846
  777POPS   C3B11821   6.782  10.555   7.234 -0.0916  0.0081  0.0806
  777POPS   C4B11822   7.181  10.525   7.526  0.2713  0.2369  0.0798
  778POPS   CNO11823  15.995  16.492   6.209 -0.0502 -0.1452 -0.1178
  778POPS   PO411824  15.641  16.663   6.296 -0.1577  0.2041  0.0077
  778POPS   GL111825  15.503  16.747   6.677  0.1774 -0.1103 -0.1686
  778POPS   GL211826  15.266  16.502   6.754  0.0101  0.2469 -0.0354
  778POPS   C1A11827  15.668  16.670   7.003 -0.4630 -0.1870 -0.2526
  778POPS   D2A11828  15.620  16.710   7.421  0.0423 -0.0867 -0.0738
  778POPS   C3A11829  15.674  17.034   7.752  0.0984 -0.0655  0.0035
  778POPS   C4A11830  15.660  16.860   8.241 -0.2542 -0.1294  0.2865
  778POPS   C1B11831  15.157  16.570   7.156 -0.0687  0.0205  0.2622
  778POPS   C2B11832  14.892  16.299   7.300  0.4473 -0.0597 -0.0355
  778POPS   C3B11833  14.716  16.469   7.565 -0.2894 -0.3005  0.0623
  778POPS   C4B11834  14.807  16.689   7.964  0.1061  0.0363  0.1549
  779POPS   CNO11835   1.602   4.929   5.625 -0.1604  0.2804  0.0975
  779POPS   PO411836   1.501   5.193   5.947  0.1254 -0.1874 -0.0576
  779POPS   GL111837   1.411   5.179   6.355 -0.3140  0.1399  0.1750
  779POPS   GL211838   1.349   5.492   6.481  0.2454 -0.1312  0.3201
  779POPS   C1A11839   1.383   4.897   6.737 -0.0303 -0.5679 -0.0644
  779POPS   D2A11840   1.434   4.846   7.235  0.0769  0.1683  0.1718
  779POPS   C3A11841   1.174   5.024   7.566  0.3465 -0.0034  0.4802
  779POPS   C4A11842   0.830   5.260   7.798  0.0541  0.0459 -0.2701
  779POPS   C1B11843   1.364   5.528   6.843  0.0254 -0.0779 -0.0675
  779POPS   C2B11844   1.237   5.748   7.198  0.1436  0.1362  0.0849
  779POPS   C3B11845   1.497   5.947   7.519 -0.0647 -0.1012 -0.1039
  779POPS   C4B11846   1.751   5.803   7.978 -0.0130 -0.0557  0.1467
  780POPS   CNO11847  10.870  10.549   5.887 -0.2725 -0.3067  0.1823
  780POPS   PO411848  11.282  10.801   5.812  0.1372  0.2061  0.0627
  780POPS   GL111849  11.317  10.460   6.145  0.0609  0.4552 -0.4295
  780POPS   GL211850  11.601  10.335   6.122  0.1582  0.0264  0.1197
  780POPS   C1A11851  11.459  10.434   6.552  0.0737  0.1953 -0.1360
  780POPS   D2A11852  11.445  10.338   6.992  0.0331 -0.1710  0.0493
  780POPS   C3A11853  11.125  10.402   7.242  0.2948 -0.4139 -0.0082
  780POPS   C4A11854  11.022  10.598   7.597  0.1182  0.1179  0.1671
  780POPS   C1B11855  11.525   9.972   6.380 -0.3255 -0.1851 -0.1811
  780POPS   C2B11856  11.545   9.902   6.748  0.0087  0.2951 -0.2193
  780POPS   C3B11857  11.470   9.817   7.221 -0.4601  0.0719  0.0615
  780POPS   C4B11858  11.395   9.566   7.608  0.0000 -0.3167  0.1813
  781POPS   CNO11859   7.533   1.346   6.080  0.0199 -0.1142  0.0635
  781POPS   PO411860   7.279   1.068   6.252 -0.1279  0.1230 -0.0461
  781POPS   GL111861   6.973   1.293   6.556 -0.1865 -0.0353  0.0356
  781POPS   GL211862   7.124   1.581   6.694  0.0881  0.2831 -0.0730
  781POPS   C1A11863   6.780   1.276   6.909 -0.0051  0.0192 -0.2213
  781POPS   D2A11864   6.549   1.123   7.164  0.1741  0.1022 -0.0633
  781POPS   C3A11865   6.605   1.290   7.518 -0.1521 -0.1633 -0.0385
  781POPS   C4A11866   6.693   1.451   7.898  0.2361  0.0659 -0.0942
  781POPS   C1B11867   7.072   1.640   7.143  0.2244  0.0598  0.2130
  781POPS   C2B11868   7.006   1.621   7.501 -0.2015  0.1090  0.0585
  781POPS   C3B11869   6.877   1.919   7.747  0.0207  0.1602  0.1438
  781POPS   C4B11870   6.709   2.226   7.721  0.1119 -0.0611  0.0013
  782POPS   CNO11871   3.968  13.253   5.714 -0.1301 -0.0763  0.0838
  782POPS   PO411872   3.937  12.874   5.563  0.2080 -0.0517 -0.1770
  782POPS   GL111873   3.839  12.822   6.033 -0.1127  0.0819 -0.1024
  782POPS   GL211874   4.003  13.039   6.146  0.0792  0.3353 -0.1643
  782POPS   C1A11875   3.886  12.592   6.417 -0.0590 -0.1026 -0.2117
  782POPS   D2A11876   4.151  12.469   6.850 -0.1837 -0.1338  0.0655
  782POPS   C3A11877   4.066  12.554   7.263 -0.1145 -0.0894  0.1470
  782POPS   C4A11878   3.918  12.524   7.713 -0.1502  0.1425 -0.1977
  782POPS   C1B11879   4.045  13.001   6.570 -0.0084 -0.0087  0.1402
  782POPS   C2B11880   4.146  12.982   7.085 -0.0287 -0.1313  0.0014
  782POPS   C3B11881   4.022  13.028   7.510  0.3616  0.0626 -0.0125
  782POPS   C4B11882   3.698  12.970   7.940  0.1279  0.0857 -0.1484
  783POPS   CNO11883   1.758   1.874   5.951 -0.2783 -0.1017  0.1818
  783POPS   PO411884   2.161   1.762   6.032  0.3404  0.0663 -0.1124
  783POPS   GL111885   1.956   1.480   6.375  0.1135  0.0809 -0.2265
  783POPS   GL211886   1.995   1.219   6.308  0.1044  0.0702  0.0016
  783POPS   C1A11887   1.974   1.437   6.772  0.0916  0.0067  0.3535
  783POPS   D2A11888   1.898   1.617   7.209  0.1559  0.0089  0.0432
  783POPS   C3A11889   2.307   1.524   7.342  0.2946 -0.1556  0.0008
  783POPS   C4A11890   2.452   1.391   7.635 -0.0251  0.1658 -0.1343
  783POPS   C1B11891   2.156   0.938   6.591 -0.0031  0.2441  0.0879
  783POPS   C2B11892   2.181   0.657   6.963  0.0476 -0.3537  0.1529
  783POPS   C3B11893   2.437   0.666   7.368  0.2273 -0.1096 -0.0065
  783POPS   C4B11894   2.476   0.715   7.790 -0.1321  0.0978  0.4377
  784POPS   CNO11895   3.068   9.826   5.479 -0.1217 -0.1553 -0.0925
  784POPS   PO411896   3.538   9.860   5.607  0.2979  0.0765 -0.0036
  784POPS   GL111897   3.523   9.763   6.114 -0.1114 -0.2934  0.0499
  784POPS   GL211898   3.452  10.011   6.351  0.1878  0.5459 -0.0080
  784POPS   C1A11899   3.437   9.541   6.503 -0.0650 -0.0505  0.0775
  784POPS   D2A11900   3.389   9.631   6.998  0.1794  0.2577 -0.2720
  784POPS   C3A11901   3.582   9.631   7.428 -0.0799 -0.0236 -0.2801
  784POPS   C4A11902   3.486   9.358   7.754  0.0616 -0.0292 -0.0492
  784POPS   C1B11903   3.653  10.003   6.733 -0.0544  0.1393 -0.0048
  784POPS   C2B11904   3.730  10.033   7.167 -0.1449 -0.1899 -0.2857
  784POPS   C3B11905   4.114  10.312   7.346  0.0132  0.0615 -0.2049
  784POPS   C4B11906   4.367  10.491   7.701  0.0449 -0.0249  0.1250
  785POPS   CNO11907   4.182   0.127   5.712 -0.1063  0.2406 -0.0955
  785POPS   PO411908   3.800   0.452   5.744 -0.0172 -0.0688 -0.0519
  785POPS   GL111909   3.872   0.378   6.135 -0.2038  0.1671  0.2395
  785POPS   GL211910   3.770   0.108   6.302 -0.0519 -0.1735  0.1772
  785POPS   C1A11911   3.912   0.681   6.540 -0.1783 -0.1594 -0.2634
  785POPS   D2A11912   4.147   0.923   6.871  0.1067 -0.0763  0.2013
  785POPS   C3A11913   4.231   0.825   7.306  0.0060 -0.2132  0.0261
  785POPS   C4A11914   4.289   0.835   7.719  0.1754 -0.1315  0.1266
  785POPS   C1B11915   4.086   0.144   6.707 -0.2377  0.0905  0.0272
  785POPS   C2B11916   4.008   0.450   7.064  0.0420  0.0299  0.1859
  785POPS   C3B11917   3.952   0.386   7.423 -0.0916  0.0588  0.0495
  785POPS   C4B11918   4.009   0.460   7.815 -0.1878 -0.1719  0.0386
  786POPS   CNO11919  10.524   8.130   5.651  0.3794  0.0345  0.0932
  786POPS   PO411920  10.152   7.900   5.619 -0.1490 -0.1102 -0.1572
  786POPS   GL111921  10.229   7.821   6.084 -0.2818 -0.0808  0.1791
  786POPS   GL211922   9.933   7.983   6.176 -0.0895  0.4303  0.0689
  786POPS   C1A11923  10.203   8.042   6.541 -0.0221 -0.2454 -0.0253
  786POPS   D2A11924  10.425   7.982   6.967 -0.0048  0.0087  0.0392
  786POPS   C3A11925  10.232   8.107   7.257  0.1130  0.1014 -0.1742
  786POPS   C4A11926  10.313   8.363   7.616  0.1572 -0.0392 -0.2672
  786POPS   C1B11927   9.890   7.567   6.397  0.1299 -0.1225  0.1339
  786POPS   C2B11928   9.728   7.390   6.750 -0.0584 -0.0147  0.0270
  786POPS   C3B11929   9.435   7.465   7.143 -0.0199  0.1553 -0.1069
  786POPS   C4B11930   9.349   7.905   7.271 -0.1304  0.1157 -0.0180
  787POPS   CNO11931   6.450  15.437   6.245  0.0987  0.0655 -0.1143
  787POPS   PO411932   6.789  15.152   6.163  0.0077  0.3450 -0.2551
  787POPS   GL111933   6.949  15.038   6.450  0.1546  0.4164 -0.0601
  787POPS   GL211934   6.566  14.978   6.628 -0.0641  0.2591  0.1484
  787POPS   C1A11935   6.981  14.929   7.016 -0.0831  0.3517  0.0405
  787POPS   D2A11936   7.105  15.094   7.372 -0.0596 -0.1739  0.2282
  787POPS   C3A11937   7.434  14.864   7.652  0.3466 -0.2452 -0.0633
  787POPS   C4A11938   7.781  14.789   7.752 -0.1666 -0.2254  0.0891
  787POPS   C1B11939   6.383  15.026   6.890  0.2095 -0.1176  0.1728
  787POPS   C2B11940   6.555  14.954   7.268 -0.0785 -0.1493  0.2862
  787POPS   C3B11941   6.638  14.952   7.709 -0.0082  0.1200  0.1638
  787POPS   C4B11942   6.861  15.335   7.909 -0.1996  0.1043 -0.4330
  788POPS   CNO11943   2.167  18.001   5.417 -0.2248 -0.1583  0.0362
  788POPS   PO411944   2.012  18.101   5.864  0.2013  0.0484  0.0262
  788POPS   GL111945   2.132  18.057   6.203  0.2815  0.0419  0.1404
  788POPS   GL211946   2.056  17.783   6.350 -0.0718 -0.3121  0.2133
  788POPS   C1A11947   2.130  18.267   6.581 -0.0061  0.0010 -0.0128
  788POPS   D2A11948   2.077  18.357   6.965  0.2928  0.0452  0.1133
  788POPS   C3A11949   2.309  18.342   7.214  0.4903  0.2278 -0.2536
  788POPS   C4A11950   2.367  18.336   7.643  0.1649  0.0018 -0.1097
  788POPS   C1B11951   1.899  17.827   6.796 -0.3837  0.3420 -0.2967
  788POPS   C2B11952   1.944  17.987   7.247  0.2039 -0.2199  0.0731
  788POPS   C3B11953   1.869  18.130   7.629  0.2163  0.2408 -0.0950
  788POPS   C4B11954   1.626  18.413   7.751 -0.0744 -0.1145  0.4077
  789POPS   CNO11955  12.241   4.602   6.349  0.1975  0.2422 -0.1243
  789POPS   PO411956  11.904   4.236   6.182 -0.0912 -0.2628 -0.0589
  789POPS   GL111957  11.527   4.227   6.518  0.1127 -0.0711 -0.0727
  789POPS   GL211958  11.333   3.975   6.524  0.3016 -0.0202 -0.2537
  789POPS   C1A11959  11.593   4.137   6.922  0.0046  0.0899  0.0547
  789POPS   D2A11960  11.510   4.122   7.421  0.2430  0.1743 -0.6047
  789POPS   C3A11961  11.519   3.898   7.662  0.0087  0.1475 -0.2467
  789POPS   C4A11962  11.465   3.829   8.117  0.1391  0.0016 -0.0034
  789POPS   C1B11963  11.186   3.843   6.917 -0.1260 -0.0428  0.0828
  789POPS   C2B11964  11.065   3.954   7.374  0.0524  0.3044  0.4255
  789POPS   C3B11965  11.036   3.993   7.763 -0.3356 -0.2794  0.0720
  789POPS   C4B11966  10.998   4.078   8.174  0.1676 -0.0112  0.1077
  790POPS   CNO11967  16.774  14.104   6.014 -0.0091  0.2346  0.0068
  790POPS   PO411968  16.475  14.391   6.106  0.3211  0.0844 -0.3059
  790POPS   GL111969  16.311  14.583   6.415  0.0566 -0.0272  0.1207
  790POPS   GL211970  16.517  14.581   6.662  0.1535 -0.0633  0.3210
  790POPS   C1A11971  16.112  14.834   6.795 -0.0830  0.0398  0.1027
  790POPS   D2A11972  15.823  14.739   7.105  0.0252 -0.1309  0.0014
  790POPS   C3A11973  15.393  14.724   7.236 -0.2391 -0.0022 -0.1353
  790POPS   C4A11974  15.097  14.555   7.605 -0.2576 -0.0667 -0.0701
  790POPS   C1B11975  16.452  14.617   7.119 -0.2790  0.1930  0.0299
  790POPS   C2B11976  16.167  14.684   7.499  0.1474  0.0238  0.1162
  790POPS   C3B11977  15.813  14.573   7.654 -0.1400 -0.2946  0.1473
  790POPS   C4B11978  15.695  14.348   7.939  0.0128 -0.3219 -0.1334
  791POPS   CNO11979  10.553  11.745   5.503 -0.2261 -0.0559 -0.1630
  791POPS   PO411980  10.699  11.575   5.796  0.2833 -0.1652 -0.1210
  791POPS   GL111981  10.685  11.670   6.235 -0.0763  0.0610  0.0283
  791POPS   GL211982  10.935  11.444   6.271  0.2628 -0.1499  0.1858
  791POPS   C1A11983  10.541  12.021   6.452 -0.1529  0.1008 -0.3478
  791POPS   D2A11984  10.630  12.346   6.689 -0.1839 -0.1208  0.2335
  791POPS   C3A11985  10.770  12.242   7.101  0.0763 -0.2010  0.0963
  791POPS   C4A11986  10.941  12.172   7.504 -0.1204  0.1368  0.1224
  791POPS   C1B11987  10.978  11.214   6.625 -0.1960  0.1093  0.3294
  791POPS   C2B11988  11.066  11.099   6.981  0.2100 -0.0846 -0.2284
  791POPS   C3B11989  11.095  10.987   7.335  0.2538 -0.0550 -0.0892
  791POPS   C4B11990  10.850  11.042   7.732 -0.2082  0.1818 -0.1568
  792POPS   CNO11991  16.867  17.107   6.087 -0.0661  0.0244 -0.0480
  792POPS   PO411992  17.038  16.763   6.246 -0.2049  0.2863  0.2615
  792POPS   GL111993  16.969  16.888   6.689 -0.2133  0.1608 -0.0188
  792POPS   GL211994  16.623  17.035   6.536 -0.0780 -0.1774 -0.3248
  792POPS   C1A11995  16.964  16.891   7.137 -0.1669  0.0429  0.0633
  792POPS   D2A11996  17.141  16.894   7.604  0.0992 -0.0796  0.0262
  792POPS   C3A11997  17.370  16.709   7.980 -0.2966 -0.2361 -0.1978
  792POPS   C4A11998  17.515  16.625   8.397 -0.2125 -0.3663  0.0258
  792POPS   C1B11999  16.580  17.133   6.968  0.3769  0.2433 -0.1276
  792POPS   C2B12000  16.585  17.141   7.461 -0.2722 -0.1922 -0.1877
  792POPS   C3B12001  16.705  17.053   7.794 -0.0600  0.2956  0.0596
  792POPS   C4B12002  16.651  17.034   8.232  0.0671 -0.1395 -0.0886
  793POPS   CNO12003   1.456  13.156   5.749  0.2568  0.3834  0.0870
  793POPS   PO412004   1.799  12.881   5.762  0.0052  0.0966 -0.1920
  793POPS   GL112005   1.844  13.132   6.161  0.0285  0.1157 -0.2505
  793POPS   GL212006   2.112  12.931   6.243  0.1452  0.0363  0.1319
  793POPS   C1A12007   1.696  13.302   6.563 -0.0939 -0.0648 -0.1318
  793POPS   D2A12008   1.683  13.176   7.021  0.0976  0.1898  0.1485
  793POPS   C3A12009   2.007  13.210   7.315 -0.0331 -0.1686 -0.0730
  793POPS   C4A12010   2.305  13.222   7.505 -0.3879 -0.2198  0.1033
  793POPS   C1B12011   1.888  12.815   6.710 -0.2427 -0.1717  0.0696
  793POPS   C2B12012   1.814  12.734   7.197 -0.0940 -0.1181  0.3149
  793POPS   C3B12013   2.035  12.743   7.606  0.3194 -0.2139  0.0157
  793POPS   C4B12014   2.321  12.699   7.985  0.3113  0.0868  0.0636
  794POPS   CNO12015  17.103   3.651   5.299 -0.0446  0.0192 -0.0259
  794POPS   PO412016  16.894   3.436   5.485 -0.2032  0.0716 -0.3304
  794POPS   GL112017  16.797   3.327   5.852  0.2414  0.1119  0.0531
  794POPS   GL212018  16.482   3.288   5.971 -0.0652  0.1538  0.2153
  794POPS   C1A12019  16.774   3.573   6.186 -0.1727  0.2044 -0.3453
  794POPS   D2A12020  16.809   3.616   6.654  0.2003  0.0946 -0.3388
  794POPS   C3A12021  16.560   3.468   6.929  0.0212  0.0639 -0.1142
  794POPS   C4A12022  16.585   3.488   7.429 -0.0953 -0.2684  0.1962
  794POPS   C1B12023  16.377   3.483   6.446  0.2409 -0.1767 -0.1516
  794POPS   C2B12024  16.195   3.773   6.668 -0.0369 -0.0650 -0.0963
  794POPS   C3B12025  15.780   3.937   6.862  0.0009 -0.0832  0.1067
  794POPS   C4B12026  15.688   4.149   7.228  0.1529  0.2698 -0.1761
  795POPS   CNO12027  10.707  17.576   6.239  0.1939  0.3414 -0.2756
  795POPS   PO412028  10.791  17.826   5.957 -0.0108 -0.1376  0.1621
  795POPS   GL112029  10.726  18.215   6.158 -0.0547  0.1080 -0.1997
  795POPS   GL212030  10.606  18.053   6.352  0.3540  0.1266 -0.1598
  795POPS   C1A12031  10.926  18.368   6.538  0.0208  0.2517  0.0628
  795POPS   D2A12032  10.810  18.679   6.895  0.0989 -0.0199  0.3117
  795POPS   C3A12033  11.121  18.812   7.289  0.1692 -0.0421  0.3066
  795POPS   C4A12034  11.164  19.003   7.647 -0.0024  0.1798 -0.0097
  795POPS   C1B12035  10.803  17.836   6.650 -0.0525  0.0436 -0.0059
  795POPS   C2B12036  10.834  17.753   7.121  0.0495  0.0881 -0.2020
  795POPS   C3B12037  10.870  17.867   7.487  0.1152 -0.2779  0.2970
  795POPS   C4B12038  10.697  18.065   7.765  0.1782 -0.2310 -0.0042
  796POPS   CNO12039   5.838  16.082   6.232 -0.0040  0.1915 -0.1698
  796POPS   PO412040   5.884  16.516   6.267  0.1683  0.2247 -0.1346
  796POPS   GL112041   5.525  16.435   6.459  0.0346  0.0477 -0.0132
  796POPS   GL212042   5.418  16.106   6.593 -0.1223 -0.0842  0.2076
  796POPS   C1A12043   5.182  16.577   6.686  0.0849  0.0655  0.1309
  796POPS   D2A12044   5.083  16.731   7.096  0.0087  0.0120  0.2430
  796POPS   C3A12045   5.061  16.605   7.504  0.2462  0.0409 -0.0236
  796POPS   C4A12046   4.971  16.565   7.970  0.0216 -0.1317  0.1883
  796POPS   C1B12047   5.255  16.106   6.943  0.2366  0.1881  0.1098
  796POPS   C2B12048   5.273  16.117   7.362  0.3731  0.1130 -0.2613
  796POPS   C3B12049   5.486  16.276   7.753 -0.0532 -0.1424 -0.1432
  796POPS   C4B12050   5.806  16.039   8.056  0.1618  0.0395  0.1395
  797POPS   CNO12051  17.368  16.973   5.924 -0.0214  0.3137 -0.0285
  797POPS   PO412052  17.270  17.386   5.825 -0.0799  0.2145  0.2060
  797POPS   GL112053  17.207  17.452   6.258 -0.2937  0.2384 -0.0145
  797POPS   GL212054  17.360  17.690   6.526  0.0254  0.0955  0.2009
  797POPS   C1A12055  16.999  17.353   6.722  0.0406  0.0722 -0.0426
  797POPS   D2A12056  17.196  17.370   7.041 -0.0700 -0.1803  0.4074
  797POPS   C3A12057  17.004  17.401   7.483  0.1756  0.3256  0.0361
  797POPS   C4A12058  16.805  17.538   7.844 -0.3262  0.2100 -0.0685
  797POPS   C1B12059  17.614  17.826   6.825  0.0834 -0.0129 -0.1432
  797POPS   C2B12060  17.867  17.852   7.243  0.3137  0.1562  0.1365
  797POPS   C3B12061  17.937  17.766   7.614  0.0227 -0.0480 -0.2708
  797POPS   C4B12062  18.137  17.854   7.985 -0.2772 -0.0619  0.0273
  798POPS   CNO12063   3.520  14.395   5.451  0.2789  0.1628  0.1504
  798POPS   PO412064   3.286  14.460   5.841 -0.1054  0.2941  0.0608
  798POPS   GL112065   3.408  14.376   6.230 -0.1590 -0.0817 -0.2272
  798POPS   GL212066   3.519  14.688   6.326  0.0455 -0.2433 -0.1800
  798POPS   C1A12067   3.269  14.401   6.689 -0.0013  0.0609 -0.3928
  798POPS   D2A12068   3.046  14.439   6.960  0.1873  0.2000  0.1268
  798POPS   C3A12069   2.684  14.404   7.159 -0.1403  0.0279 -0.3610
  798POPS   C4A12070   2.611  14.186   7.575  0.1520 -0.1114 -0.1818
  798POPS   C1B12071   3.349  14.926   6.649  0.1146  0.1404  0.1952
  798POPS   C2B12072   3.377  14.902   7.101 -0.1813 -0.2272 -0.0169
  798POPS   C3B12073   3.054  14.711   7.369 -0.0640 -0.0244 -0.1684
  798POPS   C4B12074   2.958  14.576   7.710 -0.2951  0.0540 -0.1842
  799POPS   CNO12075  17.371   2.735   5.710  0.0695  0.1237  0.1778
  799POPS   PO412076  16.999   2.921   5.527 -0.2972 -0.1458  0.0555
  799POPS   GL112077  16.778   2.813   5.938  0.1568  0.0913  0.1635
  799POPS   GL212078  16.464   2.767   6.014 -0.3088  0.0303 -0.0296
  799POPS   C1A12079  16.739   3.042   6.309 -0.0142  0.2064 -0.0709
  799POPS   D2A12080  16.480   2.996   6.687 -0.0952 -0.2611  0.3620
  799POPS   C3A12081  16.406   3.028   7.186  0.0575 -0.1578  0.2829
  799POPS   C4A12082  16.169   3.122   7.505 -0.2585  0.1839 -0.0570
  799POPS   C1B12083  16.318   2.551   6.361 -0.0587  0.1370 -0.0144
  799POPS   C2B12084  16.144   2.676   6.726 -0.2610 -0.0093 -0.0101
  799POPS   C3B12085  16.171   2.526   7.164  0.0342 -0.1879 -0.0593
  799POPS   C4B12086  16.388   2.571   7.566  0.1905 -0.1450  0.0805
  800POPS   CNO12087   6.874  15.665   6.125 -0.0003 -0.2227 -0.3514
  800POPS   PO412088   7.282  15.920   6.113  0.0060  0.2279  0.0860
  800POPS   GL112089   7.303  15.560   6.399  0.1504  0.0110 -0.0854
  800POPS   GL212090   7.377  15.760   6.675  0.1567 -0.2274  0.2449
  800POPS   C1A12091   7.228  15.251   6.767  0.1205  0.0205  0.0117
  800POPS   D2A12092   7.371  15.385   7.128 -0.1812  0.2425 -0.1314
  800POPS   C3A12093   7.124  15.690   7.333 -0.2812  0.0828  0.2014
  800POPS   C4A12094   7.031  15.782   7.784 -0.3729 -0.3545  0.0003
  800POPS   C1B12095   7.444  15.967   7.073 -0.0323  0.1314 -0.2121
  800POPS   C2B12096   7.551  15.850   7.549  0.0358 -0.1066  0.0446
  800POPS   C3B12097   7.704  15.603   7.914  0.0409 -0.1305  0.0789
  800POPS   C4B12098   7.712  15.199   7.980 -0.0286 -0.0270  0.1045
  801POPS   CNO12099   3.807  17.446   6.017  0.3529  0.0786 -0.1256
  801POPS   PO412100   3.627  17.077   6.080  0.0262 -0.0421 -0.1683
  801POPS   GL112101   3.603  17.127   6.533 -0.1012 -0.0321  0.0131
  801POPS   GL212102   3.446  16.927   6.619 -0.0656  0.1634  0.4256
  801POPS   C1A12103   3.330  17.368   6.810  0.0791 -0.0033  0.2611
  801POPS   D2A12104   3.252  17.567   7.080 -0.2237  0.0814 -0.0191
  801POPS   C3A12105   3.611  17.607   7.372 -0.0879  0.1120 -0.0796
  801POPS   C4A12106   3.573  17.698   7.776 -0.1470 -0.1116  0.4551
  801POPS   C1B12107   3.462  16.817   7.052  0.3169 -0.1894 -0.1185
  801POPS   C2B12108   3.488  17.182   7.245  0.1219 -0.0359 -0.1430
  801POPS   C3B12109   3.721  17.175   7.601  0.0636 -0.0213  0.1150
  801POPS   C4B12110   4.184  17.183   7.609 -0.1711 -0.3955  0.1256
  802POPS   CNO12111  10.615  10.463   5.427 -0.0523  0.3278 -0.0310
  802POPS   PO412112  10.271  10.774   5.592  0.0946 -0.0745  0.0812
  802POPS   GL112113  10.367  10.877   6.031  0.3168 -0.1660  0.0963
  802POPS   GL212114  10.562  11.128   6.074  0.1741 -0.0821  0.0986
  802POPS   C1A12115  10.294  10.681   6.398  0.3308  0.0357  0.1072
  802POPS   D2A12116  10.178  10.720   6.726 -0.1488 -0.4801 -0.2547
  802POPS   C3A12117  10.162  10.413   6.985 -0.0071  0.3175  0.2637
  802POPS   C4A12118  10.107  10.408   7.351  0.2417 -0.1607 -0.0474
  802POPS   C1B12119  10.544  11.113   6.487  0.0102 -0.1246 -0.1117
  802POPS   C2B12120  10.542  11.092   6.969  0.3023  0.0618  0.1543
  802POPS   C3B12121  10.518  11.288   7.350 -0.0445  0.0896 -0.0778
  802POPS   C4B12122  10.547  11.414   7.784  0.2040 -0.0561  0.1451
  803POPS   CNO12123   6.467  17.573   5.798  0.2481 -0.1297  0.0326
  803POPS   PO412124   6.572  17.646   6.174  0.0268 -0.0999 -0.0576
  803POPS   GL112125   6.487  17.893   6.521  0.1866  0.0052  0.2612
  803POPS   GL212126   6.294  17.544   6.738  0.0456  0.1079  0.0905
  803POPS   C1A12127   6.281  17.988   6.946 -0.3124  0.0618  0.0149
  803POPS   D2A12128   6.154  18.107   7.409 -0.0276  0.1338 -0.0596
  803POPS   C3A12129   6.303  17.939   7.787 -0.1038 -0.0067 -0.1406
  803POPS   C4A12130   6.566  18.111   8.145  0.2428  0.1161  0.1169
  803POPS   C1B12131   6.465  17.209   6.987 -0.5292  0.3322  0.0209
  803POPS   C2B12132   6.670  17.150   7.398 -0.0190 -0.0318 -0.1881
  803POPS   C3B12133   6.745  17.190   7.871 -0.0787  0.1546  0.1337
  803POPS   C4B12134   7.058  17.038   8.196 -0.1635 -0.3068 -0.2109
  804POPS   CNO12135   3.986   8.691   5.719 -0.3413  0.1045 -0.0529
  804POPS   PO412136   3.730   8.800   6.025 -0.1710  0.1079 -0.0696
  804POPS   GL112137   3.755   8.766   6.474  0.1274 -0.0516 -0.0919
  804POPS   GL212138   3.681   9.089   6.496  0.0866  0.1233  0.0279
  804POPS   C1A12139   3.682   8.582   6.869  0.3788  0.1046  0.2879
  804POPS   D2A12140   3.719   8.654   7.350  0.0515 -0.1015 -0.2725
  804POPS   C3A12141   3.442   8.477   7.657  0.1038 -0.0264 -0.1130
  804POPS   C4A12142   3.109   8.173   7.647  0.2031  0.2204  0.1567
  804POPS   C1B12143   3.582   9.157   6.856  0.2637  0.0546 -0.0204
  804POPS   C2B12144   3.669   9.143   7.312  0.3629  0.0360  0.2083
  804POPS   C3B12145   3.804   8.987   7.687  0.1499  0.0372 -0.0635
  804POPS   C4B12146   3.840   8.716   7.938  0.4184  0.1288 -0.1670
  805POPS   CNO12147   5.071   6.785   5.990 -0.1135 -0.0696  0.1822
  805POPS   PO412148   5.215   6.381   5.925  0.2143  0.0023  0.1926
  805POPS   GL112149   5.291   6.139   6.235  0.0060  0.1221  0.0349
  805POPS   GL212150   5.582   6.029   6.434  0.0144  0.0127 -0.2843
  805POPS   C1A12151   5.159   5.813   6.454 -0.1475  0.3322 -0.0270
  805POPS   D2A12152   4.993   5.532   6.652 -0.1290 -0.1144 -0.3914
  805POPS   C3A12153   4.993   5.582   7.137 -0.0006 -0.2219  0.2552
  805POPS   C4A12154   5.011   5.859   7.495 -0.0404  0.0361  0.0015
  805POPS   C1B12155   5.720   6.196   6.815 -0.0056  0.0630 -0.3614
  805POPS   C2B12156   5.806   6.283   7.245  0.1195 -0.0105  0.3200
  805POPS   C3B12157   5.729   6.523   7.597  0.3798  0.1576 -0.2289
  805POPS   C4B12158   6.020   6.742   7.856 -0.0013  0.1531  0.1516
  806POPS   CNO12159  14.393  14.779   5.839 -0.0973 -0.1336  0.0865
  806POPS   PO412160  14.184  14.439   5.940  0.0794  0.2719  0.1517
  806POPS   GL112161  13.872  14.667   6.161  0.0498  0.0589 -0.1620
  806POPS   GL212162  14.025  14.888   6.292  0.2476 -0.2339  0.2156
  806POPS   C1A12163  13.656  14.536   6.539  0.0707  0.0007 -0.4626
  806POPS   D2A12164  13.676  14.591   6.946 -0.1410 -0.2580  0.0067
  806POPS   C3A12165  13.656  14.281   7.199  0.2067  0.1634 -0.1524
  806POPS   C4A12166  13.428  14.016   7.493 -0.0517  0.0869  0.3175
  806POPS   C1B12167  13.976  14.957   6.768 -0.1715  0.0903 -0.0546
  806POPS   C2B12168  14.027  14.885   7.337 -0.1677 -0.2242  0.0174
  806POPS   C3B12169  14.042  14.948   7.836  0.0363  0.0144  0.0086
  806POPS   C4B12170  14.336  14.684   8.007  0.4104 -0.2017 -0.0709
  807POPS   CNO12171   6.761   5.690   5.878 -0.2680  0.1034  0.0565
  807POPS   PO412172   7.072   5.769   6.008  0.1102 -0.2310  0.0774
  807POPS   GL112173   6.998   5.955   6.320  0.2802 -0.2510  0.0926
  807POPS   GL212174   7.189   6.286   6.379 -0.0774  0.1492 -0.0257
  807POPS   C1A12175   7.134   5.965   6.778 -0.2401 -0.0797  0.0664
  807POPS   D2A12176   7.109   6.042   7.258 -0.1063  0.0209  0.1173
  807POPS   C3A12177   7.276   5.749   7.554  0.0786  0.2741  0.0318
  807POPS   C4A12178   7.132   5.400   7.842 -0.2121  0.1584 -0.1442
  807POPS   C1B12179   7.273   6.433   6.749 -0.0879  0.0156 -0.1262
  807POPS   C2B12180   7.296   6.512   7.235  0.4250 -0.1040 -0.4108
  807POPS   C3B12181   7.384   6.656   7.663 -0.1527  0.1075  0.2513
  807POPS   C4B12182   7.172   6.713   8.051  0.0258 -0.0111  0.0397
  808POPS   CNO12183  10.701   6.760   5.608 -0.0841  0.1207  0.0612
  808POPS   PO412184  10.984   6.817   6.030  0.0772  0.1664 -0.2399
  808POPS   GL112185  11.327   6.782   6.222  0.1150  0.1901  0.0087
  808POPS   GL212186  11.348   6.452   6.257 -0.1831  0.0576 -0.0047
  808POPS   C1A12187  11.696   6.832   6.542 -0.0954  0.0050 -0.2889
  808POPS   D2A12188  12.064   6.757   6.793  0.1751 -0.1184 -0.3745
  808POPS   C3A12189  12.211   6.347   6.865  0.1237  0.0150  0.1980
  808POPS   C4A12190  12.332   6.073   6.597 -0.0106  0.2565  0.2096
  808POPS   C1B12191  11.271   6.558   6.681 -0.0630 -0.1087  0.0234
  808POPS   C2B12192  11.089   6.555   7.130  0.2650 -0.2476  0.1303
  808POPS   C3B12193  11.042   6.732   7.501 -0.2770 -0.2293 -0.2676
  808POPS   C4B12194  10.969   7.029   7.874 -0.0244  0.0971  0.2145
  809POPS   CNO12195  10.431  17.822   5.596 -0.0894  0.1549 -0.1973
  809POPS   PO412196  10.242  17.750   6.027  0.1322 -0.1284  0.2541
  809POPS   GL112197  10.288  17.705   6.510  0.1433  0.0575  0.0340
  809POPS   GL212198  10.222  18.053   6.635  0.0427 -0.3563  0.2902
  809POPS   C1A12199  10.358  17.688   6.957 -0.2151  0.2173 -0.0058
  809POPS   D2A12200  10.373  17.861   7.356 -0.2951 -0.1912 -0.3225
  809POPS   C3A12201  10.408  17.688   7.766 -0.1393  0.1182 -0.1382
  809POPS   C4A12202  10.558  17.297   8.017 -0.2030 -0.1487 -0.0166
  809POPS   C1B12203  10.086  18.220   7.008 -0.0502 -0.1227  0.1492
  809POPS   C2B12204  10.025  18.218   7.466 -0.0866 -0.0710  0.1552
  809POPS   C3B12205  10.205  18.192   7.841 -0.0227  0.2058  0.0379
  809POPS   C4B12206  10.367  17.976   8.267 -0.1051 -0.2295  0.0437
  810POPS   CNO12207   4.832  15.781   5.428  0.0351  0.3505  0.0966
  810POPS   PO412208   4.559  16.009   5.544  0.1232 -0.1852 -0.3906
  810POPS   GL112209   4.532  16.195   5.998  0.0533 -0.0497  0.1305
  810POPS   GL212210   4.493  15.960   6.282 -0.0032  0.0840  0.1842
  810POPS   C1A12211   4.528  16.492   6.180 -0.1860 -0.3243 -0.1939
  810POPS   D2A12212   4.526  16.820   6.373  0.1978 -0.2901 -0.3326
  810POPS   C3A12213   4.637  16.773   6.853 -0.1699 -0.0913 -0.1210
  810POPS   C4A12214   4.544  16.750   7.309 -0.2176 -0.0943  0.2821
  810POPS   C1B12215   4.517  15.833   6.693 -0.2699 -0.0669  0.0474
  810POPS   C2B12216   4.594  15.776   7.149 -0.1464  0.1810 -0.1769
  810POPS   C3B12217   4.445  15.783   7.588  0.3887 -0.0509  0.0368
  810POPS   C4B12218   4.164  16.030   7.762 -0.3198 -0.1672  0.1475
  811YOPS   CNO12219   8.041   1.046   5.808 -0.0012 -0.0102  0.1653
  811YOPS   PO412220   8.011   1.331   6.143 -0.1899 -0.2760  0.1872
  811YOPS   GL112221   7.940   1.499   6.486  0.1903 -0.0764 -0.1848
  811YOPS   GL212222   7.962   1.194   6.704  0.1935  0.0892  0.4658
  811YOPS   C1A12223   8.007   1.740   6.858  0.0573 -0.2040  0.0236
  811YOPS   D2A12224   8.003   1.898   7.245 -0.2377  0.0344  0.2184
  811YOPS   C3A12225   7.616   2.046   7.257  0.1629 -0.0677 -0.0552
  811YOPS   C4A12226   7.439   1.918   6.960 -0.0820  0.0257  0.1983
  811YOPS   C1B12227   8.083   1.289   7.080 -0.1195 -0.0147  0.0914
  811YOPS   C2B12228   8.104   1.464   7.471  0.2259 -0.0673 -0.1462
  811YOPS   D3B12229   8.274   1.628   7.764  0.0290  0.0408  0.1968
  811YOPS   C4B12230   8.118   1.676   8.121 -0.3320  0.1940 -0.2140
  812YOPS   CNO12231  16.723  10.125   5.513 -0.2626 -0.0212 -0.2045
  812YOPS   PO412232  16.854  10.318   5.969  0.0803 -0.1072  0.1553
  812YOPS   GL112233  16.753  10.261   6.396 -0.0148 -0.0340  0.2895
  812YOPS   GL212234  16.472  10.156   6.350  0.2716 -0.2562 -0.1885
  812YOPS   C1A12235  16.670  10.221   6.781 -0.1329 -0.0161 -0.0560
  812YOPS   D2A12236  16.638  10.219   7.302 -0.1345  0.2425 -0.1965
  812YOPS   C3A12237  16.948  10.453   7.613 -0.1552 -0.1523 -0.0857
  812YOPS   C4A12238  16.901  10.460   8.078  0.0719 -0.2795  0.0212
  812YOPS   C1B12239  16.256  10.412   6.542  0.2743  0.1104  0.0529
  812YOPS   C2B12240  16.354  10.528   7.037 -0.0106 -0.1372  0.0733
  812YOPS   D3B12241  16.402  10.693   7.314 -0.3670 -0.1176  0.0755
  812YOPS   C4B12242  16.217  10.938   7.537  0.0692  0.1436 -0.0451
  813YOPS   CNO12243   3.582   2.329   5.417 -0.1986 -0.1752  0.0373
  813YOPS   PO412244   3.421   2.226   5.818  0.1600  0.1191  0.2506
  813YOPS   GL112245   3.130   1.998   6.134  0.1010  0.2905  0.2322
  813YOPS   GL212246   3.194   1.709   6.311  0.1544 -0.0313 -0.3379
  813YOPS   C1A12247   2.928   2.082   6.472  0.1639 -0.2820 -0.0644
  813YOPS   D2A12248   2.686   2.029   6.755 -0.4793  0.3522 -0.1494
  813YOPS   C3A12249   2.637   1.679   6.949  0.0643  0.0438 -0.4254
  813YOPS   C4A12250   2.836   1.682   7.341  0.4655  0.0779  0.1770
  813YOPS   C1B12251   2.851   1.560   6.535 -0.1714  0.0235  0.0110
  813YOPS   C2B12252   2.494   1.322   6.631 -0.2094  0.3275 -0.0437
  813YOPS   D3B12253   2.329   1.127   6.976  0.0565  0.0691  0.0192
  813YOPS   C4B12254   2.660   1.082   7.323 -0.2890 -0.2591  0.0795
  814YOPS   CNO12255   9.476   5.418   5.667  0.2056 -0.0822 -0.1794
  814YOPS   PO412256   9.220   5.111   5.928 -0.0390  0.1824 -0.2599
  814YOPS   GL112257   9.528   5.301   6.185 -0.0688 -0.0258  0.1114
  814YOPS   GL212258   9.771   5.033   6.227 -0.2991  0.3681 -0.1963
  814YOPS   C1A12259   9.382   5.521   6.562  0.2177  0.2740  0.2681
  814YOPS   D2A12260   9.431   5.559   7.031 -0.2248  0.0650  0.0174
  814YOPS   C3A12261   9.453   5.944   7.409  0.1536  0.0878 -0.0467
  814YOPS   C4A12262   9.258   5.938   7.765 -0.1613 -0.0045  0.2477
  814YOPS   C1B12263   9.611   5.089   6.668  0.0480  0.1722  0.1462
  814YOPS   C2B12264   9.595   5.110   7.124  0.0999 -0.0048 -0.2271
  814YOPS   D3B12265   9.481   5.201   7.533  0.0441 -0.1466  0.1384
  814YOPS   C4B12266   9.473   5.532   7.580 -0.1209  0.0165 -0.1186
  815YOPS   CNO12267   7.087   8.130   5.719  0.2700  0.1386 -0.4189
  815YOPS   PO412268   6.732   8.376   5.951 -0.1025 -0.0305 -0.2521
  815YOPS   GL112269   6.869   8.517   6.224  0.4460 -0.0362 -0.0162
  815YOPS   GL212270   7.171   8.376   6.210 -0.0716  0.2557  0.2569
  815YOPS   C1A12271   6.997   8.660   6.614  0.0237 -0.2109  0.0763
  815YOPS   D2A12272   6.990   8.520   6.951  0.0455  0.2169  0.0568
  815YOPS   C3A12273   6.890   8.387   7.328  0.1159 -0.1850 -0.0394
  815YOPS   C4A12274   7.248   8.284   7.517  0.0956 -0.1723 -0.2290
  815YOPS   C1B12275   7.487   8.241   6.519 -0.1337  0.0006 -0.1666
  815YOPS   C2B12276   7.571   8.273   6.930 -0.0236 -0.1518  0.0376
  815YOPS   D3B12277   7.513   8.665   7.160 -0.3526  0.2187  0.0187
  815YOPS   C4B12278   7.135   8.779   7.351  0.5143  0.1687  0.2194
  816YOPS   CNO12279  16.265  11.930   5.999  0.0445  0.2764 -0.1724
  816YOPS   PO412280  16.029  11.563   5.983 -0.0194  0.0309 -0.2121
  816YOPS   GL112281  15.978  11.425   6.361 -0.0540 -0.0893  0.1484
  816YOPS   GL212282  15.777  11.128   6.339 -0.0381  0.0736  0.0649
  816YOPS   C1A12283  15.726  11.574   6.683  0.0144 -0.0381  0.1777
  816YOPS   D2A12284  15.607  11.611   7.073 -0.3814 -0.0740  0.0521
  816YOPS   C3A12285  15.437  11.765   7.389 -0.0783  0.2423 -0.1838
  816YOPS   C4A12286  15.375  11.603   7.753 -0.2494  0.4890 -0.4823
  816YOPS   C1B12287  15.770  11.048   6.784  0.0070  0.0650  0.2174
  816YOPS   C2B12288  15.766  11.124   7.226  0.0721 -0.1567 -0.3412
  816YOPS   D3B12289  15.619  11.008   7.629 -0.1929  0.0400  0.1199
  816YOPS   C4B12290  15.584  11.250   7.979  0.0987  0.1762  0.1280
  817YOPS   CNO12291   2.858  16.964   5.759 -0.0928  0.1498 -0.1968
  817YOPS   PO412292   2.652  16.804   6.058 -0.2134 -0.4075  0.1839
  817YOPS   GL112293   2.737  16.666   6.455  0.1406 -0.0783  0.0525
  817YOPS   GL212294   3.084  16.498   6.521  0.0912 -0.1822  0.0459
  817YOPS   C1A12295   2.702  16.553   6.923  0.0319  0.0523 -0.3056
  817YOPS   D2A12296   2.672  16.463   7.426  0.0634 -0.0199 -0.1546
  817YOPS   C3A12297   2.784  16.072   7.701 -0.1316  0.1495  0.0769
  817YOPS   C4A12298   2.592  16.070   8.148 -0.1358  0.0288 -0.0487
  817YOPS   C1B12299   3.275  16.366   6.912  0.2353 -0.1160  0.0930
  817YOPS   C2B12300   3.143  16.450   7.275 -0.0791 -0.5302 -0.2852
  817YOPS   D3B12301   3.164  16.489   7.680  0.0416 -0.0558  0.1806
  817YOPS   C4B12302   2.805  16.489   7.963 -0.1294 -0.0823 -0.2872
  818YOPS   CNO12303  12.738   8.187   5.891  0.0921  0.1701 -0.2589
  818YOPS   PO412304  12.358   8.220   5.616  0.0411  0.0258 -0.2450
  818YOPS   GL112305  12.187   8.040   6.069  0.0863  0.0831 -0.0668
  818YOPS   GL212306  12.084   8.391   6.125  0.0243  0.5452 -0.0335
  818YOPS   C1A12307  12.474   8.027   6.419  0.0416  0.1444 -0.2655
  818YOPS   D2A12308  12.468   8.154   6.881  0.0330 -0.0211 -0.1961
  818YOPS   C3A12309  12.486   8.284   7.228  0.0062  0.0895 -0.0253
  818YOPS   C4A12310  12.364   8.519   7.547 -0.1499 -0.1175 -0.2081
  818YOPS   C1B12311  12.052   8.286   6.577  0.0407  0.2328 -0.1397
  818YOPS   C2B12312  12.016   8.199   6.999  0.1837  0.2306 -0.0018
  818YOPS   D3B12313  11.968   8.430   7.303  0.1682  0.3402  0.0299
  818YOPS   C4B12314  11.705   8.748   7.348  0.1007  0.2119  0.0416
  819YOPS   CNO12315  12.788  17.050   5.709 -0.0123 -0.0665  0.0632
  819YOPS   PO412316  12.916  17.420   5.934 -0.0419 -0.0550  0.0976
  819YOPS   GL112317  12.927  17.402   6.340  0.3647 -0.0978 -0.1671
  819YOPS   GL212318  12.743  17.284   6.574 -0.1474 -0.0266  0.1192
  819YOPS   C1A12319  13.260  17.295   6.611 -0.0988 -0.2095  0.0188
  819YOPS   D2A12320  13.329  17.423   7.066 -0.1686  0.0389  0.1177
  819YOPS   C3A12321  13.269  17.589   7.458  0.2293  0.4476 -0.1421
  819YOPS   C4A12322  13.505  17.925   7.368 -0.0481  0.2518 -0.2938
  819YOPS   C1B12323  12.916  17.216   6.987 -0.0578 -0.1034 -0.0083
  819YOPS   C2B12324  12.713  17.323   7.410 -0.1279  0.1500  0.2260
  819YOPS   D3B12325  12.396  17.191   7.679  0.3314  0.0866  0.1146
  819YOPS   C4B12326  12.487  16.996   8.043 -0.2739 -0.2118 -0.4505
  820YOPS   CNO12327  11.164   2.683   5.715  0.0873  0.2110  0.0364
  820YOPS   PO412328  11.245   2.573   6.086  0.2134  0.0181 -0.0049
  820YOPS   GL112329  11.061   2.633   6.495  0.4089 -0.1490  0.0194
  820YOPS   GL212330  10.761   2.836   6.642  0.3909  0.4161 -0.0740
  820YOPS   C1A12331  11.068   2.606   6.955 -0.0051  0.0173  0.3992
  820YOPS   D2A12332  11.074   2.617   7.410 -0.0631  0.0500  0.3100
  820YOPS   C3A12333  10.878   2.588   7.779  0.0587  0.2556  0.1407
  820YOPS   C4A12334  11.055   2.651   8.161  0.2494  0.0847  0.0396
  820YOPS   C1B12335  10.785   3.030   7.188  0.2746 -0.3141 -0.0461
  820YOPS   C2B12336  10.930   3.103   7.564  0.1551  0.3204  0.2167
  820YOPS   D3B12337  11.278   2.931   7.750 -0.0262  0.0080  0.1739
  820YOPS   C4B12338  11.406   2.524   7.821  0.3670  0.0859 -0.1006
  821YOPS   CNO12339  13.618   0.722   5.544  0.2311  0.0920  0.1182
  821YOPS   PO412340  13.400   0.888   5.873 -0.1053  0.2244 -0.0326
  821YOPS   GL112341  13.503   1.060   6.225 -0.0402 -0.1165 -0.0018
  821YOPS   GL212342  13.180   1.181   6.271 -0.1037 -0.0247  0.2043
  821YOPS   C1A12343  13.520   1.071   6.703 -0.0589 -0.0467 -0.1580
  821YOPS   D2A12344  13.634   1.129   7.064 -0.3365  0.2115  0.0904
  821YOPS   C3A12345  13.752   1.137   7.502  0.0267 -0.1278 -0.1051
  821YOPS   C4A12346  13.765   0.753   7.747  0.1039 -0.2161  0.1480
  821YOPS   C1B12347  13.040   1.097   6.688  0.1813 -0.0954  0.0371
  821YOPS   C2B12348  12.972   1.152   7.131  0.0957 -0.3228 -0.1898
  821YOPS   D3B12349  13.310   0.959   7.505  0.2935  0.0219  0.1317
  821YOPS   C4B12350  13.352   0.503   7.680  0.1284 -0.1528 -0.1743
  822YOPS   CNO12351   7.554   7.229   5.863  0.2562  0.5465 -0.3741
  822YOPS   PO412352   7.906   7.411   5.854  0.1886 -0.3881 -0.0787
  822YOPS   GL112353   7.834   7.429   6.303  0.1309 -0.0481  0.0962
  822YOPS   GL212354   7.467   7.510   6.270  0.1317  0.0300  0.4555
  822YOPS   C1A12355   7.810   7.336   6.740  0.0335  0.1378 -0.0113
  822YOPS   D2A12356   7.875   7.404   7.238 -0.0332  0.1277 -0.1789
  822YOPS   C3A12357   7.872   7.700   7.593  0.0816 -0.1090 -0.0062
  822YOPS   C4A12358   7.791   7.568   8.044 -0.0252 -0.0276  0.0253
  822YOPS   C1B12359   7.529   7.730   6.722 -0.2850  0.0550 -0.0883
  822YOPS   C2B12360   7.562   7.845   7.203 -0.2104  0.3269 -0.0440
  822YOPS   D3B12361   7.399   7.558   7.593  0.0284 -0.0700  0.0170
  822YOPS   C4B12362   7.627   7.241   7.709  0.0334  0.0880 -0.3747
  823YOPS   CNO12363  12.478   9.936   5.020  0.1895 -0.0712 -0.0193
  823YOPS   PO412364  12.280  10.012   5.438  0.0533 -0.2302 -0.2607
  823YOPS   GL112365  12.392   9.758   5.753 -0.0958 -0.1447 -0.0958
  823YOPS   GL212366  12.068   9.639   5.768  0.0658 -0.0892 -0.0016
  823YOPS   C1A12367  12.353   9.323   6.029  0.0270  0.0527 -0.0667
  823YOPS   D2A12368  12.169   9.118   6.350  0.0633 -0.0879  0.1044
  823YOPS   C3A12369  11.925   9.059   6.709 -0.2999  0.1862 -0.0922
  823YOPS   C4A12370  11.794   8.723   6.853  0.0672 -0.0965 -0.4531
  823YOPS   C1B12371  11.700   9.542   6.053 -0.1863 -0.3925 -0.0155
  823YOPS   C2B12372  11.585   9.329   6.369 -0.0306  0.0402 -0.0476
  823YOPS   D3B12373  11.488   8.975   6.302 -0.1276 -0.1391 -0.0960
  823YOPS   C4B12374  11.768   8.693   6.391 -0.1072 -0.2622  0.2041
  824YOPS   CNO12375   1.544  11.952   5.365 -0.3174  0.0188  0.4397
  824YOPS   PO412376   1.684  11.581   5.544  0.1200 -0.3083 -0.0592
  824YOPS   GL112377   1.688  11.479   5.980  0.1194 -0.4579  0.2166
  824YOPS   GL212378   2.101  11.483   6.105  0.2839  0.2099 -0.1555
  824YOPS   C1A12379   1.669  11.465   6.390 -0.2221 -0.0232 -0.0114
  824YOPS   D2A12380   1.684  11.432   6.892  0.0115 -0.0442 -0.0857
  824YOPS   C3A12381   1.579  11.321   7.241 -0.0424 -0.1010 -0.1043
  824YOPS   C4A12382   1.898  10.955   7.516 -0.2042 -0.0115  0.2378
  824YOPS   C1B12383   2.158  11.552   6.545 -0.0565  0.2607 -0.2324
  824YOPS   C2B12384   2.547  11.541   6.734  0.2451  0.0249 -0.1074
  824YOPS   D3B12385   2.679  11.598   7.172  0.2241  0.0637 -0.0832
  824YOPS   C4B12386   3.104  11.587   7.343  0.0785 -0.0854  0.2289
  825YOPS   CNO12387  10.803   1.734   5.669 -0.1022  0.0607  0.1743
  825YOPS   PO412388  10.953   1.741   6.080 -0.0162  0.1327  0.2819
  825YOPS   GL112389  10.649   1.750   6.429  0.2646 -0.0479 -0.0498
  825YOPS   GL212390  10.538   1.358   6.503 -0.1741  0.1096  0.0748
  825YOPS   C1A12391  10.450   1.884   6.917 -0.0670  0.2365  0.4442
  825YOPS   D2A12392  10.171   1.940   7.256  0.1833 -0.0689  0.1019
  825YOPS   C3A12393   9.770   2.087   7.391  0.1488  0.1795 -0.3190
  825YOPS   C4A12394   9.610   2.232   6.985  0.3719 -0.2884 -0.0616
  825YOPS   C1B12395  10.757   1.490   6.919  0.0370  0.2321  0.2029
  825YOPS   C2B12396  10.936   1.751   7.319 -0.1502  0.0313  0.1067
  825YOPS   D3B12397  10.834   1.795   7.760 -0.0717  0.1132 -0.2415
  825YOPS   C4B12398  10.759   2.115   8.016  0.0060 -0.0713  0.1146
  826YOPS   CNO12399  13.869  12.628   5.484  0.3360  0.0779 -0.0295
  826YOPS   PO412400  13.757  12.505   5.895 -0.2081  0.0964 -0.0686
  826YOPS   GL112401  13.658  12.367   6.310 -0.1866  0.0086 -0.0133
  826YOPS   GL212402  13.389  12.187   6.461  0.0727 -0.1728 -0.0245
  826YOPS   C1A12403  13.668  12.400   6.745  0.3725 -0.1822  0.0558
  826YOPS   D2A12404  13.621  12.456   7.150  0.0386 -0.0268 -0.2623
  826YOPS   C3A12405  13.576  12.512   7.688  0.0814 -0.2592  0.1367
  826YOPS   C4A12406  13.700  12.749   7.940  0.0067  0.1566  0.0938
  826YOPS   C1B12407  13.233  12.039   6.904  0.0111 -0.1358  0.2034
  826YOPS   C2B12408  13.356  12.115   7.304 -0.1304  0.3755  0.0965
  826YOPS   D3B12409  13.643  12.023   7.612 -0.0100  0.2557 -0.1168
  826YOPS   C4B12410  13.707  11.810   7.991 -0.3446 -0.2386 -0.0043
  827YOPS   CNO12411   4.412   2.385   5.865 -0.1195 -0.1770 -0.1506
  827YOPS   PO412412   4.711   2.669   5.935 -0.0026 -0.0552 -0.1735
  827YOPS   GL112413   4.686   2.611   6.346 -0.0420 -0.1557 -0.1346
  827YOPS   GL212414   4.360   2.424   6.494 -0.0375 -0.2292  0.0511
  827YOPS   C1A12415   4.560   2.720   6.844 -0.0502 -0.0544  0.1886
  827YOPS   D2A12416   4.488   2.725   7.363 -0.0064 -0.0408  0.1567
  827YOPS   C3A12417   4.336   2.768   7.849 -0.1883 -0.2107  0.1016
  827YOPS   C4A12418   4.380   3.142   8.075  0.0473 -0.1486 -0.1455
  827YOPS   C1B12419   3.950   2.277   6.640  0.0955  0.1975  0.2581
  827YOPS   C2B12420   3.762   2.330   7.035  0.1545  0.0777  0.0312
  827YOPS   D3B12421   3.670   2.262   7.432 -0.0271  0.2773 -0.3368
  827YOPS   C4B12422   3.889   2.484   7.757  0.0067 -0.3320 -0.0105
  828YOPS   CNO12423  16.958   1.395   5.508 -0.1567  0.2111 -0.2622
  828YOPS   PO412424  17.121   1.477   5.927 -0.1153  0.1345  0.0553
  828YOPS   GL112425  16.829   1.451   6.280 -0.1118  0.2447 -0.0444
  828YOPS   GL212426  16.649   1.186   6.324  0.0253 -0.1853  0.0938
  828YOPS   C1A12427  16.609   1.609   6.602  0.0245  0.1877 -0.1516
  828YOPS   D2A12428  16.555   1.622   7.038  0.1595  0.0683  0.2576
  828YOPS   C3A12429  16.663   1.589   7.431  0.1857  0.0668  0.2388
  828YOPS   C4A12430  16.564   1.837   7.819 -0.1348  0.1579  0.2413
  828YOPS   C1B12431  16.846   1.083   6.692  0.2393  0.0546 -0.3217
  828YOPS   C2B12432  16.771   1.158   7.143 -0.2667  0.0664  0.1066
  828YOPS   D3B12433  16.827   1.191   7.665  0.2522 -0.0372 -0.0051
  828YOPS   C4B12434  16.573   0.765   7.828 -0.2007 -0.4083  0.3344
  829YOPS   CNO12435   4.451   0.580   5.708 -0.0496 -0.1688 -0.1473
  829YOPS   PO412436   4.521   0.930   5.934  0.0259 -0.0245 -0.3319
  829YOPS   GL112437   4.769   0.871   6.357  0.2170 -0.1104 -0.0544
  829YOPS   GL212438   5.103   0.880   6.456 -0.1265  0.1748  0.1616
  829YOPS   C1A12439   4.787   0.997   6.832  0.2432  0.2261 -0.2154
  829YOPS   D2A12440   4.715   1.007   7.265 -0.1482 -0.2540  0.3866
  829YOPS   C3A12441   4.953   1.052   7.557 -0.1643 -0.0668 -0.2832
  829YOPS   C4A12442   4.967   1.412   7.817 -0.1279 -0.0674 -0.2775
  829YOPS   C1B12443   5.261   1.032   6.794 -0.3683  0.0536  0.0201
  829YOPS   C2B12444   5.112   1.294   7.126  0.1328 -0.2728 -0.2252
  829YOPS   D3B12445   4.800   1.535   7.314 -0.1313 -0.2485 -0.0780
  829YOPS   C4B12446   4.596   1.903   7.397 -0.1305  0.2018  0.1525
  830YOPS   CNO12447  11.900   8.433   5.627  0.1459  0.0593  0.0845
  830YOPS   PO412448  11.713   8.146   5.910 -0.2575 -0.0285  0.0246
  830YOPS   GL112449  11.381   8.095   6.116  0.0909 -0.0785  0.2927
  830YOPS   GL212450  11.564   8.248   6.391 -0.2202  0.1848 -0.2174
  830YOPS   C1A12451  11.174   8.070   6.585  0.2294 -0.1753 -0.0281
  830YOPS   D2A12452  11.029   8.034   6.994 -0.0138  0.0970 -0.1392
  830YOPS   C3A12453  10.776   7.911   7.375 -0.0655 -0.0927 -0.0865
  830YOPS   C4A12454  10.399   7.684   7.468  0.0673  0.4533  0.0710
  830YOPS   C1B12455  11.558   8.302   6.855 -0.1130  0.0443 -0.0585
  830YOPS   C2B12456  11.426   8.301   7.206  0.3354  0.0791 -0.2268
  830YOPS   D3B12457  11.211   8.072   7.498 -0.0541  0.0317  0.1434
  830YOPS   C4B12458  11.250   8.026   7.952  0.3284  0.0154  0.1657
  831YOPS   CNO12459  17.230  11.123   5.362 -0.0469  0.0816 -0.1476
  831YOPS   PO412460  16.883  11.234   5.648 -0.0576 -0.1120  0.1896
  831YOPS   GL112461  16.761  11.174   5.981  0.1272 -0.2227 -0.0292
  831YOPS   GL212462  16.406  11.271   6.142  0.1886 -0.2210 -0.1065
  831YOPS   C1A12463  16.708  11.149   6.442  0.2510 -0.3605  0.2384
  831YOPS   D2A12464  16.879  11.347   6.799  0.0533 -0.1966 -0.4046
  831YOPS   C3A12465  17.090  11.674   6.989  0.0355  0.2606  0.0187
  831YOPS   C4A12466  16.937  11.731   7.458 -0.5988  0.1920  0.0929
  831YOPS   C1B12467  16.397  11.487   6.611  0.2444 -0.0897  0.0556
  831YOPS   C2B12468  16.154  11.481   7.020 -0.1504 -0.2327  0.0258
  831YOPS   D3B12469  16.087  11.629   7.399 -0.0512 -0.2000 -0.2348
  831YOPS   C4B12470  15.909  11.425   7.611 -0.0200  0.0642  0.1821
  832YOPS   CNO12471  10.766  13.781   5.622 -0.0821  0.2424 -0.1411
  832YOPS   PO412472  10.581  14.065   5.865  0.0472  0.1182  0.0173
  832YOPS   GL112473  10.253  13.867   6.208 -0.1555 -0.0332 -0.0172
  832YOPS   GL212474   9.953  14.086   6.320  0.2194 -0.1842  0.3065
  832YOPS   C1A12475  10.353  13.669   6.511  0.1266  0.2743 -0.1477
  832YOPS   D2A12476  10.420  13.530   6.897  0.1615  0.0412 -0.2948
  832YOPS   C3A12477  10.250  13.494   7.294 -0.0659  0.1096 -0.0493
  832YOPS   C4A12478  10.484  13.258   7.529  0.2222  0.0573  0.1157
  832YOPS   C1B12479  10.016  14.052   6.756 -0.0543 -0.3605  0.2100
  832YOPS   C2B12480  10.012  13.898   7.139 -0.0743  0.1594 -0.2930
  832YOPS   D3B12481   9.931  13.789   7.594  0.2045 -0.1376 -0.1366
  832YOPS   C4B12482  10.265  13.725   7.814 -0.1562  0.0334 -0.0355
  833YOPS   CNO12483  11.410   5.012   6.012  0.1605  0.1090  0.0040
  833YOPS   PO412484  11.329   4.658   6.274  0.1363  0.0942 -0.6235
  833YOPS   GL112485  11.474   5.046   6.670  0.2662 -0.0450  0.1374
  833YOPS   GL212486  11.558   5.242   6.441 -0.1231  0.1562  0.0042
  833YOPS   C1A12487  11.560   5.207   7.054 -0.2286 -0.1844 -0.1190
  833YOPS   D2A12488  11.647   5.584   7.362 -0.2369  0.0931  0.0808
  833YOPS   C3A12489  11.857   5.912   7.744 -0.2418  0.2822  0.1743
  833YOPS   C4A12490  11.570   6.054   7.995 -0.0008 -0.1040  0.1277
  833YOPS   C1B12491  11.508   5.654   6.604 -0.0150  0.0797 -0.1142
  833YOPS   C2B12492  11.482   5.903   6.995  0.1739 -0.1078 -0.0040
  833YOPS   D3B12493  11.511   6.130   7.411  0.1299  0.0834  0.1497
  833YOPS   C4B12494  11.210   6.171   7.724 -0.0716 -0.2237  0.3082
  834YOPS   CNO12495   4.731  16.464   5.588  0.1899  0.3319  0.4810
  834YOPS   PO412496   5.035  16.178   5.761 -0.4064  0.0454 -0.2475
  834YOPS   GL112497   5.156  16.193   6.201  0.0596  0.0562  0.1275
  834YOPS   GL212498   5.073  15.907   6.292 -0.1121 -0.2596 -0.0240
  834YOPS   C1A12499   4.821  16.221   6.529  0.0816  0.1224  0.0397
  834YOPS   D2A12500   4.818  16.272   6.975 -0.2304 -0.0984 -0.0013
  834YOPS   C3A12501   4.674  16.186   7.333  0.1835 -0.2415 -0.2527
  834YOPS   C4A12502   4.564  16.284   7.739 -0.2933 -0.1061 -0.1084
  834YOPS   C1B12503   5.043  15.776   6.683 -0.2444  0.1185  0.0817
  834YOPS   C2B12504   5.130  15.689   7.131 -0.1139  0.1370 -0.3018
  834YOPS   D3B12505   4.887  15.730   7.556 -0.0390 -0.1885 -0.1502
  834YOPS   C4B12506   5.009  16.079   7.802  0.0119 -0.0986 -0.1021
  835YOPS   CNO12507  13.327   9.430   5.329 -0.2065 -0.0797  0.4792
  835YOPS   PO412508  13.232   9.052   5.712  0.0424  0.0900 -0.0795
  835YOPS   GL112509  13.459   9.011   6.099 -0.2387  0.0201  0.2169
  835YOPS   GL212510  13.529   8.622   6.179  0.1359 -0.0806 -0.1795
  835YOPS   C1A12511  13.579   9.116   6.471  0.0289 -0.1713  0.0989
  835YOPS   D2A12512  13.582   9.464   6.731  0.2479  0.1145 -0.4998
  835YOPS   C3A12513  13.653   9.656   7.111 -0.1660 -0.2570 -0.2364
  835YOPS   C4A12514  13.571   9.441   7.468  0.1776  0.0147 -0.1004
  835YOPS   C1B12515  13.311   8.678   6.692 -0.1225  0.1588 -0.2229
  835YOPS   C2B12516  12.983   8.833   6.958  0.0280  0.2611 -0.4189
  835YOPS   D3B12517  13.065   9.000   7.389 -0.3123  0.1114 -0.1405
  835YOPS   C4B12518  13.144   8.710   7.690  0.3036  0.2098  0.0923
  836YOPS   CNO12519  10.384   8.946   5.441 -0.1070 -0.0123 -0.2790
  836YOPS   PO412520  10.563   9.119   5.761 -0.2277 -0.0218  0.1927
  836YOPS   GL112521  10.724   9.043   6.155 -0.1056  0.2172  0.0996
  836YOPS   GL212522  10.963   9.155   6.184 -0.0952  0.1514 -0.1371
  836YOPS   C1A12523  10.653   8.813   6.574  0.1041  0.0212 -0.0378
  836YOPS   D2A12524  10.610   8.875   7.043  0.0302 -0.0503 -0.1421
  836YOPS   C3A12525  10.626   9.181   7.362  0.2208 -0.0969  0.3767
  836YOPS   C4A12526  10.831   8.927   7.738  0.2127 -0.2920  0.1435
  836YOPS   C1B12527  11.031   9.091   6.557 -0.0295 -0.1410 -0.0947
  836YOPS   C2B12528  10.871   9.226   6.910 -0.0150  0.2221  0.1182
  836YOPS   D3B12529  11.088   9.500   7.208  0.3918  0.1744 -0.0430
  836YOPS   C4B12530  10.885   9.458   7.701 -0.1280 -0.1018  0.2229
  837YOPS   CNO12531  16.839  13.477   6.204  0.2967 -0.1837 -0.3370
  837YOPS   PO412532  17.169  13.674   5.987 -0.1123 -0.2818  0.1695
  837YOPS   GL112533  17.267  13.804   6.400 -0.0527  0.1810  0.1798
  837YOPS   GL212534  17.129  13.839   6.491 -0.1140  0.0050  0.0951
  837YOPS   C1A12535  17.469  13.692   6.808 -0.3950  0.0310 -0.2529
  837YOPS   D2A12536  17.379  13.623   7.257 -0.0345  0.0932  0.0507
  837YOPS   C3A12537  17.305  13.554   7.697 -0.5205 -0.0291  0.0317
  837YOPS   C4A12538  17.058  13.406   8.028  0.0681 -0.0808  0.0605
  837YOPS   C1B12539  16.991  13.863   6.847 -0.1791 -0.1583 -0.0929
  837YOPS   C2B12540  17.060  14.013   7.278  0.0322 -0.1407  0.2367
  837YOPS   D3B12541  16.865  13.710   7.640  0.0479 -0.4384 -0.2269
  837YOPS   C4B12542  16.637  13.929   7.907  0.0435  0.0869  0.1727
  838YOPS   CNO12543  16.411  12.234   5.612  0.3651 -0.0923  0.0738
  838YOPS   PO412544  16.837  12.184   5.943 -0.2412  0.2276  0.2312
  838YOPS   GL112545  16.717  12.006   6.323  0.0494  0.0052  0.2200
  838YOPS   GL212546  16.669  11.737   6.284  0.2513 -0.2853  0.1487
  838YOPS   C1A12547  16.594  11.895   6.803 -0.3180 -0.1901 -0.1246
  838YOPS   D2A12548  16.556  11.839   7.174 -0.0979  0.0334 -0.1275
  838YOPS   C3A12549  16.458  11.830   7.666 -0.1319  0.1120 -0.2931
  838YOPS   C4A12550  16.827  11.810   7.937  0.2533 -0.3878 -0.0259
  838YOPS   C1B12551  17.119  11.556   6.364  0.2296  0.0999 -0.2969
  838YOPS   C2B12552  17.474  11.385   6.618  0.0531 -0.2312 -0.0590
  838YOPS   D3B12553  17.766  11.189   6.876  0.1595  0.0165 -0.1255
  838YOPS   C4B12554  17.798  11.190   7.227  0.0925 -0.0344  0.2147
  839YOPS   CNO12555  10.377   7.431   5.522 -0.0413 -0.3593 -0.2312
  839YOPS   PO412556  10.245   7.099   5.483  0.2392  0.0759  0.0123
  839YOPS   GL112557  10.390   7.034   5.898 -0.1488  0.0478  0.2687
  839YOPS   GL212558  10.342   7.293   6.069 -0.2218  0.1940  0.0747
  839YOPS   C1A12559  10.459   6.911   6.383  0.1818  0.0407  0.1587
  839YOPS   D2A12560  10.334   6.577   6.704  0.1484 -0.1482  0.0537
  839YOPS   C3A12561  10.239   6.540   7.208  0.0261  0.4114  0.1819
  839YOPS   C4A12562   9.986   6.682   7.476 -0.2433  0.0978 -0.1642
  839YOPS   C1B12563  10.326   7.348   6.453 -0.0500 -0.1341 -0.0859
  839YOPS   C2B12564  10.200   7.506   6.777 -0.1449  0.1357 -0.1991
  839YOPS   D3B12565  10.051   7.588   7.161 -0.2755 -0.1182 -0.2600
  839YOPS   C4B12566   9.833   7.754   7.453 -0.0548 -0.2702  0.0569
  840YOPS   CNO12567   9.261  12.210   5.251  0.1567  0.4188 -0.0900
  840YOPS   PO412568   9.636  12.294   5.603 -0.0464  0.1231  0.2689
  840YOPS   GL112569   9.787  12.110   5.974  0.2589 -0.0479  0.3385
  840YOPS   GL212570   9.604  12.277   6.168  0.0467 -0.0355 -0.1574
  840YOPS   C1A12571   9.739  11.809   6.264 -0.1712 -0.0323 -0.1607
  840YOPS   D2A12572   9.783  11.641   6.634 -0.0338 -0.1632  0.0806
  840YOPS   C3A12573   9.617  11.520   7.038  0.3184  0.0915 -0.2051
  840YOPS   C4A12574   9.741  11.247   7.357 -0.1644  0.0836 -0.1106
  840YOPS   C1B12575   9.476  12.066   6.640  0.1988  0.1885 -0.1943
  840YOPS   C2B12576   9.436  11.986   7.101 -0.2831  0.3355 -0.3756
  840YOPS   D3B12577   9.081  12.078   7.413 -0.0693 -0.4508  0.0099
  840YOPS   C4B12578   9.167  11.929   7.850  0.1253 -0.2743 -0.1464
  841POPE   NH312579  11.506  15.025   5.968 -0.1123 -0.0485  0.0160
  841POPE   PO412580  11.251  14.668   5.858 -0.0198  0.0113  0.0678
  841POPE   GL112581  11.410  14.443   6.163 -0.0810  0.1476  0.3134
  841POPE   GL212582  11.205  14.286   6.400 -0.1308 -0.1105 -0.1455
  841POPE   C1A12583  11.638  14.559   6.476 -0.0493 -0.2922 -0.0012
  841POPE   D2A12584  11.544  14.590   6.883 -0.0696 -0.0493 -0.3571
  841POPE   C3A12585  11.408  14.892   7.204 -0.0322 -0.2294 -0.3836
  841POPE   C4A12586  11.181  15.097   7.595 -0.2686 -0.1559 -0.0244
  841POPE   C1B12587  11.245  14.194   6.833  0.0991  0.0636 -0.2346
  841POPE   C2B12588  11.055  14.344   7.174 -0.0263  0.4146 -0.0149
  841POPE   C3B12589  11.310  14.547   7.495  0.0371  0.0374  0.1791
  841POPE   C4B12590  11.442  14.786   7.909  0.2069 -0.0871 -0.1209
  842POPE   NH312591   5.316  15.069   5.651  0.1160 -0.0175  0.0302
  842POPE   PO412592   4.984  14.809   5.730  0.2147  0.0492  0.1348
  842POPE   GL112593   4.822  14.620   6.067 -0.1533 -0.0419 -0.0620
  842POPE   GL212594   4.586  14.520   6.232 -0.2181  0.1652 -0.1886
  842POPE   C1A12595   4.909  14.758   6.548  0.2511  0.1364  0.2376
  842POPE   D2A12596   4.803  14.672   6.939  0.2717 -0.0618  0.0820
  842POPE   C3A12597   4.931  14.791   7.327 -0.1347 -0.3009 -0.1885
  842POPE   C4A12598   5.148  14.758   7.682 -0.1816  0.1183  0.1943
  842POPE   C1B12599   4.565  14.337   6.618  0.2043 -0.2976  0.3990
  842POPE   C2B12600   4.560  14.232   6.987  0.1437  0.1089 -0.1774
  842POPE   C3B12601   4.677  14.356   7.332  0.0733 -0.1338 -0.3386
  842POPE   C4B12602   4.929  14.273   7.665 -0.3410 -0.0014  0.0022
  843POPE   NH312603   9.326  13.534   6.155 -0.1195  0.1330 -0.3174
  843POPE   PO412604   9.126  13.847   6.078  0.0596  0.0757 -0.2736
  843POPE   GL112605   8.825  13.874   6.306  0.0307 -0.0851 -0.0610
  843POPE   GL212606   8.961  13.908   6.594  0.2261  0.0293  0.0895
  843POPE   C1A12607   8.662  13.462   6.544  0.2967 -0.0467  0.2644
  843POPE   D2A12608   8.362  13.319   6.760  0.1906  0.2572  0.1447
  843POPE   C3A12609   8.133  13.701   6.844  0.1260  0.0088  0.0403
  843POPE   C4A12610   7.994  13.978   7.205 -0.0775  0.2421 -0.4673
  843POPE   C1B12611   8.811  13.695   6.956  0.0350  0.0256  0.1070
  843POPE   C2B12612   9.026  13.384   7.305  0.1644 -0.2667  0.0964
  843POPE   C3B12613   9.094  13.125   7.537 -0.2590  0.2367  0.1269
  843POPE   C4B12614   8.950  12.984   8.011 -0.2858 -0.0202  0.0651
  844POPE   NH312615   2.070  16.854   6.136  0.0835  0.1733  0.0269
  844POPE   PO412616   1.890  16.521   5.923  0.3188 -0.1132  0.0948
  844POPE   GL112617   1.815  16.493   6.409 -0.0905 -0.0391  0.0496
  844POPE   GL212618   1.775  16.866   6.548  0.3203 -0.1143  0.0858
  844POPE   C1A12619   1.721  16.220   6.743  0.1220  0.1388 -0.0831
  844POPE   D2A12620   1.943  15.891   6.565 -0.0090  0.0349 -0.1723
  844POPE   C3A12621   2.014  15.770   7.027  0.0565  0.1313 -0.3487
  844POPE   C4A12622   2.127  15.854   7.399 -0.0971 -0.0897  0.0399
  844POPE   C1B12623   1.523  16.683   6.903  0.1541  0.0458 -0.0223
  844POPE   C2B12624   1.594  16.532   7.368  0.3188  0.0197 -0.0998
  844POPE   C3B12625   1.754  16.241   7.675 -0.0313  0.0145  0.0217
  844POPE   C4B12626   1.639  16.103   8.160 -0.2704  0.3426 -0.2080
  845POPE   NH312627   5.338  14.784   6.083  0.1550  0.1089 -0.1011
  845POPE   PO412628   5.621  15.186   6.011 -0.4902 -0.1217  0.1885
  845POPE   GL112629   5.734  15.185   6.485  0.2406 -0.1303  0.2266
  845POPE   GL212630   6.113  15.093   6.433  0.1387  0.0826  0.1921
  845POPE   C1A12631   5.845  14.959   6.879 -0.2485 -0.0559 -0.2205
  845POPE   D2A12632   6.100  14.755   7.180 -0.0442 -0.1721  0.1896
  845POPE   C3A12633   6.128  14.937   7.588  0.2398  0.0389 -0.3532
  845POPE   C4A12634   6.280  15.237   7.939 -0.2225  0.0153  0.1385
  845POPE   C1B12635   6.145  14.661   6.635 -0.1621 -0.2212 -0.0102
  845POPE   C2B12636   6.189  14.141   6.690  0.0877 -0.1295  0.0769
  845POPE   C3B12637   6.346  14.077   7.014 -0.1542  0.0588 -0.0704
  845POPE   C4B12638   6.412  13.847   7.394  0.0222 -0.0338 -0.1890
  846POPE   NH312639   5.025   7.373   6.011  0.0822  0.1969 -0.0260
  846POPE   PO412640   4.667   7.531   5.778  0.4917 -0.2315 -0.2524
  846POPE   GL112641   4.627   7.716   6.254  0.0504  0.0416  0.0323
  846POPE   GL212642   4.831   7.977   6.355 -0.0126  0.0387  0.1857
  846POPE   C1A12643   4.476   7.734   6.674 -0.1046  0.2246 -0.0275
  846POPE   D2A12644   4.280   7.784   7.100 -0.4209 -0.4315  0.0157
  846POPE   C3A12645   4.357   8.156   7.420 -0.2993 -0.0956 -0.1388
  846POPE   C4A12646   4.312   8.384   7.826  0.1932 -0.0268 -0.0601
  846POPE   C1B12647   4.654   8.198   6.719 -0.0516 -0.2080  0.2188
  846POPE   C2B12648   4.752   8.294   7.192 -0.1161 -0.1640 -0.0578
  846POPE   C3B12649   4.653   8.577   7.546  0.1868 -0.1952 -0.2416
  846POPE   C4B12650   4.717   8.582   7.993  0.0393 -0.0134  0.2161
  847POPE   NH312651  12.425   3.812   5.500  0.0125 -0.1204 -0.4895
  847POPE   PO412652  12.158   3.564   5.825 -0.0741 -0.4935 -0.0060
  847POPE   GL112653  12.434   3.621   6.190  0.1121  0.0418 -0.0763
  847POPE   GL212654  12.758   3.464   6.352  0.0623 -0.4958 -0.1280
  847POPE   C1A12655  12.261   3.782   6.470  0.4924  0.1324 -0.0469
  847POPE   D2A12656  12.026   4.105   6.703  0.2511 -0.0655 -0.2636
  847POPE   C3A12657  12.255   4.386   6.922  0.0050 -0.1655 -0.0176
  847POPE   C4A12658  12.564   4.673   6.707 -0.0290 -0.0111  0.0789
  847POPE   C1B12659  12.798   3.374   6.798 -0.0295  0.2376 -0.1804
  847POPE   C2B12660  12.625   3.600   7.144 -0.1333  0.0181  0.1515
  847POPE   C3B12661  12.882   3.796   7.414  0.1885 -0.1047 -0.3069
  847POPE   C4B12662  13.013   3.556   7.831 -0.0382 -0.1320  0.0795
  848POPE   NH312663   1.766   9.140   6.103  0.0760  0.0129 -0.1333
  848POPE   PO412664   1.673   9.645   6.081 -0.2272 -0.1296 -0.0236
  848POPE   GL112665   1.668   9.717   6.479  0.0559  0.0004 -0.3583
  848POPE   GL212666   1.817   9.497   6.672 -0.3939 -0.1449 -0.1431
  848POPE   C1A12667   1.289   9.940   6.621 -0.0821 -0.2963 -0.1008
  848POPE   D2A12668   1.170   9.950   7.064  0.2078 -0.0647  0.3367
  848POPE   C3A12669   0.986  10.446   7.232  0.0288  0.2140  0.0143
  848POPE   C4A12670   0.931  10.586   7.561  0.1155 -0.1401 -0.3123
  848POPE   C1B12671   1.858   9.453   7.108 -0.1161 -0.2943 -0.3497
  848POPE   C2B12672   1.806   9.374   7.546  0.3249 -0.1723  0.0447
  848POPE   C3B12673   1.934   9.519   7.895  0.1192  0.1578  0.1366
  848POPE   C4B12674   1.902   9.901   8.128 -0.1596  0.1576 -0.1935
  849POPE   NH312675   0.074  10.294   5.982  0.0138 -0.0574  0.0866
  849POPE   PO412676   0.497  10.277   5.857  0.0196 -0.1684 -0.3951
  849POPE   GL112677   0.478  10.223   6.331 -0.1896  0.1103 -0.2469
  849POPE   GL212678   0.373  10.464   6.427  0.2724  0.0698  0.0115
  849POPE   C1A12679   0.361  10.035   6.615 -0.0403  0.1401  0.0141
  849POPE   D2A12680   0.296  10.052   6.938 -0.1216 -0.0747 -0.0569
  849POPE   C3A12681   0.529   9.934   7.325 -0.1668  0.0717  0.1669
  849POPE   C4A12682   0.878  10.059   7.499 -0.0110 -0.2063  0.2465
  849POPE   C1B12683   0.346  10.562   6.825  0.1061 -0.0790 -0.3589
  849POPE   C2B12684   0.476  10.416   7.263  0.3339  0.0106  0.1773
  849POPE   C3B12685   0.482  10.360   7.633  0.0567  0.0359 -0.1107
  849POPE   C4B12686   0.354  10.509   7.983 -0.1182 -0.0266  0.0980
  850POPE   NH312687   2.541   7.101   5.608 -0.0490 -0.0349  0.2077
  850POPE   PO412688   2.301   7.433   5.634 -0.2029 -0.4556 -0.0948
  850POPE   GL112689   2.258   7.405   6.092  0.1697  0.0050  0.2085
  850POPE   GL212690   2.063   7.669   6.139  0.0797  0.3064 -0.0680
  850POPE   C1A12691   2.535   7.654   6.405  0.1741  0.3748 -0.1513
  850POPE   D2A12692   3.016   7.801   6.296 -0.0179 -0.4199  0.0324
  850POPE   C3A12693   3.165   8.277   6.376 -0.1055 -0.1987  0.2506
  850POPE   C4A12694   3.217   8.315   6.797  0.3279  0.0036  0.0267
  850POPE   C1B12695   2.073   7.564   6.565  0.3963  0.1691  0.2915
  850POPE   C2B12696   1.938   7.393   6.972 -0.1612 -0.1097  0.2200
  850POPE   C3B12697   2.080   7.269   7.391  0.0413  0.2978 -0.0634
  850POPE   C4B12698   2.206   7.094   7.802  0.1836 -0.0459 -0.2112
  851POPE   NH312699  14.829   1.809   5.886 -0.0416  0.1489 -0.1285
  851POPE   PO412700  14.463   2.067   5.884 -0.1809  0.0204  0.1832
  851POPE   GL112701  14.328   1.861   6.287  0.1902  0.0763  0.0459
  851POPE   GL212702  14.670   1.797   6.337  0.1128  0.1765 -0.3811
  851POPE   C1A12703  14.282   1.704   6.613  0.0601 -0.0920  0.0735
  851POPE   D2A12704  14.260   1.680   7.091  0.0509 -0.0072  0.0188
  851POPE   C3A12705  13.885   1.597   7.224  0.1781  0.2914  0.1355
  851POPE   C4A12706  13.812   1.650   7.678 -0.0449 -0.0147 -0.2339
  851POPE   C1B12707  14.759   1.742   6.714  0.0390 -0.0979  0.2574
  851POPE   C2B12708  14.688   1.908   7.149 -0.0586  0.0003 -0.0623
  851POPE   C3B12709  14.828   2.168   7.475  0.0782  0.0658 -0.0374
  851POPE   C4B12710  14.485   2.411   7.639  0.0821  0.4039 -0.0274
  852POPE   NH312711  10.920   4.332   6.231  0.1373  0.0923  0.1016
  852POPE   PO412712  10.513   4.148   6.285 -0.1415 -0.0191 -0.1773
  852POPE   GL112713  10.275   4.224   6.658 -0.2073  0.1395 -0.2449
  852POPE   GL212714   9.954   4.181   6.557 -0.0343  0.0548  0.2110
  852POPE   C1A12715  10.219   4.392   7.053 -0.0409 -0.1092 -0.2484
  852POPE   D2A12716  10.226   4.456   7.508  0.2767 -0.1430 -0.0974
  852POPE   C3A12717  10.245   4.283   7.803  0.2368  0.0806  0.1384
  852POPE   C4A12718  10.525   3.948   7.914 -0.0265  0.0999 -0.1880
  852POPE   C1B12719   9.914   4.021   6.931 -0.0765  0.3225  0.1133
  852POPE   C2B12720   9.848   4.144   7.306  0.0684 -0.0282  0.1027
  852POPE   C3B12721   9.725   4.240   7.767  0.0609 -0.1802  0.1540
  852POPE   C4B12722   9.423   4.304   8.121 -0.0586  0.0020 -0.1736
  853POPE   NH312723   8.426   0.300   6.298 -0.0169 -0.0662 -0.1099
  853POPE   PO412724   8.825   0.204   6.319 -0.0485  0.2241 -0.0530
  853POPE   GL112725   8.840   0.031   6.654  0.2219 -0.2850  0.0763
  853POPE   GL212726   9.027  -0.118   6.737  0.1370 -0.0301  0.1954
  853POPE   C1A12727   8.691   0.078   7.083  0.2073  0.0787 -0.3057
  853POPE   D2A12728   8.350   0.132   7.463 -0.0702  0.0346 -0.1701
  853POPE   C3A12729   8.497   0.257   7.893 -0.0494 -0.4512  0.0813
  853POPE   C4A12730   8.253   0.474   8.267 -0.0615  0.0312  0.0155
  853POPE   C1B12731   8.989  -0.410   7.078 -0.1223  0.3020  0.2274
  853POPE   C2B12732   9.010  -0.519   7.573 -0.1685 -0.1355 -0.1653
  853POPE   C3B12733   9.100  -0.692   7.921 -0.0319  0.0684 -0.1749
  853POPE   C4B12734   9.213  -0.886   8.383 -0.1982  0.2644 -0.0255
  854POPE   NH312735   4.299  11.731   5.531 -0.2432 -0.0582  0.1589
  854POPE   PO412736   4.123  11.851   5.850 -0.1201  0.0567 -0.0997
  854POPE   GL112737   4.347  11.923   6.228 -0.0297 -0.0409  0.1749
  854POPE   GL212738   4.494  11.737   6.377  0.0476  0.3257  0.0356
  854POPE   C1A12739   4.111  11.877   6.691 -0.3442 -0.1894  0.1773
  854POPE   D2A12740   4.011  12.017   7.085 -0.1498 -0.0003 -0.0682
  854POPE   C3A12741   3.800  11.860   7.446 -0.1507 -0.0458  0.2201
  854POPE   C4A12742   3.938  11.723   7.810 -0.0449  0.1317 -0.1660
  854POPE   C1B12743   4.519  11.526   6.735  0.0352 -0.0393 -0.1185
  854POPE   C2B12744   4.577  11.697   7.122  0.0105 -0.0545 -0.0954
  854POPE   C3B12745   4.457  11.749   7.583  0.0722  0.3306 -0.0734
  854POPE   C4B12746   4.309  12.055   7.881  0.0602 -0.1311  0.1368
  855POPE   NH312747  14.036  11.959   5.647  0.1345  0.0322  0.2476
  855POPE   PO412748  14.018  11.604   5.855 -0.2881  0.0872  0.1924
  855POPE   GL112749  14.306  11.629   6.311  0.3450  0.1770 -0.1650
  855POPE   GL212750  14.438  11.872   6.378 -0.0002  0.2744 -0.0488
  855POPE   C1A12751  14.481  11.561   6.792 -0.2336  0.2412  0.0035
  855POPE   D2A12752  14.468  11.700   7.194  0.0653  0.2342 -0.0507
  855POPE   C3A12753  14.553  11.885   7.474  0.0383  0.1251  0.0403
  855POPE   C4A12754  14.528  11.839   7.912 -0.0681 -0.1325 -0.0397
  855POPE   C1B12755  14.533  12.038   6.715 -0.0604  0.2371 -0.0727
  855POPE   C2B12756  14.475  12.210   7.074  0.0900  0.1313  0.1273
  855POPE   C3B12757  14.534  12.374   7.426  0.2852 -0.0133  0.0271
  855POPE   C4B12758  14.474  12.303   7.849 -0.1147 -0.1520  0.2796
  856POPE   NH312759  10.471  16.754   6.340 -0.1789  0.3147  0.0658
  856POPE   PO412760  10.124  16.714   6.194  0.1691  0.0202  0.0944
  856POPE   GL112761  10.118  16.492   6.564  0.0122 -0.0411  0.0690
  856POPE   GL212762  10.184  16.670   6.861  0.0760  0.3809  0.1137
  856POPE   C1A12763  10.154  16.181   6.775  0.1868  0.2628 -0.1902
  856POPE   D2A12764  10.130  16.204   7.328 -0.1872 -0.0871  0.1142
  856POPE   C3A12765  10.160  16.354   7.716 -0.1765 -0.1563  0.2172
  856POPE   C4A12766  10.323  16.190   8.117  0.0258 -0.0961  0.0735
  856POPE   C1B12767  10.204  16.696   7.314 -0.0527 -0.0922  0.1304
  856POPE   C2B12768  10.391  16.866   7.655  0.2586 -0.3217 -0.1517
  856POPE   C3B12769  10.839  16.929   7.772 -0.0258  0.0126  0.2067
  856POPE   C4B12770  11.201  16.998   7.725  0.0289 -0.0471  0.0020
  857POPE   NH312771  11.249   1.359   5.639 -0.3734  0.1061  0.0694
  857POPE   PO412772  10.894   1.214   5.702  0.1623 -0.2213 -0.0242
  857POPE   GL112773  11.052   1.203   6.111 -0.1039 -0.3788  0.2502
  857POPE   GL212774  11.376   0.949   6.046  0.1794  0.0059  0.1342
  857POPE   C1A12775  10.980   1.257   6.544 -0.0161  0.1357 -0.1376
  857POPE   D2A12776  11.202   0.976   6.949  0.2416 -0.2081  0.1410
  857POPE   C3A12777  11.199   1.246   7.305  0.2463  0.1298  0.0402
  857POPE   C4A12778  11.052   1.380   7.670  0.2233  0.0998 -0.1304
  857POPE   C1B12779  11.487   1.111   6.410 -0.2236  0.3942  0.1132
  857POPE   C2B12780  11.472   1.395   6.767  0.0111  0.2236 -0.1118
  857POPE   C3B12781  11.204   1.655   6.913 -0.2559 -0.1323 -0.3790
  857POPE   C4B12782  10.944   1.926   6.808  0.0180  0.0945  0.1228
  858POPE   NH312783  16.090   9.958   6.041 -0.0877 -0.2289 -0.1300
  858POPE   PO412784  15.647   9.892   6.199 -0.1073 -0.0029  0.1540
  858POPE   GL112785  15.960   9.966   6.533 -0.0039  0.0147  0.1958
  858POPE   GL212786  15.869   9.724   6.719 -0.1249  0.0553  0.0593
  858POPE   C1A12787  16.054  10.174   6.949 -0.2300  0.0512 -0.0317
  858POPE   D2A12788  16.052  10.076   7.335 -0.3870 -0.0445  0.0442
  858POPE   C3A12789  16.239  10.262   7.626  0.1069  0.0142  0.0638
  858POPE   C4A12790  16.493  10.465   7.776 -0.0407  0.1751 -0.0071
  858POPE   C1B12791  15.922   9.521   7.058 -0.1174 -0.0392  0.0919
  858POPE   C2B12792  15.821   9.593   7.451  0.2874  0.0157  0.1929
  858POPE   C3B12793  15.720   9.644   7.881  0.2572  0.2679  0.2163
  858POPE   C4B12794  15.791   9.592   8.252 -0.3110 -0.0958  0.3228
  859POPE   NH312795   0.104   3.197   5.564  0.0435  0.1334  0.0451
  859POPE   PO412796   0.445   3.476   5.651  0.0578 -0.2728 -0.1415
  859POPE   GL112797   0.276   3.625   6.044 -0.0348 -0.2664 -0.3450
  859POPE   GL212798   0.560   3.538   6.163 -0.1572 -0.0383  0.1325
  859POPE   C1A12799   0.048   3.704   6.424 -0.2743 -0.1274  0.0590
  859POPE   D2A12800   0.102   3.629   6.852 -0.2627  0.0705 -0.2098
  859POPE   C3A12801  -0.077   3.585   7.242  0.0915  0.0448  0.4100
  859POPE   C4A12802  -0.198   3.835   7.576 -0.3156  0.0149 -0.0930
  859POPE   C1B12803   0.555   3.507   6.591 -0.1764  0.1319  0.0929
  859POPE   C2B12804   0.791   3.360   6.888  0.0662  0.2458 -0.1887
  859POPE   C3B12805   0.872   3.444   7.325  0.1263 -0.0400 -0.0386
  859POPE   C4B12806   0.941   3.611   7.751  0.1121 -0.1197 -0.0721
  860POPE   NH312807  12.561  13.006   6.042 -0.1918 -0.1182 -0.1895
  860POPE   PO412808  12.955  12.848   6.085  0.2990 -0.0374 -0.1527
  860POPE   GL112809  13.040  13.130   6.344 -0.2098  0.0018 -0.2549
  860POPE   GL212810  13.106  13.468   6.309 -0.0390  0.0420  0.1411
  860POPE   C1A12811  13.085  13.127   6.736 -0.0337  0.2181 -0.1275
  860POPE   D2A12812  13.153  13.227   7.218 -0.1576  0.1164 -0.0347
  860POPE   C3A12813  13.296  13.513   7.400 -0.2099 -0.3104 -0.0030
  860POPE   C4A12814  13.457  13.636   7.782 -0.2057  0.1033 -0.4001
  860POPE   C1B12815  13.356  13.532   6.598 -0.3186 -0.1597  0.4232
  860POPE   C2B12816  13.606  13.431   6.963 -0.0121 -0.0191  0.0975
  860POPE   C3B12817  13.693  13.709   7.209 -0.3734  0.0918 -0.2130
  860POPE   C4B12818  13.884  14.005   7.553  0.0556  0.2874 -0.0086
  861POPE   NH312819   6.888  12.362   5.345 -0.0939 -0.0968 -0.1424
  861POPE   PO412820   6.896  12.734   5.446 -0.1921 -0.1709 -0.2256
  861POPE   GL112821   6.707  12.847   5.819  0.0912 -0.0066  0.2689
  861POPE   GL212822   6.498  12.662   5.911 -0.1360 -0.2325 -0.0553
  861POPE   C1A12823   6.776  13.208   6.107  0.2702  0.1260 -0.0712
  861POPE   D2A12824   6.916  13.411   6.535 -0.0940  0.2323 -0.3428
  861POPE   C3A12825   7.249  13.236   6.792  0.0087 -0.0447 -0.0781
  861POPE   C4A12826   7.233  13.084   7.190 -0.2365 -0.0788  0.3969
  861POPE   C1B12827   6.742  12.500   6.199  0.0180  0.1257 -0.3701
  861POPE   C2B12828   6.822  12.310   6.487  0.1161  0.1127  0.1296
  861POPE   C3B12829   6.683  12.048   6.790 -0.0120 -0.0097 -0.1250
  861POPE   C4B12830   6.435  11.914   7.121  0.2047 -0.0307  0.0797
  862POPE   NH312831  15.378  16.239   6.198  0.1357  0.0311 -0.0025
  862POPE   PO412832  15.626  15.923   6.179 -0.1085 -0.0612  0.1153
  862POPE   GL112833  15.340  15.809   6.477  0.2519 -0.1448  0.0550
  862POPE   GL212834  15.087  15.995   6.519 -0.0103  0.1318  0.1570
  862POPE   C1A12835  15.411  15.680   6.944 -0.1620  0.0962 -0.2153
  862POPE   D2A12836  15.472  15.569   7.376 -0.1498 -0.0441  0.2457
  862POPE   C3A12837  15.264  15.293   7.644  0.1242  0.0766  0.1316
  862POPE   C4A12838  15.185  15.210   8.111  0.0550 -0.1053 -0.0757
  862POPE   C1B12839  15.020  16.041   6.941 -0.1800  0.1012  0.1996
  862POPE   C2B12840  15.082  15.864   7.420 -0.0524  0.0832 -0.0460
  862POPE   C3B12841  14.858  15.973   7.770 -0.2270  0.1460 -0.1397
  862POPE   C4B12842  15.010  16.178   7.987  0.2124  0.2302  0.1237
  863POPE   NH312843   5.826  12.046   5.607 -0.0468  0.2056  0.1443
  863POPE   PO412844   5.620  11.707   5.428 -0.0184 -0.0891  0.1428
  863POPE   GL112845   5.601  11.571   5.890 -0.0245 -0.1005  0.1124
  863POPE   GL212846   5.220  11.501   5.962 -0.2414 -0.0830 -0.0855
  863POPE   C1A12847   5.803  11.490   6.377  0.2189  0.2182  0.0504
  863POPE   D2A12848   5.904  11.274   6.670  0.5458  0.0550 -0.0268
  863POPE   C3A12849   6.175  11.245   7.010  0.1344  0.2626  0.1286
  863POPE   C4A12850   6.421  11.398   7.294  0.1443  0.0283  0.2388
  863POPE   C1B12851   5.307  11.673   6.355 -0.0711  0.1163  0.2953
  863POPE   C2B12852   5.527  11.733   6.786 -0.4204 -0.2031 -0.1087
  863POPE   C3B12853   5.590  11.843   7.222  0.0188  0.2040 -0.0528
  863POPE   C4B12854   5.409  11.704   7.553 -0.0349  0.1326 -0.0620
  864POPE   NH312855  15.979  11.064   5.882 -0.0359 -0.0910 -0.1016
  864POPE   PO412856  16.012  10.739   5.772  0.2385 -0.0394 -0.1531
  864POPE   GL112857  16.182  10.749   6.213  0.0667 -0.1711  0.1958
  864POPE   GL212858  16.541  10.719   6.270 -0.0967  0.0848  0.2190
  864POPE   C1A12859  16.189  10.903   6.590 -0.0136  0.0668  0.3130
  864POPE   D2A12860  16.277  11.005   6.977 -0.2396  0.0689 -0.0969
  864POPE   C3A12861  16.563  11.240   7.178 -0.1670  0.0640  0.0765
  864POPE   C4A12862  16.518  11.371   7.551  0.2396  0.0762  0.1512
  864POPE   C1B12863  16.692  10.717   6.712 -0.1942 -0.1331  0.0957
  864POPE   C2B12864  16.982  10.697   7.095  0.0809  0.1671  0.1427
  864POPE   C3B12865  17.252  10.798   7.378  0.0369 -0.1052  0.0451
  864POPE   C4B12866  17.672  10.868   7.616  0.4217 -0.1671  0.0860
  865POPE   NH312867   7.622   5.854   5.651 -0.0468  0.0104  0.0584
  865POPE   PO412868   7.998   5.689   5.972 -0.0668  0.2330  0.1288
  865POPE   GL112869   7.991   5.515   6.341  0.3978 -0.0967 -0.1820
  865POPE   GL212870   7.858   5.134   6.294  0.0748 -0.0277  0.2012
  865POPE   C1A12871   8.183   5.627   6.720 -0.0569  0.0749 -0.1958
  865POPE   D2A12872   8.398   6.026   7.064 -0.0077 -0.1132 -0.2215
  865POPE   C3A12873   8.246   6.128   7.435 -0.1750  0.2654  0.0224
  865POPE   C4A12874   8.076   6.066   7.959 -0.0724 -0.1688 -0.3255
  865POPE   C1B12875   7.954   5.176   6.705  0.1183 -0.1163  0.1587
  865POPE   C2B12876   8.035   5.251   7.129 -0.0149 -0.0162 -0.2923
  865POPE   C3B12877   8.008   5.170   7.536 -0.1510 -0.2800 -0.0447
  865POPE   C4B12878   8.134   5.168   7.980 -0.0324  0.1092 -0.2344
  866POPE   NH312879  10.640   9.436   5.355 -0.1533 -0.1145  0.1670
  866POPE   PO412880  10.194   9.431   5.562 -0.1304  0.1453 -0.1739
  866POPE   GL112881  10.058   9.745   5.814 -0.0664 -0.0595 -0.1696
  866POPE   GL212882  10.300   9.843   6.069 -0.0383  0.3372 -0.0702
  866POPE   C1A12883   9.842   9.571   6.215  0.1255 -0.1529 -0.2079
  866POPE   D2A12884   9.701   9.395   6.562  0.1942  0.2092 -0.0182
  866POPE   C3A12885   9.707   9.441   6.941 -0.1929  0.1089 -0.0359
  866POPE   C4A12886   9.609   9.774   7.059 -0.2424  0.1780 -0.0150
  866POPE   C1B12887  10.208   9.745   6.512 -0.2844  0.0133 -0.0353
  866POPE   C2B12888  10.140   9.771   6.905  0.2667  0.2853  0.0064
  866POPE   C3B12889  10.149   9.900   7.372 -0.0226 -0.1098  0.0094
  866POPE   C4B12890   9.725   9.857   7.586 -0.0692 -0.0039 -0.0615
  867POPE   NH312891   9.764   8.242   5.799 -0.2264  0.3090 -0.3426
  867POPE   PO412892   9.312   8.211   5.776 -0.0234  0.2431  0.1798
  867POPE   GL112893   9.149   8.472   6.043  0.0362  0.0855 -0.2230
  867POPE   GL212894   9.161   8.813   5.972  0.1929 -0.0395 -0.2911
  867POPE   C1A12895   8.999   8.448   6.575 -0.0823 -0.1023  0.0887
  867POPE   D2A12896   9.140   8.188   6.918  0.3906 -0.0701  0.0475
  867POPE   C3A12897   9.258   8.411   7.280 -0.1679 -0.1792  0.1184
  867POPE   C4A12898   9.241   8.505   7.684  0.1721 -0.0713 -0.1343
  867POPE   C1B12899   9.207   9.233   6.241  0.0002 -0.0331  0.2855
  867POPE   C2B12900   9.229   9.310   6.607 -0.0375 -0.2050 -0.4690
  867POPE   C3B12901   9.222   9.497   7.033  0.0803  0.2119  0.0428
  867POPE   C4B12902   9.340   9.570   7.481 -0.0394  0.0036 -0.2807
  868POPE   NH312903  16.027   9.503   6.279 -0.0363  0.2176 -0.0533
  868POPE   PO412904  16.417   9.450   6.249  0.0527 -0.2486  0.2629
  868POPE   GL112905  16.364   9.412   6.654  0.0463  0.1071  0.1802
  868POPE   GL212906  16.446   9.724   6.651 -0.4479 -0.4155  0.1364
  868POPE   C1A12907  16.492   9.326   7.077 -0.4248  0.2298 -0.1142
  868POPE   D2A12908  16.726   9.234   7.532 -0.2008 -0.3351 -0.3747
  868POPE   C3A12909  16.497   9.455   7.880  0.0377  0.2259 -0.4429
  868POPE   C4A12910  16.293   9.592   8.203  0.0454  0.0499 -0.0782
  868POPE   C1B12911  16.392   9.808   7.012  0.0782  0.0253  0.0214
  868POPE   C2B12912  16.318   9.621   7.434 -0.1085 -0.1650  0.2534
  868POPE   C3B12913  16.188   9.819   7.828  0.0206 -0.0136  0.0633
  868POPE   C4B12914  15.891  10.091   8.007 -0.1526  0.2273 -0.5278
  869POPE   NH312915  11.488   7.060   5.817 -0.0203 -0.2227 -0.2258
  869POPE   PO412916  11.850   6.908   5.777  0.1513  0.0580 -0.0760
  869POPE   GL112917  11.825   7.188   6.211  0.1677 -0.1233  0.2022
  869POPE   GL212918  11.484   7.236   6.328  0.1572  0.0118  0.3360
  869POPE   C1A12919  12.012   7.211   6.613  0.0421  0.2799 -0.0929
  869POPE   D2A12920  12.064   7.311   7.053 -0.1373 -0.1221  0.0378
  869POPE   C3A12921  11.739   7.276   7.320  0.1921 -0.2115 -0.0278
  869POPE   C4A12922  11.388   7.092   7.503  0.2522 -0.0615  0.0443
  869POPE   C1B12923  11.200   7.056   6.654 -0.1011 -0.0401  0.0764
  869POPE   C2B12924  11.077   7.149   7.031 -0.1244 -0.0399 -0.1621
  869POPE   C3B12925  10.881   7.177   7.382 -0.2319  0.0357 -0.2583
  869POPE   C4B12926  10.723   7.420   7.660  0.2762  0.0006 -0.1513
  870POPE   NH312927  13.793  16.504   6.144  0.0916 -0.0488  0.0898
  870POPE   PO412928  13.289  16.387   6.099 -0.0692 -0.2688  0.0199
  870POPE   GL112929  13.415  16.294   6.514  0.0733 -0.0806  0.1154
  870POPE   GL212930  13.668  16.426   6.605  0.0778 -0.2338 -0.1077
  870POPE   C1A12931  13.301  16.416   6.973  0.1227  0.0232  0.0379
  870POPE   D2A12932  13.221  16.578   7.319 -0.0366  0.0784  0.2050
  870POPE   C3A12933  13.023  16.343   7.619  0.1284 -0.0238  0.1722
  870POPE   C4A12934  12.505  16.214   7.657  0.0077  0.2234  0.0491
  870POPE   C1B12935  13.781  16.602   6.991  0.0490 -0.1484  0.1457
  870POPE   C2B12936  13.656  16.877   7.329  0.0179 -0.1706  0.1980
  870POPE   C3B12937  13.799  16.931   7.750  0.1148  0.2214  0.2500
  870POPE   C4B12938  13.793  16.818   8.243  0.1645  0.1474 -0.1651
  871YOPE   NH312939  16.270   0.028   5.742  0.1163  0.4290 -0.0747
  871YOPE   PO412940  16.456   0.435   5.580  0.1521 -0.0528 -0.0006
  871YOPE   GL112941  16.346   0.424   5.985 -0.1833  0.1039 -0.1094
  871YOPE   GL212942  16.560   0.543   6.180  0.0669  0.0721 -0.0941
  871YOPE   C1A12943  16.120   0.277   6.425 -0.1803 -0.2088  0.0212
  871YOPE   D2A12944  16.348   0.326   6.713 -0.0990  0.2286 -0.2285
  871YOPE   C3A12945  16.647   0.487   6.763  0.3373 -0.0112 -0.0326
  871YOPE   C4A12946  16.908   0.651   7.013  0.0096 -0.0170  0.0536
  871YOPE   C1B12947  16.346   0.828   6.475  0.0589 -0.1857  0.0956
  871YOPE   C2B12948  16.427   0.850   6.931  0.0193  0.1063  0.3592
  871YOPE   D3B12949  16.527   0.698   7.283 -0.0463 -0.1527  0.2441
  871YOPE   C4B12950  16.971   0.694   7.508  0.2853 -0.0100 -0.0582
  872YOPE   NH312951  11.059   6.354   5.887  0.2007  0.0472  0.2227
  872YOPE   PO412952  11.336   6.058   5.768  0.1420 -0.0073  0.0065
  872YOPE   GL112953  11.628   6.034   6.034  0.0650  0.1078 -0.0978
  872YOPE   GL212954  11.921   6.303   5.857 -0.2287  0.2051  0.0597
  872YOPE   C1A12955  11.897   5.854   6.365  0.1148 -0.2830 -0.1840
  872YOPE   D2A12956  11.966   5.806   6.789  0.0395  0.0254  0.3016
  872YOPE   C3A12957  11.955   5.957   7.202  0.0809  0.1492  0.0305
  872YOPE   C4A12958  11.950   6.308   7.423 -0.0764  0.0577  0.1819
  872YOPE   C1B12959  11.941   6.345   6.294  0.1426 -0.0434  0.1640
  872YOPE   C2B12960  11.653   6.211   6.639  0.1125 -0.2494  0.3653
  872YOPE   D3B12961  11.704   6.459   6.997  0.0230  0.1657  0.3082
  872YOPE   C4B12962  11.555   6.610   7.390 -0.1427 -0.0537  0.1679
  873YOPE   NH312963   6.357  16.259   5.893 -0.0334 -0.0402  0.1178
  873YOPE   PO412964   6.293  15.936   6.149  0.1285 -0.0073 -0.0822
  873YOPE   GL112965   6.554  15.932   6.455 -0.2488  0.2293 -0.2165
  873YOPE   GL212966   6.929  15.994   6.533 -0.0230  0.0724 -0.0486
  873YOPE   C1A12967   6.417  15.892   6.833  0.2267  0.3434 -0.2019
  873YOPE   D2A12968   6.344  16.092   7.085  0.0170  0.1317 -0.0775
  873YOPE   C3A12969   6.287  15.935   7.439 -0.0087 -0.1905  0.2768
  873YOPE   C4A12970   6.039  15.721   7.767  0.1721 -0.1819  0.0088
  873YOPE   C1B12971   6.887  15.948   6.958  0.0843  0.0948 -0.2630
  873YOPE   C2B12972   6.744  16.003   7.404 -0.4337 -0.1813  0.3545
  873YOPE   D3B12973   6.583  16.197   7.770 -0.0101  0.2062 -0.1682
  873YOPE   C4B12974   6.207  16.359   8.024 -0.0284 -0.3842 -0.1382
  874YOPE   NH312975  14.455   6.175   5.516  0.2845 -0.0638  0.2583
  874YOPE   PO412976  14.903   6.154   5.674 -0.0196 -0.1412 -0.2211
  874YOPE   GL112977  14.719   5.785   5.741 -0.0979  0.2502  0.0322
  874YOPE   GL212978  14.304   5.655   5.648 -0.0946 -0.0257 -0.0431
  874YOPE   C1A12979  14.769   5.659   6.085  0.1114  0.0244 -0.0311
  874YOPE   D2A12980  14.657   5.351   6.380  0.0285 -0.0560  0.1299
  874YOPE   C3A12981  14.648   5.228   6.799  0.1031  0.0348 -0.2326
  874YOPE   C4A12982  14.746   5.349   7.267 -0.0091 -0.1483 -0.0117
  874YOPE   C1B12983  14.285   5.560   6.103  0.0730 -0.0489 -0.2049
  874YOPE   C2B12984  14.175   5.386   6.640 -0.0439 -0.0399 -0.1471
  874YOPE   D3B12985  14.272   5.282   7.087  0.1643 -0.0279  0.1741
  874YOPE   C4B12986  14.347   4.987   7.447  0.0038  0.1880  0.0172
  875YOPE   NH312987   0.484   9.167   5.879  0.2179 -0.0811 -0.0760
  875YOPE   PO412988   0.765   8.850   5.811  0.1268 -0.2184  0.2801
  875YOPE   GL112989   0.842   9.018   6.224 -0.0463 -0.0379  0.0748
  875YOPE   GL212990   0.937   8.810   6.434  0.1306 -0.1338  0.0798
  875YOPE   C1A12991   0.524   9.022   6.569  0.0882 -0.2931  0.1577
  875YOPE   D2A12992   0.427   8.633   6.716  0.1526 -0.3511 -0.1360
  875YOPE   C3A12993   0.407   8.613   7.228  0.0417  0.0972  0.0315
  875YOPE   C4A12994   0.723   8.549   7.599 -0.0206  0.1126 -0.3241
  875YOPE   C1B12995   1.031   8.622   6.889  0.2924 -0.1433  0.2925
  875YOPE   C2B12996   1.122   8.332   7.240  0.1622 -0.1904 -0.1468
  875YOPE   D3B12997   1.265   8.116   7.659 -0.1941 -0.1242  0.3662
  875YOPE   C4B12998   1.461   7.785   7.968  0.1276  0.0510  0.1411
  876YOPE   NH312999   8.752  17.820   6.255  0.0890 -0.2238  0.1896
  876YOPE   PO413000   8.363  18.006   6.235  0.2034 -0.0747  0.3736
  876YOPE   GL113001   8.372  18.065   6.643 -0.2699 -0.1257  0.4103
  876YOPE   GL213002   8.278  18.411   6.750 -0.0307  0.1260 -0.0063
  876YOPE   C1A13003   8.157  18.000   7.000  0.6586  0.0907  0.2079
  876YOPE   D2A13004   8.460  17.777   7.282  0.0820 -0.2198 -0.2318
  876YOPE   C3A13005   8.603  17.985   7.710  0.2214  0.0796  0.0934
  876YOPE   C4A13006   8.880  17.946   8.097 -0.1764  0.2750  0.1338
  876YOPE   C1B13007   8.015  18.456   7.088 -0.2641 -0.0241  0.3205
  876YOPE   C2B13008   8.040  18.692   7.410  0.0668 -0.0916  0.5280
  876YOPE   D3B13009   8.313  18.873   7.857  0.1114  0.2043 -0.0184
  876YOPE   C4B13010   8.211  19.143   8.168  0.0391  0.1248  0.0222
  877YOPE   NH313011  11.181  15.717   5.823  0.0510  0.1797 -0.1495
  877YOPE   PO413012  11.244  15.946   6.106  0.1279  0.2240  0.0064
  877YOPE   GL113013  11.319  16.012   6.538  0.1216 -0.0147 -0.3203
  877YOPE   GL213014  11.233  16.376   6.607  0.0036 -0.1708 -0.0536
  877YOPE   C1A13015  11.430  15.922   6.873 -0.0458 -0.0315  0.2866
  877YOPE   D2A13016  11.456  15.778   7.237  0.0732  0.1032  0.0350
  877YOPE   C3A13017  11.590  15.954   7.625 -0.0787 -0.0307  0.2222
  877YOPE   C4A13018  11.775  15.786   8.036 -0.0772 -0.1716  0.1200
  877YOPE   C1B13019  11.110  16.291   6.964  0.0834 -0.1903  0.1754
  877YOPE   C2B13020  11.200  16.233   7.281 -0.0319  0.1252 -0.1196
  877YOPE   D3B13021  11.029  16.059   7.754 -0.0425  0.0916  0.2489
  877YOPE   C4B13022  11.211  15.996   8.225 -0.1259 -0.0904 -0.4364
  878YOPE   NH313023  14.869   7.210   5.569 -0.1627 -0.0645 -0.3200
  878YOPE   PO413024  15.014   7.129   6.053  0.2372  0.0966 -0.1933
  878YOPE   GL113025  14.895   6.842   6.368 -0.1661  0.3594  0.1877
  878YOPE   GL213026  14.789   6.615   6.265 -0.1136  0.1690 -0.0126
  878YOPE   C1A13027  15.007   6.810   6.798 -0.0280  0.1089  0.2044
  878YOPE   D2A13028  15.032   6.661   7.325 -0.0619  0.1644 -0.0229
  878YOPE   C3A13029  15.128   7.072   7.627  0.0732  0.0747 -0.2554
  878YOPE   C4A13030  15.144   7.436   7.859  0.1245  0.0653  0.0902
  878YOPE   C1B13031  14.761   6.397   6.618 -0.1791 -0.1080  0.4488
  878YOPE   C2B13032  14.742   6.327   7.063  0.0552  0.0902 -0.0206
  878YOPE   D3B13033  14.598   6.401   7.498 -0.0905 -0.1744  0.2396
  878YOPE   C4B13034  14.492   6.364   7.907  0.4005 -0.1901  0.1158
  879YOPE   NH313035   7.444   0.091   6.212 -0.3619 -0.0644  0.1533
  879YOPE   PO413036   7.063   0.294   6.124  0.4798 -0.1153  0.0385
  879YOPE   GL113037   6.897   0.017   6.468  0.1147  0.0618  0.0595
  879YOPE   GL213038   7.018  -0.148   6.594 -0.2776 -0.0302  0.0164
  879YOPE   C1A13039   6.650   0.094   6.867 -0.1484  0.2681 -0.1994
  879YOPE   D2A13040   6.585   0.183   7.349 -0.0229 -0.2949  0.1908
  879YOPE   C3A13041   6.832   0.006   7.723  0.1551 -0.3115 -0.1849
  879YOPE   C4A13042   7.042  -0.169   8.090  0.2660  0.0659 -0.0804
  879YOPE   C1B13043   7.095  -0.098   6.967  0.1753  0.0734  0.1100
  879YOPE   C2B13044   7.133   0.139   7.353  0.0182  0.1270  0.1142
  879YOPE   D3B13045   7.004   0.459   7.594  0.0122  0.2404 -0.3109
  879YOPE   C4B13046   6.960   0.666   7.952  0.1775  0.1724 -0.2383
  880YOPE   NH313047   0.706  16.734   6.259  0.1044 -0.1677 -0.0916
  880YOPE   PO413048   0.627  17.113   6.186  0.0561  0.0177 -0.1666
  880YOPE   GL113049   0.677  17.115   6.601  0.0939 -0.1277 -0.1329
  880YOPE   GL213050   0.977  17.346   6.623 -0.0547 -0.1423  0.0368
  880YOPE   C1A13051   0.572  16.916   6.955 -0.0388 -0.0955 -0.0055
  880YOPE   D2A13052   0.505  16.688   7.273 -0.0950  0.3084  0.0556
  880YOPE   C3A13053   0.683  16.756   7.580 -0.0152 -0.2485 -0.0203
  880YOPE   C4A13054   0.867  16.973   7.895 -0.1718  0.0498 -0.1295
  880YOPE   C1B13055   0.912  17.178   7.036  0.1704  0.0418  0.1546
  880YOPE   C2B13056   1.181  17.209   7.329 -0.1989 -0.0309 -0.0021
  880YOPE   D3B13057   1.158  17.395   7.736 -0.0760  0.1379 -0.1460
  880YOPE   C4B13058   0.980  17.529   8.144  0.2517 -0.1105  0.1148
  881YOPE   NH313059  15.192   5.148   5.291  0.0142 -0.5333 -0.1796
  881YOPE   PO413060  15.159   5.664   5.470 -0.1205  0.1283  0.3603
  881YOPE   GL113061  15.071   5.408   5.763  0.1568  0.0479  0.0288
  881YOPE   GL213062  15.272   5.568   5.997 -0.0631 -0.0323  0.0115
  881YOPE   C1A13063  14.661   5.244   5.865  0.3079 -0.1616  0.3822
  881YOPE   D2A13064  14.242   5.171   5.855 -0.0813  0.2092 -0.2259
  881YOPE   C3A13065  13.872   5.206   6.132 -0.1488 -0.0980 -0.2438
  881YOPE   C4A13066  13.711   5.352   6.472 -0.1203  0.1294 -0.0251
  881YOPE   C1B13067  15.426   5.704   6.362  0.0433  0.2000  0.2319
  881YOPE   C2B13068  15.652   6.038   6.692  0.4732 -0.2091  0.0535
  881YOPE   D3B13069  15.526   6.010   7.052  0.1716 -0.2287 -0.0844
  881YOPE   C4B13070  15.695   5.931   7.465  0.0180  0.0182 -0.0582
  882YOPE   NH313071   4.189   7.558   5.917 -0.1087  0.1782 -0.0122
  882YOPE   PO413072   4.114   7.942   5.837 -0.1833 -0.1504  0.1924
  882YOPE   GL113073   4.120   7.888   6.284 -0.1514 -0.0420 -0.3130
  882YOPE   GL213074   3.938   7.646   6.394  0.1146 -0.1337  0.1475
  882YOPE   C1A13075   4.120   8.083   6.712  0.0003  0.0806  0.4114
  882YOPE   D2A13076   4.022   8.209   7.040  0.2429 -0.0194 -0.2874
  882YOPE   C3A13077   3.522   8.186   7.146 -0.2367  0.0517 -0.0033
  882YOPE   C4A13078   3.296   7.902   7.263 -0.0523 -0.4075  0.0873
  882YOPE   C1B13079   3.817   7.787   6.861  0.0661  0.0136  0.1087
  882YOPE   C2B13080   3.827   7.794   7.240  0.1141  0.1764  0.0505
  882YOPE   D3B13081   3.789   8.101   7.529 -0.0968  0.1696 -0.1232
  882YOPE   C4B13082   3.768   8.192   7.981 -0.0821 -0.0869  0.2277
  883YOPE   NH313083   2.770   3.664   6.044  0.0160  0.2291 -0.3766
  883YOPE   PO413084   2.425   3.656   5.694 -0.1861  0.0047 -0.0565
  883YOPE   GL113085   2.202   3.891   6.029  0.2236  0.0178 -0.1017
  883YOPE   GL213086   2.266   3.653   6.401  0.0032 -0.3199  0.0460
  883YOPE   C1A13087   1.950   4.078   6.233 -0.0408 -0.2480  0.0516
  883YOPE   D2A13088   1.769   4.004   6.614 -0.1693  0.0194  0.3018
  883YOPE   C3A13089   1.860   3.748   6.963  0.2326 -0.1571  0.4241
  883YOPE   C4A13090   1.762   3.839   7.434 -0.2049  0.0997  0.0791
  883YOPE   C1B13091   2.266   3.490   6.796 -0.0127 -0.0030  0.1425
  883YOPE   C2B13092   2.377   3.329   7.195  0.0743 -0.0473 -0.1929
  883YOPE   D3B13093   2.624   3.173   7.506  0.1527 -0.3028  0.2171
  883YOPE   C4B13094   2.641   2.953   7.773 -0.0348  0.0330 -0.0676
  884YOPE   NH313095  11.137  13.908   5.986  0.3982  0.1237 -0.0054
  884YOPE   PO413096  11.364  13.588   5.766 -0.1181 -0.0145 -0.0972
  884YOPE   GL113097  11.667  13.645   6.144 -0.0653  0.1876 -0.1097
  884YOPE   GL213098  11.510  13.856   6.300  0.2201 -0.1257 -0.0318
  884YOPE   C1A13099  11.962  13.683   6.549  0.1376  0.0070  0.1421
  884YOPE   D2A13100  12.081  13.550   6.906 -0.0204  0.4991 -0.0873
  884YOPE   C3A13101  12.073  13.717   7.250 -0.0605  0.0548 -0.2186
  884YOPE   C4A13102  12.102  13.889   7.666  0.3001  0.1620  0.0102
  884YOPE   C1B13103  11.371  13.788   6.667  0.0395 -0.1678  0.2422
  884YOPE   C2B13104  11.256  13.741   7.076 -0.3792 -0.0539 -0.4227
  884YOPE   D3B13105  11.199  13.947   7.516  0.1108 -0.1353 -0.1385
  884YOPE   C4B13106  11.504  13.834   7.960  0.0847  0.2101  0.0382
  885YOPE   NH313107   3.656   2.715   5.844  0.2341  0.0259 -0.2124
  885YOPE   PO413108   4.015   2.641   6.145 -0.3604  0.0497  0.1484
  885YOPE   GL113109   3.696   2.391   6.226  0.2604 -0.0617  0.0677
  885YOPE   GL213110   3.311   2.513   6.337  0.1446  0.0250 -0.1365
  885YOPE   C1A13111   3.460   2.113   6.539  0.1277 -0.1658  0.1349
  885YOPE   D2A13112   3.253   1.836   6.830  0.2367 -0.2848 -0.0127
  885YOPE   C3A13113   3.309   1.936   7.184  0.2510 -0.1537  0.2306
  885YOPE   C4A13114   3.250   1.871   7.604 -0.0144  0.1567 -0.1573
  885YOPE   C1B13115   3.491   2.644   6.743 -0.3061 -0.0199  0.0353
  885YOPE   C2B13116   3.371   2.698   7.118 -0.1144  0.1349  0.3353
  885YOPE   D3B13117   3.029   2.718   7.215 -0.0368 -0.1651  0.1986
  885YOPE   C4B13118   2.721   2.617   7.459 -0.0056  0.2891  0.1219
  886YOPE   NH313119  12.741  11.638   6.292  0.1253 -0.2714 -0.0062
  886YOPE   PO413120  13.135  11.851   6.141  0.1628 -0.0221 -0.4283
  886YOPE   GL113121  13.213  11.726   6.549 -0.0422 -0.0121 -0.0127
  886YOPE   GL213122  13.479  11.438   6.513 -0.1544 -0.0049 -0.1337
  886YOPE   C1A13123  13.342  11.550   6.971 -0.0003  0.0827 -0.1266
  886YOPE   D2A13124  13.405  11.616   7.321 -0.0566  0.1774  0.0477
  886YOPE   C3A13125  13.334  11.454   7.721 -0.0843 -0.1865  0.1728
  886YOPE   C4A13126  13.196  11.435   8.121  0.1978 -0.1472 -0.0155
  886YOPE   C1B13127  13.620  11.103   6.665 -0.0409 -0.0640 -0.1469
  886YOPE   C2B13128  13.694  11.088   7.090 -0.0876  0.1092  0.0426
  886YOPE   D3B13129  13.568  11.010   7.510 -0.2438  0.0012 -0.1465
  886YOPE   C4B13130  13.562  10.917   7.974  0.0425 -0.4135  0.3418
  887YOPE   NH313131  10.533   3.646   6.259 -0.1947  0.0387 -0.0116
  887YOPE   PO413132  10.941   3.849   6.150 -0.0620 -0.0374 -0.1341
  887YOPE   GL113133  10.846   3.938   6.563  0.0921  0.0087  0.1698
  887YOPE   GL213134  10.784   3.596   6.699 -0.1237  0.1151 -0.0986
  887YOPE   C1A13135  10.713   4.057   6.949  0.3241  0.1941  0.0481
  887YOPE   D2A13136  10.634   4.270   7.346 -0.1103 -0.0173 -0.1007
  887YOPE   C3A13137  10.732   4.407   7.785 -0.3619  0.0326  0.0398
  887YOPE   C4A13138  10.590   4.474   8.197  0.0086  0.0765  0.0475
  887YOPE   C1B13139  10.806   3.547   7.151  0.0670  0.0210  0.1385
  887YOPE   C2B13140  10.708   3.656   7.555  0.0827 -0.1449 -0.0049
  887YOPE   D3B13141  10.525   3.419   7.815 -0.0151  0.0981 -0.1239
  887YOPE   C4B13142  10.211   3.414   8.150 -0.0672  0.2317 -0.0297
  888YOPE   NH313143  15.799   3.103   5.349 -0.5209 -0.0440  0.0608
  888YOPE   PO413144  16.056   3.458   5.543 -0.0619 -0.1043  0.0754
  888YOPE   GL113145  16.100   3.548   6.014  0.1450  0.3072 -0.0171
  888YOPE   GL213146  16.306   3.854   6.094  0.2300  0.0209 -0.2133
  888YOPE   C1A13147  15.883   3.491   6.401 -0.2689  0.0801  0.2039
  888YOPE   D2A13148  15.631   3.474   6.888  0.1238 -0.1595 -0.0778
  888YOPE   C3A13149  15.901   3.529   7.138 -0.0269  0.1711 -0.1193
  888YOPE   C4A13150  16.172   3.810   7.187 -0.3081 -0.3949  0.3032
  888YOPE   C1B13151  15.890   4.034   6.371 -0.0799  0.2337  0.1112
  888YOPE   C2B13152  15.441   4.064   6.516 -0.2496 -0.1039  0.4377
  888YOPE   D3B13153  15.280   3.966   6.959  0.0020 -0.0808  0.1563
  888YOPE   C4B13154  15.323   3.601   7.215 -0.0273  0.0770 -0.0662
  889YOPE   NH313155   8.739   4.982   5.958 -0.2731 -0.0788  0.1063
  889YOPE   PO413156   8.741   4.508   5.907 -0.0754  0.3294  0.1047
  889YOPE   GL113157   9.020   4.346   6.261  0.1673 -0.2034  0.1473
  889YOPE   GL213158   8.950   4.038   6.150 -0.0174 -0.1665 -0.1318
  889YOPE   C1A13159   8.885   4.268   6.672  0.0773  0.1003  0.3495
  889YOPE   D2A13160   8.874   4.039   6.921  0.1762  0.1219 -0.3450
  889YOPE   C3A13161   8.938   4.194   7.331  0.3410  0.1276 -0.2619
  889YOPE   C4A13162   8.865   3.843   7.723  0.1486  0.3016  0.0013
  889YOPE   C1B13163   8.678   3.822   6.430 -0.0680 -0.0663  0.2216
  889YOPE   C2B13164   8.569   3.591   6.879 -0.0552 -0.1239  0.3402
  889YOPE   D3B13165   8.680   3.672   7.274 -0.0055  0.0478 -0.1397
  889YOPE   C4B13166   8.256   3.681   7.520 -0.0924  0.0653 -0.0938
  890YOPE   NH313167  13.393   4.272   5.694  0.1212  0.0504 -0.1695
  890YOPE   PO413168  13.323   4.588   5.822 -0.2193  0.0920 -0.2654
  890YOPE   GL113169  13.257   4.400   6.193 -0.1028  0.0603 -0.0234
  890YOPE   GL213170  13.267   4.063   6.170 -0.1735 -0.2279 -0.1525
  890YOPE   C1A13171  13.478   4.327   6.641  0.0891 -0.1081  0.1915
  890YOPE   D2A13172  13.436   4.170   7.024  0.1039  0.4768 -0.1069
  890YOPE   C3A13173  13.670   4.287   7.348 -0.0077  0.3490  0.0601
  890YOPE   C4A13174  14.118   4.265   7.465 -0.1144  0.0356  0.0557
  890YOPE   C1B13175  13.187   3.858   6.569  0.0313  0.0798 -0.1016
  890YOPE   C2B13176  13.151   3.741   6.978 -0.0984  0.1685  0.1813
  890YOPE   D3B13177  13.409   3.771   7.382  0.1061  0.1373 -0.0415
  890YOPE   C4B13178  13.612   3.994   7.723 -0.0022  0.0635  0.0581
  891YOPE   NH313179   4.041   0.880   5.996 -0.2384  0.0728  0.0256
  891YOPE   PO413180   4.033   1.437   6.054  0.0232 -0.0191 -0.1535
  891YOPE   GL113181   4.318   1.627   6.402  0.0292 -0.0373 -0.2924
  891YOPE   GL213182   4.269   1.458   6.675  0.0506 -0.0004 -0.1530
  891YOPE   C1A13183   4.398   1.957   6.789 -0.2033 -0.2644  0.3093
  891YOPE   D2A13184   4.308   2.281   6.980  0.1008  0.0524  0.2792
  891YOPE   C3A13185   4.194   2.265   7.372 -0.0485  0.0376  0.2257
  891YOPE   C4A13186   4.316   2.171   7.739 -0.0629  0.2331 -0.0781
  891YOPE   C1B13187   4.358   1.327   7.068 -0.1353  0.1258 -0.1626
  891YOPE   C2B13188   4.443   1.288   7.553  0.2412  0.3164 -0.0278
  891YOPE   D3B13189   4.581   1.179   8.013  0.0677 -0.1250  0.3019
  891YOPE   C4B13190   4.657   1.399   8.433  0.0200 -0.1242  0.1711
  892YOPE   NH313191   6.125  10.080   5.745 -0.1288 -0.1345  0.2837
  892YOPE   PO413192   6.545  10.299   5.772  0.0880 -0.1786  0.0083
  892YOPE   GL113193   6.488  10.151   6.146 -0.1715  0.1923  0.3545
  892YOPE   GL213194   6.116  10.169   6.231 -0.0981  0.1017  0.0037
  892YOPE   C1A13195   6.631  10.039   6.562 -0.1545  0.1368  0.2961
  892YOPE   D2A13196   6.720   9.890   6.905 -0.3902 -0.1393  0.1041
  892YOPE   C3A13197   6.969  10.084   7.262 -0.0315 -0.2773  0.0947
  892YOPE   C4A13198   7.306  10.005   7.455  0.0009  0.0140  0.2700
  892YOPE   C1B13199   6.150  10.409   6.589  0.2901  0.0160 -0.2631
  892YOPE   C2B13200   6.207  10.729   6.919  0.0510 -0.2830  0.0324
  892YOPE   D3B13201   6.238  10.930   7.381 -0.0555  0.0711 -0.0889
  892YOPE   C4B13202   6.164  11.253   7.691  0.3141  0.0351  0.1223
  893YOPE   NH313203  13.033  10.762   6.060  0.0895  0.4192  0.3717
  893YOPE   PO413204  13.411  10.479   6.184  0.0619 -0.2150  0.0689
  893YOPE   GL113205  13.379  10.334   6.573  0.1287  0.0599 -0.2199
  893YOPE   GL213206  13.335  10.695   6.630  0.0949 -0.0110  0.1406
  893YOPE   C1A13207  13.354  10.157   7.069 -0.1165 -0.3073  0.2429
  893YOPE   D2A13208  13.435   9.972   7.455  0.1853 -0.2999 -0.2368
  893YOPE   C3A13209  13.226  10.053   7.790 -0.2824 -0.1124  0.0665
  893YOPE   C4A13210  13.253  10.030   8.290  0.2599 -0.1401  0.0973
  893YOPE   C1B13211  13.616  10.637   6.906  0.0659  0.3359 -0.0586
  893YOPE   C2B13212  13.872  10.566   7.245  0.2499 -0.0741  0.2040
  893YOPE   D3B13213  14.087  10.790   7.473 -0.0916 -0.0831  0.0330
  893YOPE   C4B13214  14.054  10.966   7.981 -0.0494  0.1825 -0.0213
  894YOPE   NH313215   6.428  12.818   5.256  0.1178 -0.1203  0.1990
  894YOPE   PO413216   6.428  12.415   5.394 -0.1293  0.0825  0.0006
  894YOPE   GL113217   6.489  12.102   5.592  0.0280  0.3302 -0.0349
  894YOPE   GL213218   6.303  12.116   5.843  0.1774  0.1113 -0.1568
  894YOPE   C1A13219   6.779  11.886   5.970 -0.2071 -0.0458 -0.1749
  894YOPE   D2A13220   6.718  11.836   6.383  0.1154  0.0036 -0.0257
  894YOPE   C3A13221   6.663  11.521   6.772  0.2760  0.1380  0.0387
  894YOPE   C4A13222   7.099  11.374   7.018  0.1311  0.0003  0.1090
  894YOPE   C1B13223   6.199  11.804   6.202 -0.0388 -0.0678 -0.0960
  894YOPE   C2B13224   6.179  11.685   6.696  0.0301 -0.3075  0.2753
  894YOPE   D3B13225   6.044  11.710   7.065  0.1986 -0.0612 -0.1487
  894YOPE   C4B13226   6.078  11.708   7.513  0.0537 -0.4022 -0.1329
  895YOPE   NH313227   4.802  15.739   5.902 -0.2136  0.0736  0.0838
  895YOPE   PO413228   4.506  15.501   5.942  0.2685 -0.2096  0.2870
  895YOPE   GL113229   4.195  15.469   6.275 -0.0197 -0.3162  0.2091
  895YOPE   GL213230   4.325  15.137   6.290 -0.2023 -0.1713  0.2813
  895YOPE   C1A13231   4.271  15.436   6.754  0.1899  0.1697 -0.1988
  895YOPE   D2A13232   4.274  15.413   7.223  0.1851  0.0408  0.2810
  895YOPE   C3A13233   4.214  15.255   7.642 -0.3393  0.1005 -0.1695
  895YOPE   C4A13234   4.240  14.987   8.028  0.0772  0.1937 -0.0562
  895YOPE   C1B13235   4.396  14.956   6.616  0.0956  0.0044 -0.4277
  895YOPE   C2B13236   4.243  14.928   7.039  0.1577  0.0709  0.0379
  895YOPE   D3B13237   4.425  14.893   7.366 -0.1990  0.0251 -0.0030
  895YOPE   C4B13238   4.611  14.719   7.741  0.2319 -0.0235 -0.1681
  896YOPE   NH313239  15.048   2.619   5.534 -0.0491  0.3760 -0.2830
  896YOPE   PO413240  15.375   2.821   5.320  0.2567  0.1299 -0.1007
  896YOPE   GL113241  15.467   3.101   5.708  0.2872 -0.0750  0.0233
  896YOPE   GL213242  15.371   2.882   5.970  0.3658 -0.2283  0.0246
  896YOPE   C1A13243  15.456   3.429   5.978  0.1981  0.2986 -0.0743
  896YOPE   D2A13244  15.462   3.835   5.984  0.0377 -0.0875  0.0152
  896YOPE   C3A13245  15.098   3.950   6.151  0.2190 -0.0621 -0.2589
  896YOPE   C4A13246  14.637   3.886   5.955 -0.1056 -0.0035 -0.0732
  896YOPE   C1B13247  15.331   2.514   6.225  0.2294  0.2285 -0.0241
  896YOPE   C2B13248  15.478   2.273   6.580  0.0747 -0.0809 -0.1158
  896YOPE   D3B13249  15.571   2.049   7.001 -0.2209  0.0936  0.2014
  896YOPE   C4B13250  15.862   2.156   7.369 -0.1973  0.1199 -0.1083
  897YOPE   NH313251   1.351   1.177   5.851  0.0490 -0.0879  0.2810
  897YOPE   PO413252   1.521   1.408   6.125 -0.0475 -0.0390 -0.2072
  897YOPE   GL113253   1.395   1.431   6.510  0.3207 -0.0233  0.1627
  897YOPE   GL213254   1.128   1.565   6.488 -0.0650  0.0654  0.1255
  897YOPE   C1A13255   1.510   1.446   6.932 -0.3151 -0.0288 -0.1242
  897YOPE   D2A13256   1.371   1.455   7.306  0.1883 -0.0285 -0.1503
  897YOPE   C3A13257   1.542   1.288   7.594  0.3525 -0.1306  0.1911
  897YOPE   C4A13258   1.897   1.471   7.861 -0.3790  0.0761 -0.3303
  897YOPE   C1B13259   1.026   1.644   7.000  0.2422  0.1404  0.3211
  897YOPE   C2B13260   0.999   1.800   7.356 -0.0050  0.3133 -0.2912
  897YOPE   D3B13261   0.917   2.201   7.556  0.2927 -0.3101  0.1283
  897YOPE   C4B13262   0.882   2.653   7.637  0.1895  0.0333  0.0886
  898YOPE   NH313263   7.058   1.551   6.152 -0.0938  0.0741 -0.0067
  898YOPE   PO413264   7.025   1.949   6.081 -0.2437  0.0332 -0.1648
  898YOPE   GL113265   6.852   2.091   6.455  0.2057  0.0156  0.0064
  898YOPE   GL213266   6.741   2.269   6.533 -0.1888  0.0999 -0.0085
  898YOPE   C1A13267   6.985   2.094   6.924 -0.0053 -0.0805  0.1968
  898YOPE   D2A13268   7.085   2.191   7.323  0.0047  0.2265 -0.3631
  898YOPE   C3A13269   7.432   2.440   7.533  0.1377  0.0150 -0.0576
  898YOPE   C4A13270   7.523   2.593   7.922 -0.0317 -0.1618  0.0574
  898YOPE   C1B13271   6.445   2.398   6.853  0.1080  0.2541  0.0178
  898YOPE   C2B13272   6.593   2.447   7.285  0.4051  0.1038  0.4004
  898YOPE   D3B13273   6.147   2.285   7.471  0.1082  0.0338  0.0975
  898YOPE   C4B13274   5.831   1.864   7.635 -0.1932  0.2134  0.1442
  899YOPE   NH313275   4.764   6.506   5.756 -0.1849 -0.0189  0.0821
  899YOPE   PO413276   4.443   6.632   5.917 -0.0320 -0.0342  0.1020
  899YOPE   GL113277   4.670   6.965   6.219  0.0868  0.1194  0.1793
  899YOPE   GL213278   4.543   7.228   6.155  0.1995 -0.0533  0.0750
  899YOPE   C1A13279   4.619   6.841   6.664  0.1556 -0.1769 -0.1770
  899YOPE   D2A13280   4.506   6.808   7.110  0.1636 -0.0985  0.3147
  899YOPE   C3A13281   4.409   7.041   7.431  0.0823 -0.0555  0.3623
  899YOPE   C4A13282   4.228   7.181   7.736 -0.0142 -0.1962 -0.0169
  899YOPE   C1B13283   4.642   7.296   6.600 -0.1262  0.2167  0.2923
  899YOPE   C2B13284   4.613   7.301   7.072 -0.0528 -0.4014 -0.2560
  899YOPE   D3B13285   4.474   7.514   7.483 -0.0863 -0.0258 -0.3109
  899YOPE   C4B13286   4.524   7.916   7.799 -0.3477 -0.1046  0.1571
  900YOPE   NH313287  10.114   4.817   5.881  0.1082 -0.3046  0.0031
  900YOPE   PO413288  10.536   4.581   6.015 -0.1488 -0.1506  0.0044
  900YOPE   GL113289  10.644   4.710   6.447 -0.1813 -0.0070  0.0927
  900YOPE   GL213290  11.009   4.916   6.536  0.2714 -0.0711  0.5463
  900YOPE   C1A13291  10.656   4.586   6.909 -0.2432 -0.2134 -0.1476
  900YOPE   D2A13292  10.637   4.780   7.285  0.1138  0.1317  0.1566
  900YOPE   C3A13293  10.462   4.879   7.634 -0.1203  0.1757 -0.0748
  900YOPE   C4A13294  10.481   5.133   8.040 -0.4371  0.0371  0.0637
  900YOPE   C1B13295  11.071   4.870   6.900 -0.0850  0.2854 -0.0520
  900YOPE   C2B13296  11.083   5.064   7.281 -0.1206 -0.3381  0.0342
  900YOPE   D3B13297  11.369   5.219   7.565 -0.3603 -0.0781 -0.2129
  900YOPE   C4B13298  11.314   5.736   7.649 -0.1754 -0.2048 -0.0994
  901YOPE   NH313299   9.922  15.855   6.042  0.2672 -0.0846  0.0463
  901YOPE   PO413300   9.538  15.854   6.313  0.1154  0.0566 -0.2100
  901YOPE   GL113301   9.671  15.910   6.727 -0.0378  0.1011  0.0200
  901YOPE   GL213302   9.676  16.279   6.704  0.1276 -0.0251 -0.3145
  901YOPE   C1A13303   9.851  15.766   7.093  0.1036  0.0981  0.0050
  901YOPE   D2A13304   9.889  15.714   7.502  0.0553 -0.1213 -0.1515
  901YOPE   C3A13305   9.858  15.841   7.856 -0.1825  0.1962 -0.0697
  901YOPE   C4A13306   9.815  15.835   8.219  0.1649  0.2531  0.1380
  901YOPE   C1B13307   9.681  16.282   7.102 -0.1110  0.3035  0.2165
  901YOPE   C2B13308   9.677  16.192   7.537 -0.3356 -0.2057 -0.0851
  901YOPE   D3B13309   9.744  16.299   8.058 -0.3618  0.0077 -0.0074
  901YOPE   C4B13310  10.011  16.461   8.408 -0.3755 -0.2491  0.0010
  902YOPE   NH313311  11.860   1.833   5.926 -0.0567 -0.0450  0.0471
  902YOPE   PO413312  12.259   1.829   5.678  0.0313  0.1288  0.0116
  902YOPE   GL113313  12.342   2.005   6.117  0.3190  0.2461  0.3088
  902YOPE   GL213314  12.378   2.298   6.165  0.1033  0.0853  0.0367
  902YOPE   C1A13315  12.528   1.841   6.556 -0.1454  0.1388 -0.1716
  902YOPE   D2A13316  12.734   1.615   6.931 -0.1571  0.4470  0.1673
  902YOPE   C3A13317  13.111   1.727   7.072  0.2892  0.2793  0.1585
  902YOPE   C4A13318  13.355   1.576   7.334  0.0652 -0.1457  0.1102
  902YOPE   C1B13319  12.548   2.372   6.523  0.2067  0.0927 -0.0907
  902YOPE   C2B13320  12.661   2.535   6.943  0.1298  0.1772 -0.0437
  902YOPE   D3B13321  12.690   2.482   7.368 -0.1662 -0.0715  0.1007
  902YOPE   C4B13322  12.680   2.250   7.778 -0.3527  0.1910  0.0232
  903YOPE   NH313323   4.501  10.913   5.726  0.0968 -0.0050 -0.1804
  903YOPE   PO413324   4.092  10.723   5.593  0.3474  0.0007  0.1245
  903YOPE   GL113325   4.276  10.635   6.068 -0.3207 -0.0522  0.1359
  903YOPE   GL213326   4.289  10.356   6.018 -0.1345  0.1627  0.2087
  903YOPE   C1A13327   4.233  10.850   6.515  0.1017 -0.0400  0.0867
  903YOPE   D2A13328   4.306  10.968   6.982 -0.2873 -0.1037 -0.0344
  903YOPE   C3A13329   4.498  10.738   7.256 -0.2727  0.2362  0.2581
  903YOPE   C4A13330   4.834  10.714   7.535  0.1644 -0.1040  0.1989
  903YOPE   C1B13331   4.311  10.382   6.521 -0.1399  0.2150  0.1379
  903YOPE   C2B13332   4.477  10.412   6.879  0.3688 -0.0749 -0.0033
  903YOPE   D3B13333   4.692  10.303   7.324  0.0176 -0.0064  0.0813
  903YOPE   C4B13334   4.833  10.220   7.719  0.1584  0.1877 -0.2267
  904YOPE   NH313335   8.219   6.490   5.592  0.2219 -0.3861 -0.1334
  904YOPE   PO413336   8.570   6.688   5.333 -0.3146  0.0070 -0.1496
  904YOPE   GL113337   8.586   6.732   5.832  0.3134  0.3389 -0.1520
  904YOPE   GL213338   8.626   6.480   6.079 -0.2419  0.1002  0.0364
  904YOPE   C1A13339   8.455   7.052   6.107  0.1444  0.2537 -0.1622
  904YOPE   D2A13340   8.293   7.371   6.565  0.1111  0.1267  0.1576
  904YOPE   C3A13341   8.303   7.526   6.940  0.0629  0.0598  0.2780
  904YOPE   C4A13342   8.362   7.519   7.345  0.1009  0.0510  0.1300
  904YOPE   C1B13343   8.765   6.323   6.508 -0.1156 -0.2509  0.0258
  904YOPE   C2B13344   8.729   6.363   6.973  0.0723  0.0733 -0.1743
  904YOPE   D3B13345   8.692   6.329   7.400  0.0739  0.2797  0.0634
  904YOPE   C4B13346   8.576   6.357   7.755 -0.1047 -0.4336  0.1503
  905YOPE   NH313347   5.068  13.686   5.708  0.1521 -0.2887  0.0872
  905YOPE   PO413348   5.478  13.493   5.665 -0.2398  0.2990 -0.0676
  905YOPE   GL113349   5.516  13.286   6.056 -0.1036  0.4186  0.3879
  905YOPE   GL213350   5.647  13.001   6.137  0.1750 -0.0141 -0.1374
  905YOPE   C1A13351   5.799  13.256   6.486 -0.1023  0.2773 -0.2675
  905YOPE   D2A13352   6.034  13.125   6.828 -0.2431  0.3103  0.1300
  905YOPE   C3A13353   5.823  13.192   7.135  0.2515  0.0691 -0.2891
  905YOPE   C4A13354   5.518  13.478   7.378 -0.4393 -0.1331 -0.0220
  905YOPE   C1B13355   5.493  12.799   6.508  0.1757  0.1002 -0.1580
  905YOPE   C2B13356   5.109  12.735   6.734  0.3360  0.0915  0.1589
  905YOPE   D3B13357   4.981  12.312   6.848 -0.0925 -0.3857 -0.2214
  905YOPE   C4B13358   5.118  12.031   7.152 -0.0849 -0.1733  0.3415
  906YOPE   NH313359   9.645   1.400   5.822 -0.0856  0.0415 -0.0570
  906YOPE   PO413360   9.373   1.098   6.062 -0.1463  0.0159 -0.2920
  906YOPE   GL113361   9.315   1.035   6.505 -0.0389 -0.3238 -0.0478
  906YOPE   GL213362   9.491   0.707   6.713 -0.1472  0.1585 -0.3262
  906YOPE   C1A13363   9.042   0.972   6.789  0.0634 -0.3841  0.0098
  906YOPE   D2A13364   8.939   1.121   7.218 -0.0559 -0.3086 -0.0600
  906YOPE   C3A13365   9.193   1.446   7.383  0.1464 -0.1770 -0.1645
  906YOPE   C4A13366   9.498   1.680   7.580 -0.1018 -0.3039 -0.0613
  906YOPE   C1B13367   9.232   0.714   7.169  0.0722 -0.2372 -0.3486
  906YOPE   C2B13368   9.174   0.888   7.616 -0.2228  0.0297 -0.1077
  906YOPE   D3B13369   9.198   0.860   8.094  0.0202  0.0639  0.4195
  906YOPE   C4B13370   9.101   0.818   8.438  0.3600  0.0048  0.2159
  907YOPE   NH313371  16.587  17.481   6.245 -0.1925 -0.2869 -0.1803
  907YOPE   PO413372  16.450  17.764   5.983 -0.3111 -0.2520 -0.1272
  907YOPE   GL113373  16.191  17.949   6.212  0.2380  0.0992 -0.0870
  907YOPE   GL213374  16.079  17.601   6.297 -0.2086 -0.0120  0.0099
  907YOPE   C1A13375  16.182  18.010   6.662  0.2351 -0.2342  0.0474
  907YOPE   D2A13376  15.903  18.321   7.040 -0.0880  0.1055  0.0465
  907YOPE   C3A13377  16.046  18.418   7.418 -0.1091 -0.0684  0.2705
  907YOPE   C4A13378  16.157  18.575   7.860 -0.0743  0.5054 -0.1901
  907YOPE   C1B13379  15.836  17.626   6.603 -0.0617  0.1048  0.0030
  907YOPE   C2B13380  15.865  17.733   6.984  0.0814 -0.1219 -0.1398
  907YOPE   D3B13381  16.133  17.909   7.231  0.2487  0.1717  0.0078
  907YOPE   C4B13382  16.165  18.019   7.627  0.0732 -0.0826 -0.0345
  908YOPE   NH313383   9.157  16.142   6.407  0.0384  0.1159  0.0154
  908YOPE   PO413384   9.036  15.753   6.195 -0.3381  0.0109 -0.3503
  908YOPE   GL113385   9.003  15.670   6.585 -0.3368 -0.2276 -0.2164
  908YOPE   GL213386   9.307  15.518   6.590 -0.0084  0.1515 -0.1775
  908YOPE   C1A13387   8.791  15.553   6.966 -0.1425  0.0269  0.2437
  908YOPE   D2A13388   8.621  15.792   7.355  0.3641  0.0201  0.0832
  908YOPE   C3A13389   8.693  15.615   7.723  0.1726 -0.0440 -0.0396
  908YOPE   C4A13390   8.977  15.687   8.097 -0.0926  0.0982 -0.0509
  908YOPE   C1B13391   9.419  15.547   6.990  0.1227 -0.1873  0.1829
  908YOPE   C2B13392   9.530  15.349   7.340  0.0585  0.1047  0.0096
  908YOPE   D3B13393   9.450  14.929   7.460 -0.2187  0.1552 -0.1452
  908YOPE   C4B13394   9.504  14.647   7.685 -0.0623  0.0906  0.1912
  909YOPE   NH313395  13.621   6.649   5.596  0.0453 -0.0996  0.0613
  909YOPE   PO413396  14.004   6.425   5.547 -0.2686 -0.1187  0.0065
  909YOPE   GL113397  13.899   6.437   5.998 -0.0375  0.1969 -0.2335
  909YOPE   GL213398  13.505   6.444   6.094 -0.2464  0.2970  0.0258
  909YOPE   C1A13399  14.052   6.330   6.447 -0.0785 -0.1635 -0.0066
  909YOPE   D2A13400  14.271   6.395   6.826  0.1080 -0.1182 -0.1803
  909YOPE   C3A13401  14.198   6.164   7.235  0.0950  0.0901  0.0568
  909YOPE   C4A13402  14.036   6.075   7.689 -0.1329  0.0672  0.1266
  909YOPE   C1B13403  13.586   6.197   6.504  0.2334 -0.0284 -0.1540
  909YOPE   C2B13404  13.772   6.159   6.880  0.0977 -0.2245 -0.1803
  909YOPE   D3B13405  13.656   6.153   7.358  0.0710 -0.2891  0.0342
  909YOPE   C4B13406  13.477   6.127   7.793  0.0577 -0.0683  0.0017
  910YOPE   NH313407  15.360   6.551   6.076 -0.1689  0.1449 -0.4163
  910YOPE   PO413408  15.782   6.683   6.213 -0.1043  0.2246 -0.0467
  910YOPE   GL113409  15.448   6.690   6.519 -0.4773  0.2655 -0.1258
  910YOPE   GL213410  15.317   6.418   6.533  0.1593  0.0379 -0.3049
  910YOPE   C1A13411  15.437   6.929   6.846 -0.2609 -0.1166  0.2138
  910YOPE   D2A13412  15.405   7.110   7.206 -0.0166  0.2118  0.1259
  910YOPE   C3A13413  15.799   7.023   7.507  0.1498 -0.1700 -0.0546
  910YOPE   C4A13414  16.035   7.048   7.895 -0.1602 -0.1005  0.0447
  910YOPE   C1B13415  15.231   6.360   6.941  0.0826 -0.1169  0.1924
  910YOPE   C2B13416  15.165   6.166   7.372 -0.0993 -0.2864 -0.2913
  910YOPE   D3B13417  15.261   6.246   7.778  0.3046  0.2467 -0.0315
  910YOPE   C4B13418  15.612   6.215   7.926 -0.4359  0.1022 -0.0610
  911YOPE   NH313419   7.103  17.765   6.232  0.0146 -0.1370  0.4564
  911YOPE   PO413420   7.568  17.813   6.371 -0.0461 -0.0554  0.0363
  911YOPE   GL113421   7.445  17.651   6.702 -0.2549  0.1200 -0.1890
  911YOPE   GL213422   7.710  17.797   6.851 -0.0788 -0.2527 -0.0464
  911YOPE   C1A13423   7.307  17.682   7.150 -0.0053 -0.1687 -0.0104
  911YOPE   D2A13424   7.372  17.893   7.474 -0.2717 -0.0016 -0.1374
  911YOPE   C3A13425   7.525  17.876   7.825 -0.0026 -0.1401 -0.0871
  911YOPE   C4A13426   7.622  18.125   8.224 -0.1027  0.0563  0.0070
  911YOPE   C1B13427   7.817  17.759   7.312 -0.1619 -0.1156 -0.1081
  911YOPE   C2B13428   8.038  17.783   7.673  0.0973  0.1977  0.1457
  911YOPE   D3B13429   8.332  17.548   8.005  0.0300  0.0156  0.0331
  911YOPE   C4B13430   8.254  17.434   8.383 -0.1125 -0.1849  0.2768
  912YOPE   NH313431  10.983   4.787   5.920  0.0988  0.1478  0.0637
  912YOPE   PO413432  10.939   5.217   5.993 -0.0613 -0.0934 -0.1071
  912YOPE   GL113433  10.937   5.431   6.403  0.0098 -0.1652 -0.1165
  912YOPE   GL213434  10.660   5.391   6.584  0.1223 -0.3471  0.1852
  912YOPE   C1A13435  11.106   5.479   6.863 -0.0898  0.0214 -0.0637
  912YOPE   D2A13436  11.156   5.549   7.235  0.0513 -0.2344 -0.1602
  912YOPE   C3A13437  10.822   5.733   7.559 -0.0562  0.1892  0.0753
  912YOPE   C4A13438  10.961   5.807   8.004  0.3573 -0.0419 -0.0314
  912YOPE   C1B13439  10.682   5.163   7.004  0.2496  0.1755 -0.0977
  912YOPE   C2B13440  10.491   5.340   7.402  0.4430 -0.0564  0.2762
  912YOPE   D3B13441  10.375   5.467   7.674 -0.2127  0.2535  0.0206
  912YOPE   C4B13442  10.464   5.758   7.920 -0.0751 -0.0657 -0.0633
  913YOPE   NH313443   7.069   5.269   5.793  0.2627  0.2958 -0.5690
  913YOPE   PO413444   7.318   4.943   5.820 -0.1823  0.1543 -0.2126
  913YOPE   GL113445   7.218   4.917   6.268  0.3341  0.0352  0.1149
  913YOPE   GL213446   7.045   4.568   6.266  0.0550 -0.1193 -0.0448
  913YOPE   C1A13447   7.145   4.949   6.727  0.1658  0.0414 -0.5003
  913YOPE   D2A13448   6.944   5.050   7.043  0.0312 -0.2639 -0.0301
  913YOPE   C3A13449   7.022   4.950   7.474  0.1298  0.1476  0.0976
  913YOPE   C4A13450   6.990   4.884   7.947 -0.2111  0.2214 -0.1875
  913YOPE   C1B13451   6.789   4.603   6.529 -0.2425  0.0667  0.0875
  913YOPE   C2B13452   6.576   4.704   6.948  0.1689 -0.0024  0.0973
  913YOPE   D3B13453   6.771   4.468   7.220  0.0877  0.3444 -0.1499
  913YOPE   C4B13454   6.899   4.139   7.485 -0.1921 -0.0112  0.0708
  914YOPE   NH313455  16.591   5.381   5.704 -0.1095 -0.0208  0.0585
  914YOPE   PO413456  16.613   4.977   5.559 -0.2436 -0.2279  0.1462
  914YOPE   GL113457  16.776   4.980   6.022  0.0243 -0.1110 -0.1495
  914YOPE   GL213458  16.719   4.631   6.172 -0.1281 -0.1156 -0.0480
  914YOPE   C1A13459  16.621   5.121   6.582 -0.0957  0.3332  0.1307
  914YOPE   D2A13460  16.583   4.966   6.965 -0.1432  0.0669  0.2078
  914YOPE   C3A13461  16.318   4.663   6.995 -0.0074 -0.1517 -0.0678
  914YOPE   C4A13462  16.175   4.268   6.892 -0.0321  0.0875  0.1199
  914YOPE   C1B13463  16.776   4.614   6.618 -0.2438  0.0048  0.2523
  914YOPE   C2B13464  16.767   4.479   7.030 -0.5141 -0.2724  0.1570
  914YOPE   D3B13465  16.509   4.265   7.270  0.3521  0.0208 -0.1724
  914YOPE   C4B13466  16.466   3.951   7.641  0.0804 -0.1510  0.0010
  915YOPE   NH313467   3.403  15.853   5.814 -0.0475  0.0008  0.0370
  915YOPE   PO413468   3.026  15.510   5.862 -0.3698 -0.3809 -0.0170
  915YOPE   GL113469   3.058  15.783   6.260 -0.1488  0.0691 -0.1697
  915YOPE   GL213470   3.289  15.544   6.357  0.0172 -0.0311  0.0027
  915YOPE   C1A13471   2.971  15.842   6.677 -0.0312  0.2664  0.3195
  915YOPE   D2A13472   2.878  16.074   7.025 -0.1534 -0.0278 -0.1847
  915YOPE   C3A13473   2.410  16.124   7.128  0.2655 -0.1768 -0.0300
  915YOPE   C4A13474   1.996  16.322   7.158  0.0090  0.0871 -0.0458
  915YOPE   C1B13475   3.232  15.382   6.737  0.0148 -0.4914  0.3057
  915YOPE   C2B13476   3.283  15.444   7.239  0.1206  0.2422 -0.0355
  915YOPE   D3B13477   3.181  15.167   7.573 -0.2927  0.4188 -0.1447
  915YOPE   C4B13478   2.887  15.023   7.843  0.1102  0.0743 -0.0181
  916YOPE   NH313479   5.696   6.337   6.024 -0.0338 -0.0446 -0.2182
  916YOPE   PO413480   5.614   6.812   5.900 -0.3346  0.1272 -0.1127
  916YOPE   GL113481   5.449   7.089   6.200  0.0653 -0.0956  0.2076
  916YOPE   GL213482   5.524   7.281   6.455  0.0663  0.0286 -0.0402
  916YOPE   C1A13483   5.108   6.985   6.554  0.0275  0.1917 -0.0195
  916YOPE   D2A13484   4.976   6.985   7.005 -0.0186  0.2429 -0.1710
  916YOPE   C3A13485   4.907   6.565   7.148 -0.1382 -0.0978  0.0342
  916YOPE   C4A13486   4.835   6.318   7.467 -0.0754 -0.0077 -0.0859
  916YOPE   C1B13487   5.368   7.267   6.888  0.0777 -0.1126 -0.0883
  916YOPE   C2B13488   5.325   7.257   7.317  0.0921  0.1745  0.1363
  916YOPE   D3B13489   5.290   7.256   7.735  0.0651  0.3087 -0.0847
  916YOPE   C4B13490   5.140   7.155   8.199  0.1007  0.2256 -0.0046
  917YOPE   NH313491   3.400  13.999   5.851 -0.1878  0.0495 -0.2193
  917YOPE   PO413492   3.749  13.913   5.845 -0.0125 -0.1094  0.1300
  917YOPE   GL113493   3.754  14.008   6.265  0.0009 -0.2539  0.1053
  917YOPE   GL213494   3.475  13.928   6.368 -0.0509 -0.1700  0.0472
  917YOPE   C1A13495   3.692  14.261   6.684  0.1802  0.1208 -0.0316
  917YOPE   D2A13496   3.681  14.333   7.056  0.2311 -0.1364 -0.2027
  917YOPE   C3A13497   3.750  14.230   7.424  0.3783  0.1413 -0.3531
  917YOPE   C4A13498   3.831  14.263   7.922  0.0226 -0.0336  0.0892
  917YOPE   C1B13499   3.436  13.881   6.821  0.2849  0.2361 -0.0375
  917YOPE   C2B13500   3.486  13.882   7.205 -0.1614  0.0527 -0.0313
  917YOPE   D3B13501   3.605  13.841   7.677  0.0398 -0.2657 -0.1677
  917YOPE   C4B13502   3.547  13.813   8.078 -0.2123  0.0165  0.2461
  918YOPE   NH313503  10.009  11.919   5.620 -0.0245  0.1144  0.0785
  918YOPE   PO413504   9.967  11.533   5.580 -0.0004  0.2030 -0.2473
  918YOPE   GL113505  10.238  11.518   5.932 -0.2798 -0.2713 -0.1404
  918YOPE   GL213506  10.048  11.285   6.030 -0.2439  0.1170 -0.2235
  918YOPE   C1A13507  10.206  11.627   6.343  0.2202 -0.2894  0.1463
  918YOPE   D2A13508  10.367  11.603   6.730  0.1710 -0.0182 -0.3935
  918YOPE   C3A13509  10.140  11.539   7.142  0.1368  0.0009 -0.2542
  918YOPE   C4A13510  10.079  11.495   7.587  0.4059 -0.0253  0.2751
  918YOPE   C1B13511  10.006  11.195   6.455  0.0614 -0.1496 -0.0146
  918YOPE   C2B13512   9.971  11.116   6.917  0.0408 -0.2429  0.2057
  918YOPE   D3B13513  10.195  10.897   7.332 -0.2076  0.2558  0.0663
  918YOPE   C4B13514  10.290  10.682   7.733  0.1760 -0.1774  0.1703
  919YOPE   NH313515  17.442   6.331   6.152 -0.0174 -0.3091 -0.1859
  919YOPE   PO413516  17.912   6.358   6.196  0.1816  0.0663 -0.0530
  919YOPE   GL113517  17.726   6.459   6.559  0.1403 -0.1772 -0.2639
  919YOPE   GL213518  17.621   6.277   6.768  0.0048 -0.2196 -0.1184
  919YOPE   C1A13519  17.981   6.516   6.954  0.2062 -0.0697  0.1265
  919YOPE   D2A13520  18.451   6.504   7.121 -0.0718 -0.0474 -0.1665
  919YOPE   C3A13521  18.725   6.353   7.509  0.1201 -0.1214 -0.1058
  919YOPE   C4A13522  19.046   6.458   7.836  0.0434  0.2602 -0.2161
  919YOPE   C1B13523  17.646   6.196   7.164  0.1163  0.0919  0.0946
  919YOPE   C2B13524  17.695   6.462   7.459  0.0693  0.0932 -0.1118
  919YOPE   D3B13525  17.571   6.644   7.901  0.0791 -0.1467 -0.3794
  919YOPE   C4B13526  17.500   6.712   8.316 -0.1803 -0.0649  0.0193
  920YOPE   NH313527  15.485   7.107   6.217  0.1008 -0.0479  0.2492
  920YOPE   PO413528  15.616   7.637   6.164 -0.2225  0.0132 -0.1967
  920YOPE   GL113529  15.706   7.379   6.624  0.1161  0.0194  0.0065
  920YOPE   GL213530  15.895   7.051   6.564 -0.1364  0.0927 -0.2370
  920YOPE   C1A13531  15.859   7.407   7.087 -0.0767 -0.0150  0.0395
  920YOPE   D2A13532  15.952   7.479   7.473 -0.2690 -0.5319  0.1621
  920YOPE   C3A13533  15.771   7.483   7.850 -0.1402  0.2624 -0.1088
  920YOPE   C4A13534  15.942   7.666   8.223  0.1819  0.0123 -0.2918
  920YOPE   C1B13535  15.895   6.898   6.933  0.0756 -0.1630 -0.2379
  920YOPE   C2B13536  16.144   6.661   7.328 -0.0389 -0.1377 -0.2052
  920YOPE   D3B13537  16.111   6.588   7.768 -0.1630 -0.0405 -0.1849
  920YOPE   C4B13538  15.799   6.594   8.125 -0.0572 -0.2345 -0.0477
  921YOPE   NH313539   7.214  14.697   6.028  0.1962  0.0940 -0.1596
  921YOPE   PO413540   7.359  14.438   5.684  0.1181  0.0494 -0.1284
  921YOPE   GL113541   7.448  14.248   6.082 -0.3454  0.2737 -0.3469
  921YOPE   GL213542   7.236  14.008   5.991 -0.0318  0.0398  0.0382
  921YOPE   C1A13543   7.505  14.305   6.523 -0.1345  0.0993  0.1276
  921YOPE   D2A13544   7.260  14.273   6.903 -0.0521  0.1517 -0.3100
  921YOPE   C3A13545   7.341  14.173   7.425 -0.0479 -0.0485 -0.0281
  921YOPE   C4A13546   7.174  14.098   7.835  0.0278 -0.1072  0.0963
  921YOPE   C1B13547   7.205  13.820   6.463  0.1740 -0.1510  0.3238
  921YOPE   C2B13548   7.061  13.828   6.818 -0.1738  0.1423 -0.0136
  921YOPE   D3B13549   6.893  13.960   7.112  0.0510  0.3084 -0.0131
  921YOPE   C4B13550   6.866  14.103   7.398 -0.1689  0.0043 -0.1761
  922YOPE   NH313551   6.690   3.796   6.198  0.2077 -0.0285  0.1924
  922YOPE   PO413552   6.697   4.256   6.087 -0.3573 -0.0583  0.1076
  922YOPE   GL113553   7.081   4.094   6.394 -0.1713 -0.2123 -0.0600
  922YOPE   GL213554   7.394   3.984   6.391  0.2149 -0.0711  0.1675
  922YOPE   C1A13555   7.198   4.307   6.764  0.1518 -0.1555  0.3564
  922YOPE   D2A13556   7.244   4.620   7.160  0.3691 -0.1008  0.0385
  922YOPE   C3A13557   7.191   4.494   7.625  0.0832 -0.0177  0.2423
  922YOPE   C4A13558   7.367   4.529   8.007 -0.3389  0.1132 -0.1002
  922YOPE   C1B13559   7.315   3.765   6.771  0.3350 -0.0458  0.1332
  922YOPE   C2B13560   7.541   3.437   7.027  0.0127  0.1151  0.1744
  922YOPE   D3B13561   7.792   3.301   7.382 -0.1113  0.1640  0.0744
  922YOPE   C4B13562   7.975   3.354   7.785  0.0675  0.1477 -0.1194
  923YOPE   NH313563   1.390  12.663   5.558  0.2507 -0.0531 -0.2559
  923YOPE   PO413564   1.176  12.256   5.596 -0.0561 -0.0054  0.2580
  923YOPE   GL113565   1.288  12.436   6.050 -0.2240  0.0794  0.3004
  923YOPE   GL213566   1.419  12.722   6.026 -0.4072 -0.0536 -0.2529
  923YOPE   C1A13567   1.243  12.285   6.525  0.1155 -0.0597  0.0554
  923YOPE   D2A13568   1.227  12.386   6.967 -0.0142  0.0476 -0.1941
  923YOPE   C3A13569   1.059  12.031   7.287  0.3869  0.1562  0.0367
  923YOPE   C4A13570   1.083  12.108   7.701  0.1001  0.0756 -0.1534
  923YOPE   C1B13571   1.750  12.517   6.227  0.0661  0.3718  0.0483
  923YOPE   C2B13572   2.171  12.456   6.532 -0.0768  0.1711  0.1067
  923YOPE   D3B13573   2.197  12.448   6.960 -0.0138 -0.5220 -0.2655
  923YOPE   C4B13574   2.061  12.295   7.312  0.0955  0.1143  0.2336
  924YOPE   NH313575   1.184   5.968   6.113 -0.1110  0.0071 -0.1269
  924YOPE   PO413576   0.916   6.215   5.970 -0.4181 -0.2021 -0.1347
  924YOPE   GL113577   0.805   6.349   6.451  0.0688 -0.2547  0.0371
  924YOPE   GL213578   0.571   6.675   6.449  0.1803  0.0854 -0.1772
  924YOPE   C1A13579   0.862   6.280   6.815 -0.1112 -0.0759 -0.1859
  924YOPE   D2A13580   0.871   6.152   7.163 -0.3695  0.3612 -0.2250
  924YOPE   C3A13581   1.151   6.334   7.433 -0.0585  0.1033 -0.0247
  924YOPE   C4A13582   1.622   6.462   7.512 -0.0567 -0.0154  0.1766
  924YOPE   C1B13583   0.653   6.743   6.823 -0.1153  0.0323 -0.0479
  924YOPE   C2B13584   0.670   6.804   7.296  0.1733 -0.2222 -0.2403
  924YOPE   D3B13585   0.746   6.867   7.695  0.0353  0.0561  0.0640
  924YOPE   C4B13586   0.904   6.976   8.121  0.0214 -0.1938  0.3471
  925YOPE   NH313587  10.959  13.314   5.878  0.2320  0.1106 -0.1704
  925YOPE   PO413588  11.327  13.104   6.009 -0.0828 -0.1219 -0.2540
  925YOPE   GL113589  11.229  13.031   6.420  0.0827 -0.0446  0.1728
  925YOPE   GL213590  11.140  12.744   6.357 -0.1090  0.1096 -0.1932
  925YOPE   C1A13591  11.222  13.007   6.888  0.2408  0.0303 -0.0464
  925YOPE   D2A13592  11.185  13.121   7.237 -0.1704  0.3179 -0.1609
  925YOPE   C3A13593  10.977  13.082   7.665  0.1602  0.0565  0.0490
  925YOPE   C4A13594  10.801  13.259   7.995 -0.0473 -0.0098  0.1488
  925YOPE   C1B13595  11.102  12.495   6.672  0.2642  0.1146  0.0933
  925YOPE   C2B13596  11.188  12.473   7.106 -0.2004  0.0559 -0.1744
  925YOPE   D3B13597  11.145  12.617   7.531 -0.0052 -0.0623  0.1761
  925YOPE   C4B13598  11.089  12.327   7.973 -0.2410 -0.1019  0.1210
  926YOPE   NH313599  12.196  13.746   5.997 -0.0577 -0.0095  0.0003
  926YOPE   PO413600  12.229  13.318   5.968  0.0546 -0.0757  0.1119
  926YOPE   GL113601  12.099  13.222   6.447  0.0530 -0.2435  0.2763
  926YOPE   GL213602  11.754  13.153   6.473 -0.1455  0.0341 -0.0379
  926YOPE   C1A13603  12.132  13.017   6.829  0.0548  0.1431  0.1376
  926YOPE   D2A13604  12.179  13.192   7.250  0.1554 -0.1087  0.4148
  926YOPE   C3A13605  12.171  12.986   7.570 -0.0389  0.2281  0.2469
  926YOPE   C4A13606  12.209  12.757   7.967  0.4321  0.2125 -0.1538
  926YOPE   C1B13607  11.547  13.353   6.792 -0.1807  0.0780 -0.0578
  926YOPE   C2B13608  11.610  13.446   7.207 -0.2603 -0.1640  0.3555
  926YOPE   D3B13609  11.900  13.431   7.653 -0.0979  0.0700 -0.3019
  926YOPE   C4B13610  11.875  13.145   7.952 -0.0375 -0.2497  0.1451
  927YOPE   NH313611  16.910   5.975   5.982  0.2320 -0.0412 -0.2108
  927YOPE   PO413612  17.046   5.533   5.782  0.1352 -0.2108  0.2907
  927YOPE   GL113613  16.992   5.507   6.191 -0.2509  0.2329  0.1302
  927YOPE   GL213614  16.617   5.590   6.111 -0.0101  0.3246 -0.3389
  927YOPE   C1A13615  16.918   5.514   6.610  0.0280  0.3088  0.2063
  927YOPE   D2A13616  17.027   5.373   7.061 -0.0400 -0.0992  0.0896
  927YOPE   C3A13617  16.659   5.382   7.283  0.0144  0.2165  0.1983
  927YOPE   C4A13618  16.427   5.155   7.531 -0.1027  0.3178  0.2134
  927YOPE   C1B13619  16.373   5.558   6.561 -0.3206  0.3802  0.1418
  927YOPE   C2B13620  16.178   5.613   6.848  0.0788  0.3891 -0.0637
  927YOPE   D3B13621  16.027   5.842   7.075  0.0885  0.0409 -0.1213
  927YOPE   C4B13622  16.109   6.132   7.433 -0.2094 -0.2815 -0.0402
  928YOPE   NH313623   0.568  11.094   5.661 -0.0735 -0.0491 -0.0542
  928YOPE   PO413624   0.344  11.300   6.049  0.0762 -0.2116 -0.0089
  928YOPE   GL113625   0.199  11.335   6.391 -0.2564 -0.3315  0.1828
  928YOPE   GL213626  -0.117  11.524   6.381 -0.3960  0.2887 -0.1188
  928YOPE   C1A13627   0.313  11.429   6.777 -0.1334  0.2711  0.0271
  928YOPE   D2A13628   0.300  11.396   7.154  0.0942 -0.1424 -0.2711
  928YOPE   C3A13629   0.185  11.374   7.564 -0.0537 -0.1618 -0.1519
  928YOPE   C4A13630  -0.199  11.209   7.751 -0.0739  0.1857  0.0498
  928YOPE   C1B13631  -0.134  11.569   6.839  0.1375 -0.1362  0.2264
  928YOPE   C2B13632  -0.174  11.585   7.319  0.3481 -0.6087 -0.0230
  928YOPE   D3B13633  -0.222  11.719   7.750 -0.1468 -0.2948  0.1376
  928YOPE   C4B13634  -0.366  11.827   8.174  0.0587  0.2169  0.1750
  929YOPE   NH313635  11.813   4.844   6.248 -0.0382  0.2042 -0.0849
  929YOPE   PO413636  12.231   5.058   6.096  0.1793 -0.0115 -0.3022
  929YOPE   GL113637  12.191   5.070   6.518  0.2474 -0.0996 -0.1666
  929YOPE   GL213638  11.968   5.285   6.699 -0.2320  0.0307  0.0414
  929YOPE   C1A13639  12.302   4.990   7.038  0.0973  0.3014  0.0069
  929YOPE   D2A13640  12.307   5.023   7.472 -0.2344 -0.0684  0.0759
  929YOPE   C3A13641  12.586   4.766   7.762 -0.0473  0.0557 -0.3461
  929YOPE   C4A13642  12.507   4.522   8.150  0.1097  0.1156  0.0209
  929YOPE   C1B13643  12.052   5.400   7.151 -0.0807 -0.1254 -0.0461
  929YOPE   C2B13644  12.220   5.575   7.526  0.0264 -0.0379 -0.0701
  929YOPE   D3B13645  12.562   5.541   7.876 -0.3397  0.3176  0.2886
  929YOPE   C4B13646  12.809   5.454   8.259  0.0665 -0.1812  0.1802
  930YOPE   NH313647  16.145  15.908   6.305  0.0072  0.0054  0.1379
  930YOPE   PO413648  16.509  15.607   6.245 -0.1102  0.0739  0.1334
  930YOPE   GL113649  16.388  15.568   6.627 -0.1901 -0.1716  0.2657
  930YOPE   GL213650  16.438  15.824   6.690 -0.1054  0.0065 -0.6002
  930YOPE   C1A13651  16.245  15.372   6.945 -0.0728  0.0640  0.1780
  930YOPE   D2A13652  16.076  15.118   7.342  0.1535 -0.1950  0.2028
  930YOPE   C3A13653  15.687  15.109   7.491 -0.0599  0.1622  0.1457
  930YOPE   C4A13654  15.412  14.848   7.838  0.0607 -0.1415  0.3398
  930YOPE   C1B13655  16.369  15.820   7.148 -0.0720  0.2284 -0.2940
  930YOPE   C2B13656  16.400  15.502   7.415  0.0004  0.0316  0.0294
  930YOPE   D3B13657  16.183  15.235   7.841  0.0346  0.0670 -0.0424
  930YOPE   C4B13658  15.655  15.310   7.942 -0.2245  0.3742 -0.3234
  931YOPE   NH313659   2.923  11.943   5.842 -0.0001 -0.3094  0.0743
  931YOPE   PO413660   2.753  11.636   5.460  0.0593 -0.0019  0.2651
  931YOPE   GL113661   2.540  11.649   5.912  0.1358  0.4065  0.1873
  931YOPE   GL213662   2.461  11.889   6.076 -0.3168 -0.1818 -0.0510
  931YOPE   C1A13663   2.520  11.290   6.285  0.0549 -0.3816 -0.4608
  931YOPE   D2A13664   2.657  11.051   6.634  0.2026  0.0247 -0.1424
  931YOPE   C3A13665   3.055  10.959   6.794  0.3363  0.1252  0.3274
  931YOPE   C4A13666   3.240  10.915   7.187 -0.0888 -0.6505 -0.0267
  931YOPE   C1B13667   2.384  12.019   6.501  0.2727 -0.0007 -0.1521
  931YOPE   C2B13668   2.390  11.918   6.994 -0.1927 -0.0145 -0.1867
  931YOPE   D3B13669   2.347  11.932   7.464  0.0495 -0.0107  0.0350
  931YOPE   C4B13670   2.276  11.793   7.882  0.1563  0.2471  0.0187
  932YOPE   NH313671  10.233   2.745   6.051 -0.1037 -0.0099  0.2627
  932YOPE   PO413672   9.934   3.026   6.105  0.0122 -0.0860  0.0689
  932YOPE   GL113673   9.990   2.825   6.497 -0.2991  0.0828  0.0252
  932YOPE   GL213674  10.252   2.648   6.577  0.0195 -0.1293  0.1885
  932YOPE   C1A13675   9.760   2.676   6.844 -0.0614 -0.0860  0.2332
  932YOPE   D2A13676   9.450   2.621   7.239 -0.1093  0.1820 -0.0507
  932YOPE   C3A13677   9.381   2.455   7.593 -0.1538  0.0634 -0.0974
  932YOPE   C4A13678   9.178   2.401   8.030 -0.1853 -0.1218 -0.1623
  932YOPE   C1B13679  10.398   2.754   6.989 -0.0604 -0.1350  0.1223
  932YOPE   C2B13680  10.512   2.628   7.474  0.0081  0.3481  0.0120
  932YOPE   D3B13681  10.408   2.922   7.775  0.1233  0.2399  0.1313
  932YOPE   C4B13682  10.192   2.900   8.144 -0.1092  0.1229 -0.2105
  933YOPE   NH313683   1.785   7.343   5.796 -0.2790 -0.0821 -0.1350
  933YOPE   PO413684   1.363   7.700   5.767  0.1592 -0.1456 -0.0173
  933YOPE   GL113685   1.430   7.508   6.177  0.0391 -0.0754 -0.2828
  933YOPE   GL213686   1.368   7.106   6.319  0.4537  0.0037  0.1451
  933YOPE   C1A13687   1.445   7.479   6.645  0.1789 -0.0088  0.0574
  933YOPE   D2A13688   1.380   7.570   7.060  0.0880  0.0193  0.2288
  933YOPE   C3A13689   1.557   7.200   7.275  0.1504 -0.0165  0.0093
  933YOPE   C4A13690   1.689   7.002   7.607 -0.0186 -0.1534  0.2563
  933YOPE   C1B13691   1.675   7.013   6.761  0.0373 -0.0723 -0.0721
  933YOPE   C2B13692   1.887   6.797   7.145  0.0569 -0.3378 -0.1702
  933YOPE   D3B13693   2.308   6.837   7.255  0.0725  0.5767 -0.1786
  933YOPE   C4B13694   2.549   6.852   7.547  0.0376  0.1170 -0.1478
  934YOPE   NH313695  16.666   2.360   5.741  0.1416  0.0628 -0.0620
  934YOPE   PO413696  16.247   2.241   5.591  0.0154  0.0360 -0.1425
  934YOPE   GL113697  16.309   2.054   5.994  0.0538 -0.0565  0.1600
  934YOPE   GL213698  16.355   1.784   6.174  0.0431  0.0426  0.1636
  934YOPE   C1A13699  15.987   2.126   6.325  0.0276  0.0347 -0.0073
  934YOPE   D2A13700  15.952   2.232   6.712  0.0883  0.0660  0.1895
  934YOPE   C3A13701  15.709   2.512   7.009  0.0468 -0.1139 -0.0483
  934YOPE   C4A13702  15.479   2.802   6.907  0.1930 -0.1116 -0.0054
  934YOPE   C1B13703  16.473   2.073   6.541 -0.1354  0.1363  0.2643
  934YOPE   C2B13704  16.432   2.155   6.967 -0.1820  0.1914 -0.0442
  934YOPE   D3B13705  16.421   2.080   7.431  0.0717 -0.3611 -0.0490
  934YOPE   C4B13706  16.144   2.219   7.805 -0.1425 -0.0348  0.3094
  935YOPE   NH313707  10.247  13.595   5.788 -0.2860 -0.1048  0.1398
  935YOPE   PO413708  10.561  13.225   5.623  0.0556 -0.2578  0.2195
  935YOPE   GL113709  10.482  13.204   6.057 -0.0910 -0.1314 -0.0096
  935YOPE   GL213710  10.242  13.347   6.200 -0.1290 -0.2671  0.0417
  935YOPE   C1A13711  10.724  13.330   6.492 -0.3170 -0.0954 -0.0192
  935YOPE   D2A13712  10.963  13.458   6.785 -0.0864 -0.0407 -0.1919
  935YOPE   C3A13713  10.828  13.521   7.223  0.1365 -0.0993  0.2452
  935YOPE   C4A13714  10.726  13.641   7.673 -0.0013 -0.3276  0.0276
  935YOPE   C1B13715  10.136  13.184   6.531 -0.2562  0.2701 -0.0756
  935YOPE   C2B13716  10.170  13.058   6.994  0.0928 -0.2353 -0.3334
  935YOPE   D3B13717  10.214  12.845   7.377 -0.1736 -0.3495 -0.1038
  935YOPE   C4B13718  10.028  12.564   7.742 -0.0229 -0.1701  0.0773
  936YOPE   NH313719  16.898  15.838   6.015 -0.3268 -0.0254 -0.3549
  936YOPE   PO413720  17.018  15.501   6.281  0.3278 -0.0387  0.3349
  936YOPE   GL113721  16.923  15.641   6.564 -0.1258 -0.1290 -0.2417
  936YOPE   GL213722  16.909  15.955   6.552 -0.1254 -0.1743 -0.2218
  936YOPE   C1A13723  16.807  15.525   6.953 -0.2588  0.0274  0.0148
  936YOPE   D2A13724  16.903  15.515   7.431 -0.2062  0.2131  0.1111
  936YOPE   C3A13725  16.755  15.608   7.819  0.0680  0.0700  0.1981
  936YOPE   C4A13726  16.409  15.698   7.977  0.0929 -0.2782 -0.1355
  936YOPE   C1B13727  16.754  16.068   6.998 -0.0467  0.5398 -0.0809
  936YOPE   C2B13728  16.745  16.038   7.411  0.4043 -0.0097  0.0246
  936YOPE   D3B13729  16.458  16.150   7.741  0.2367  0.0864  0.0807
  936YOPE   C4B13730  16.117  16.242   8.128  0.1465  0.2826  0.0938
  937YOPE   NH313731  12.919   4.187   5.835  0.0789  0.0271  0.1114
  937YOPE   PO413732  12.745   3.761   5.866 -0.1355  0.0166 -0.0251
  937YOPE   GL113733  12.762   3.988   6.305  0.0528 -0.0194 -0.0710
  937YOPE   GL213734  12.770   4.267   6.287  0.3432  0.1467 -0.0463
  937YOPE   C1A13735  12.714   3.909   6.684 -0.1351  0.1952  0.2216
  937YOPE   D2A13736  12.613   4.118   7.128 -0.2612 -0.2082 -0.1349
  937YOPE   C3A13737  12.378   3.950   7.500 -0.1056  0.0569 -0.2400
  937YOPE   C4A13738  12.497   3.877   7.934 -0.0563  0.0153  0.1959
  937YOPE   C1B13739  12.900   4.320   6.816  0.0903  0.3690 -0.0060
  937YOPE   C2B13740  13.050   4.290   7.269 -0.0262  0.0567 -0.1888
  937YOPE   D3B13741  13.187   4.144   7.641 -0.0581 -0.0132  0.1369
  937YOPE   C4B13742  13.283   3.864   8.094 -0.0197 -0.0702 -0.1807
  938YOPE   NH313743   0.862   7.493   6.097 -0.3172 -0.1719 -0.1629
  938YOPE   PO413744   0.480   7.587   6.150 -0.3169 -0.0262 -0.2888
  938YOPE   GL113745   0.686   7.725   6.527 -0.2079 -0.1249 -0.0787
  938YOPE   GL213746   1.035   7.753   6.535 -0.1261  0.1873 -0.1553
  938YOPE   C1A13747   0.556   7.656   6.881 -0.4795  0.2449  0.0190
  938YOPE   D2A13748   0.419   7.470   7.275  0.1707  0.0317  0.0804
  938YOPE   C3A13749   0.152   7.630   7.484 -0.0516 -0.2824  0.0989
  938YOPE   C4A13750  -0.129   7.828   7.657  0.0640  0.1095  0.0578
  938YOPE   C1B13751   1.000   7.929   6.950 -0.0920  0.1639  0.0396
  938YOPE   C2B13752   1.089   7.860   7.293  0.0534 -0.4699 -0.0266
  938YOPE   D3B13753   1.275   7.525   7.592  0.3740  0.3626  0.0079
  938YOPE   C4B13754   1.377   7.264   7.833 -0.0035 -0.0885  0.1522
  939YOPE   NH313755  12.767   1.943   5.774  0.3688 -0.1347  0.4260
  939YOPE   PO413756  13.019   1.606   5.794 -0.0692  0.1381  0.1075
  939YOPE   GL113757  12.752   1.598   6.148 -0.0967  0.2264  0.0124
  939YOPE   GL213758  12.650   1.285   6.226 -0.1478 -0.0704  0.0900
  939YOPE   C1A13759  13.026   1.659   6.492  0.2594  0.2754 -0.3133
  939YOPE   D2A13760  13.407   1.602   6.508  0.1227  0.0035  0.1378
  939YOPE   C3A13761  13.599   1.607   6.834  0.2633  0.0966 -0.4317
  939YOPE   C4A13762  13.973   1.383   6.807 -0.1097  0.0548 -0.0214
  939YOPE   C1B13763  12.428   1.197   6.621 -0.0398  0.1513  0.3138
  939YOPE   C2B13764  12.412   1.214   7.008 -0.0164  0.2436  0.3383
  939YOPE   D3B13765  12.576   1.407   7.366 -0.0079 -0.0159  0.0399
  939YOPE   C4B13766  12.447   1.450   7.732 -0.0543 -0.0662 -0.1963
  940YOPE   NH313767  17.979  12.312   5.070  0.0704 -0.0003 -0.2785
  940YOPE   PO413768  18.208  12.485   5.502  0.0656 -0.0209 -0.0773
  940YOPE   GL113769  18.078  12.377   6.016 -0.0161  0.0452 -0.1561
  940YOPE   GL213770  18.353  12.287   6.175  0.2847 -0.2379 -0.2306
  940YOPE   C1A13771  17.929  12.111   6.332  0.1491  0.2191 -0.2006
  940YOPE   D2A13772  17.904  12.234   6.816 -0.1660  0.1470  0.2935
  940YOPE   C3A13773  17.954  12.113   7.214 -0.0330 -0.2443  0.3424
  940YOPE   C4A13774  17.808  12.170   7.636 -0.1000 -0.0753 -0.0747
  940YOPE   C1B13775  18.284  12.423   6.523 -0.0057 -0.0432 -0.0258
  940YOPE   C2B13776  18.357  12.443   6.978  0.1117 -0.1576 -0.2203
  940YOPE   D3B13777  18.211  12.472   7.449 -0.0887  0.1005  0.0563
  940YOPE   C4B13778  18.378  12.461   7.856 -0.0149 -0.1450  0.0488
  941POPC   NC313779  17.082   7.978   5.687 -0.1302  0.2047 -0.0399
  941POPC   PO413780  17.413   7.849   5.981  0.1488  0.0544  0.0166
  941POPC   GL113781  17.453   7.942   6.389 -0.1589  0.0891 -0.2711
  941POPC   GL213782  17.292   8.266   6.409 -0.0258 -0.3553 -0.0447
  941POPC   C1A13783  17.303   7.817   6.733 -0.1175 -0.0706  0.0778
  941POPC   D2A13784  17.300   8.079   6.931  0.1147  0.0773 -0.0828
  941POPC   C3A13785  17.662   8.333   7.073  0.2387 -0.1574  0.3118
  941POPC   C4A13786  17.898   8.277   7.476 -0.0290  0.0909 -0.0983
  941POPC   C1B13787  17.354   8.608   6.761  0.0812 -0.1527 -0.2467
  941POPC   C2B13788  17.399   8.744   7.158  0.1399 -0.1491 -0.1368
  941POPC   C3B13789  17.596   8.753   7.526  0.1476 -0.0653 -0.1154
  941POPC   C4B13790  17.638   8.602   7.830  0.3346 -0.2379  0.1373
  942POPC   NC313791   6.748  13.804   5.333 -0.0263 -0.0502 -0.1115
  942POPC   PO413792   7.097  13.954   5.383  0.0121 -0.0749  0.1518
  942POPC   GL113793   6.991  13.577   5.705  0.0787 -0.1622  0.1815
  942POPC   GL213794   7.102  13.270   5.707  0.1634  0.0398 -0.0260
  942POPC   C1A13795   6.820  13.719   6.101 -0.2260  0.0839 -0.0154
  942POPC   D2A13796   6.676  13.869   6.494 -0.3372  0.1602 -0.0153
  942POPC   C3A13797   6.574  13.655   6.873 -0.2891 -0.0237  0.0577
  942POPC   C4A13798   6.787  13.393   7.062  0.0036  0.1442  0.2346
  942POPC   C1B13799   7.225  13.403   6.143  0.0251  0.0016  0.0160
  942POPC   C2B13800   7.545  13.299   6.425 -0.1806 -0.1862 -0.3114
  942POPC   C3B13801   7.858  13.265   6.813 -0.0703  0.3341 -0.1423
  942POPC   C4B13802   7.945  13.344   7.311 -0.0428  0.1708  0.1114
  943POPC   NC313803   6.146   8.804   5.712  0.0520  0.1790 -0.0259
  943POPC   PO413804   5.843   8.542   5.949 -0.1945  0.1771 -0.1879
  943POPC   GL113805   6.009   8.486   6.264 -0.0011  0.1277 -0.1300
  943POPC   GL213806   6.248   8.710   6.324  0.1309 -0.1067 -0.0411
  943POPC   C1A13807   5.710   8.334   6.524 -0.1533 -0.1776 -0.1835
  943POPC   D2A13808   5.710   8.146   6.932  0.0714  0.2289 -0.0901
  943POPC   C3A13809   6.127   8.223   7.209 -0.0745 -0.1491 -0.1643
  943POPC   C4A13810   6.454   8.275   7.559 -0.0226  0.1855 -0.1327
  943POPC   C1B13811   6.534   8.654   6.697  0.2351 -0.0387  0.0854
  943POPC   C2B13812   6.511   8.651   7.164  0.0440 -0.3444 -0.0766
  943POPC   C3B13813   6.662   8.697   7.644 -0.0089  0.0294 -0.0689
  943POPC   C4B13814   7.003   8.614   7.924  0.1400  0.2272  0.1963
  944POPC   NC313815   6.763   7.480   5.502  0.0406 -0.0931  0.0281
  944POPC   PO413816   7.084   7.581   5.893  0.3220  0.0553  0.0313
  944POPC   GL113817   6.968   7.416   6.284  0.0147 -0.3483  0.1298
  944POPC   GL213818   7.176   7.113   6.195 -0.0159  0.1186  0.1628
  944POPC   C1A13819   7.204   7.326   6.654 -0.3402  0.0967  0.1265
  944POPC   D2A13820   7.414   7.360   7.081  0.2580 -0.2504 -0.1373
  944POPC   C3A13821   7.232   7.100   7.449  0.2340  0.0187  0.0126
  944POPC   C4A13822   6.969   6.935   7.536  0.2333  0.0380 -0.2706
  944POPC   C1B13823   7.433   6.892   6.474 -0.1537 -0.1121  0.0364
  944POPC   C2B13824   7.701   6.511   6.277  0.0972 -0.2559 -0.0575
  944POPC   C3B13825   7.977   6.255   6.287  0.1363  0.1382  0.0587
  944POPC   C4B13826   8.322   6.005   6.438  0.0829  0.1050  0.0087
  945POPC   NC313827   8.103  11.008   5.431 -0.0605  0.0185  0.1281
  945POPC   PO413828   8.352  10.696   5.634  0.2713  0.1406 -0.0133
  945POPC   GL113829   8.454  10.790   6.007 -0.0215  0.0640 -0.0503
  945POPC   GL213830   8.735  10.954   6.111 -0.0800 -0.1111  0.0789
  945POPC   C1A13831   8.415  10.822   6.440 -0.1762  0.1457  0.2486
  945POPC   D2A13832   8.205  11.051   6.826 -0.0388 -0.0747 -0.0967
  945POPC   C3A13833   7.966  10.914   7.039  0.1919  0.0189 -0.2903
  945POPC   C4A13834   7.643  10.922   7.392 -0.1715 -0.0937  0.0002
  945POPC   C1B13835   8.915  10.867   6.468 -0.3376  0.1479 -0.2281
  945POPC   C2B13836   8.795  10.718   6.955 -0.1418  0.3963  0.0227
  945POPC   C3B13837   8.819  10.755   7.495  0.2114  0.3901  0.0896
  945POPC   C4B13838   8.892  10.378   7.858 -0.2759 -0.0513 -0.4818
  946POPC   NC313839   9.789  16.713   5.853 -0.0387  0.2855  0.2077
  946POPC   PO413840   9.828  17.125   6.022  0.1817 -0.0929 -0.1305
  946POPC   GL113841   9.682  17.324   6.351 -0.1651  0.0011  0.2102
  946POPC   GL213842   9.876  17.598   6.306 -0.3572 -0.2193  0.2661
  946POPC   C1A13843   9.542  17.351   6.731  0.2031 -0.2798 -0.1584
  946POPC   D2A13844   9.516  17.485   7.126  0.0324 -0.0816  0.1815
  946POPC   C3A13845   9.478  17.431   7.540  0.0937  0.1976  0.0653
  946POPC   C4A13846   9.595  17.511   7.968 -0.2607  0.0125  0.0898
  946POPC   C1B13847   9.867  17.739   6.749 -0.0088  0.1726 -0.0528
  946POPC   C2B13848   9.910  17.812   7.234  0.1939 -0.2982 -0.0835
  946POPC   C3B13849   9.863  17.811   7.709 -0.1890 -0.1323  0.0569
  946POPC   C4B13850   9.861  17.951   8.143 -0.1428 -0.2872  0.0890
  947POPC   NC313851  14.192  17.465   5.209  0.0308  0.2019 -0.0333
  947POPC   PO413852  14.317  17.672   5.650  0.0358  0.1214  0.0798
  947POPC   GL113853  14.414  17.915   6.095  0.2517  0.0789 -0.0164
  947POPC   GL213854  14.261  17.726   6.416 -0.1274  0.2611 -0.1461
  947POPC   C1A13855  14.232  18.245   6.273 -0.0089  0.0752  0.3257
  947POPC   D2A13856  14.175  18.615   6.576  0.0091  0.1435 -0.1158
  947POPC   C3A13857  14.325  18.472   7.011  0.0069 -0.0720  0.4116
  947POPC   C4A13858  14.420  18.040   7.157  0.1642  0.0000  0.3333
  947POPC   C1B13859  14.474  17.582   6.818 -0.1683 -0.2008  0.1587
  947POPC   C2B13860  14.496  17.506   7.278 -0.0938 -0.3467 -0.0931
  947POPC   C3B13861  14.490  17.807   7.627  0.0239 -0.3089  0.0550
  947POPC   C4B13862  14.491  17.747   8.044  0.0133 -0.0290  0.4857
  948POPC   NC313863  15.165   0.967   5.796  0.1183 -0.2732  0.1938
  948POPC   PO413864  15.604   1.065   5.658  0.0296 -0.3616 -0.2748
  948POPC   GL113865  15.572   0.990   6.065  0.0769  0.2880 -0.0556
  948POPC   GL213866  15.362   1.261   6.188  0.1069  0.1441  0.0066
  948POPC   C1A13867  15.517   0.885   6.584 -0.0507 -0.0200 -0.3528
  948POPC   D2A13868  15.518   0.891   7.011  0.3005 -0.2512  0.0598
  948POPC   C3A13869  15.658   1.183   7.243  0.1827 -0.0397  0.0635
  948POPC   C4A13870  15.864   1.304   7.615  0.1099  0.0388  0.0723
  948POPC   C1B13871  15.559   1.366   6.589  0.2484 -0.2756  0.1992
  948POPC   C2B13872  15.652   1.580   6.933 -0.0119  0.2610  0.1962
  948POPC   C3B13873  15.633   1.674   7.336  0.1078 -0.2728 -0.1784
  948POPC   C4B13874  15.381   1.571   7.751 -0.0462 -0.1225 -0.0499
  949POPC   NC313875   3.518   0.022   5.666  0.0086  0.3397 -0.3729
  949POPC   PO413876   3.400  -0.185   6.052  0.0643  0.2373 -0.2929
  949POPC   GL113877   3.190  -0.121   6.396  0.0097 -0.3121 -0.0764
  949POPC   GL213878   3.125  -0.318   6.550 -0.0948 -0.0002  0.0323
  949POPC   C1A13879   3.094   0.188   6.660 -0.4183  0.1757  0.0793
  949POPC   D2A13880   2.934   0.586   6.834  0.0476  0.2356  0.1136
  949POPC   C3A13881   3.064   0.792   7.190 -0.0058 -0.4927 -0.0497
  949POPC   C4A13882   3.064   0.802   7.649  0.1435 -0.0314 -0.1310
  949POPC   C1B13883   3.186  -0.107   7.013 -0.0704 -0.0372 -0.0522
  949POPC   C2B13884   3.234  -0.158   7.385 -0.0716 -0.1005  0.2143
  949POPC   C3B13885   3.250  -0.053   7.842 -0.0053  0.0490  0.3478
  949POPC   C4B13886   3.311   0.069   8.287  0.0469 -0.2242  0.5448
  950POPC   NC313887  14.661  10.273   5.857 -0.2197  0.0838 -0.0471
  950POPC   PO413888  14.847  10.183   6.210  0.0877  0.0977  0.0386
  950POPC   GL113889  14.681   9.857   6.497 -0.1791 -0.0494 -0.1705
  950POPC   GL213890  14.501   9.642   6.459 -0.0034  0.0164 -0.0218
  950POPC   C1A13891  14.520   9.924   6.942 -0.1844  0.0416 -0.0969
  950POPC   D2A13892  14.342  10.373   7.071 -0.1761 -0.3173 -0.0554
  950POPC   C3A13893  14.601  10.608   7.475  0.1744 -0.0117 -0.1136
  950POPC   C4A13894  14.489  10.871   7.768 -0.0503 -0.2007  0.0697
  950POPC   C1B13895  14.467   9.343   6.794 -0.2789  0.0678  0.0735
  950POPC   C2B13896  14.461   9.159   7.222  0.2423 -0.3132  0.4220
  950POPC   C3B13897  14.598   9.029   7.648 -0.0981  0.0869 -0.0210
  950POPC   C4B13898  14.724   8.813   7.996 -0.0462 -0.3690  0.2480
  951POPC   NC313899  16.977  12.620   5.758  0.2298  0.2396 -0.1344
  951POPC   PO413900  16.923  13.051   5.952 -0.0461  0.0391 -0.2908
  951POPC   GL113901  16.844  12.794   6.284  0.1596 -0.2644 -0.2630
  951POPC   GL213902  16.845  12.534   6.325 -0.1262 -0.2787 -0.1768
  951POPC   C1A13903  16.802  12.827   6.708  0.3544  0.0997 -0.2230
  951POPC   D2A13904  16.596  12.959   6.925  0.0054 -0.3973 -0.2257
  951POPC   C3A13905  16.719  12.854   7.337 -0.1216  0.2053 -0.1980
  951POPC   C4A13906  16.851  12.659   7.580 -0.2012 -0.1095 -0.0248
  951POPC   C1B13907  16.920  12.258   6.661  0.0115 -0.3534 -0.0331
  951POPC   C2B13908  17.016  12.125   7.003  0.1382  0.0945 -0.0443
  951POPC   C3B13909  16.947  12.203   7.441 -0.1480 -0.0954 -0.0778
  951POPC   C4B13910  16.767  12.301   7.883 -0.4336  0.0918  0.1484
  952POPC   NC313911   9.145  14.684   6.017 -0.3053  0.0197  0.0833
  952POPC   PO413912   9.471  14.831   6.226  0.3636 -0.0121 -0.3493
  952POPC   GL113913   9.664  14.536   6.465 -0.1390 -0.3351 -0.3355
  952POPC   GL213914   9.493  14.420   6.668 -0.0199 -0.1732 -0.2504
  952POPC   C1A13915   9.957  14.544   6.696 -0.0411  0.1842  0.1084
  952POPC   D2A13916  10.229  14.413   7.044  0.2922  0.3355  0.1257
  952POPC   C3A13917  10.579  14.516   7.117  0.0623 -0.2240 -0.2583
  952POPC   C4A13918  10.815  14.792   7.225 -0.1015  0.0281  0.2522
  952POPC   C1B13919   9.295  14.526   7.119  0.1921 -0.1709  0.1625
  952POPC   C2B13920   8.982  14.749   7.341 -0.2264 -0.1249  0.0380
  952POPC   C3B13921   8.626  14.749   7.454  0.0251  0.0796 -0.0915
  952POPC   C4B13922   8.179  14.803   7.501 -0.1132  0.0128  0.2214
  953POPC   NC313923   3.385   6.186   5.307 -0.1205 -0.0474  0.0666
  953POPC   PO413924   3.747   6.086   5.547  0.1735  0.1041  0.0961
  953POPC   GL113925   3.743   6.033   5.956  0.0405 -0.0351 -0.1325
  953POPC   GL213926   3.731   6.259   6.127 -0.0342 -0.0323 -0.0766
  953POPC   C1A13927   3.676   5.849   6.373  0.0575  0.3439  0.0192
  953POPC   D2A13928   3.583   5.664   6.780 -0.2241  0.0176 -0.1314
  953POPC   C3A13929   3.748   5.284   6.988  0.2359 -0.1351  0.1328
  953POPC   C4A13930   3.609   4.912   7.086  0.0691 -0.1265 -0.0088
  953POPC   C1B13931   3.730   6.456   6.518 -0.1196  0.0175  0.0201
  953POPC   C2B13932   4.019   6.581   6.849 -0.0958  0.1386 -0.2453
  953POPC   C3B13933   3.864   6.812   7.162 -0.0909  0.0368 -0.0496
  953POPC   C4B13934   3.838   6.758   7.652  0.0249 -0.2851 -0.0002
  954POPC   NC313935  17.899   0.416   5.842  0.3953  0.2818 -0.1366
  954POPC   PO413936  17.482   0.602   5.867  0.0945 -0.0169  0.0045
  954POPC   GL113937  17.154   0.546   6.217 -0.1808 -0.1449 -0.3529
  954POPC   GL213938  17.126   0.186   6.395  0.3351 -0.0838 -0.2645
  954POPC   C1A13939  17.299   0.659   6.628 -0.0583 -0.0473 -0.1271
  954POPC   D2A13940  17.382   0.598   7.029 -0.0047 -0.1368  0.3515
  954POPC   C3A13941  17.445   0.444   7.406 -0.0868  0.1709 -0.0285
  954POPC   C4A13942  17.589   0.346   7.852 -0.0929 -0.2276 -0.2099
  954POPC   C1B13943  17.087   0.222   6.871  0.1917  0.2149  0.1485
  954POPC   C2B13944  16.983   0.257   7.276 -0.0720 -0.2259  0.0555
  954POPC   C3B13945  17.127   0.217   7.694  0.0261  0.1047 -0.0028
  954POPC   C4B13946  17.247   0.069   8.198 -0.1508 -0.2812  0.0874
  955POPC   NC313947  12.022  17.724   5.825  0.1946 -0.0323  0.2003
  955POPC   PO413948  11.480  17.760   5.737  0.2362  0.0308  0.0401
  955POPC   GL113949  11.323  17.766   6.229 -0.0822  0.0553  0.0800
  955POPC   GL213950  11.126  17.996   6.303 -0.4247 -0.0539 -0.0057
  955POPC   C1A13951  11.353  17.567   6.620  0.0606 -0.1727  0.0486
  955POPC   D2A13952  11.466  17.210   6.888 -0.1598  0.3647 -0.1957
  955POPC   C3A13953  11.889  17.002   6.806 -0.0076 -0.1476  0.1894
  955POPC   C4A13954  12.037  16.567   6.883  0.0626  0.1223  0.2206
  955POPC   C1B13955  11.307  18.036   6.683 -0.2078 -0.0565 -0.0217
  955POPC   C2B13956  11.138  18.157   7.062 -0.0188 -0.2534  0.3548
  955POPC   C3B13957  11.034  18.343   7.423  0.2829 -0.4004 -0.3313
  955POPC   C4B13958  11.116  18.402   7.830 -0.1583 -0.1757 -0.0004
  956POPC   NC313959   8.431  16.414   5.702  0.1092  0.0367  0.1490
  956POPC   PO413960   8.708  16.385   6.141 -0.1351  0.2234  0.0141
  956POPC   GL113961   8.842  16.500   6.570 -0.0401 -0.2170  0.0169
  956POPC   GL213962   9.162  16.552   6.668 -0.0196  0.0517 -0.0159
  956POPC   C1A13963   8.657  16.745   6.958  0.2481  0.0206  0.1474
  956POPC   D2A13964   8.478  16.987   7.351  0.3382 -0.0150 -0.2354
  956POPC   C3A13965   8.380  16.663   7.704 -0.0189 -0.2541  0.0025
  956POPC   C4A13966   8.031  16.635   7.857 -0.2787 -0.0617 -0.1395
  956POPC   C1B13967   9.139  16.619   7.103 -0.0506 -0.1371  0.0393
  956POPC   C2B13968   9.326  16.554   7.430  0.0246  0.0874  0.1697
  956POPC   C3B13969   9.219  16.245   7.715  0.2992 -0.1321 -0.0962
  956POPC   C4B13970   8.850  16.041   7.701 -0.2174 -0.1555 -0.0962
  957POPC   NC313971  10.410   1.954   5.980  0.0854 -0.1080 -0.0150
  957POPC   PO413972  10.506   2.347   5.851  0.1162 -0.0458  0.2010
  957POPC   GL113973  10.680   2.252   6.259  0.1150 -0.0137 -0.5433
  957POPC   GL213974  10.998   2.125   6.361 -0.0687 -0.0174 -0.0512
  957POPC   C1A13975  10.694   2.351   6.708 -0.2574  0.1331 -0.0284
  957POPC   D2A13976  10.745   2.264   7.192  0.0379  0.0306 -0.2214
  957POPC   C3A13977  10.589   2.127   7.516 -0.1099  0.0606  0.2817
  957POPC   C4A13978  10.262   1.944   7.729  0.1104  0.0171  0.2605
  957POPC   C1B13979  11.316   2.185   6.637  0.0659  0.0082 -0.0546
  957POPC   C2B13980  11.279   2.158   7.111  0.0442  0.2183 -0.3521
  957POPC   C3B13981  11.205   2.149   7.562 -0.0442  0.1438  0.1772
  957POPC   C4B13982  11.420   1.938   7.926 -0.0897  0.0881  0.2889
  958POPC   NC313983  15.884  11.918   5.604 -0.0267  0.2113 -0.2793
  958POPC   PO413984  15.383  11.831   5.479 -0.1097  0.0268  0.0529
  958POPC   GL113985  15.505  11.637   5.885 -0.0453 -0.0871  0.1656
  958POPC   GL213986  15.582  11.909   6.032  0.1275  0.0994  0.0824
  958POPC   C1A13987  15.363  11.405   6.190 -0.2383  0.0840 -0.0307
  958POPC   D2A13988  15.312  11.156   6.507 -0.1759  0.0040  0.1615
  958POPC   C3A13989  15.302  11.244   6.925  0.0628 -0.4692 -0.3077
  958POPC   C4A13990  15.338  11.327   7.355  0.0919 -0.1343  0.0834
  958POPC   C1B13991  15.446  11.905   6.442  0.3486 -0.0283  0.1104
  958POPC   C2B13992  15.436  12.136   6.830 -0.2126 -0.2703 -0.3049
  958POPC   C3B13993  15.436  12.266   7.167  0.1268 -0.1624 -0.1282
  958POPC   C4B13994  15.530  12.229   7.620  0.1228  0.2654  0.0203
  959POPC   NC313995   9.073   5.658   5.949  0.1080  0.0378 -0.0951
  959POPC   PO413996   8.845   6.011   5.964 -0.1980  0.1055 -0.0227
  959POPC   GL113997   8.679   5.719   6.206  0.3633 -0.0442  0.0274
  959POPC   GL213998   8.480   5.416   6.147 -0.3227 -0.0954  0.0282
  959POPC   C1A13999   8.685   5.635   6.715 -0.1266  0.3089  0.0777
  959POPC   D2A14000   8.528   5.569   7.144 -0.0707 -0.3982  0.0958
  959POPC   C3A14001   8.194   5.622   7.392 -0.2223 -0.0121  0.0245
  959POPC   C4A14002   7.909   5.648   7.665 -0.1115  0.0341  0.0323
  959POPC   C1B14003   8.426   5.301   6.490 -0.2398  0.1635 -0.5447
  959POPC   C2B14004   8.480   5.144   6.845  0.0734 -0.2268 -0.1097
  959POPC   C3B14005   8.473   5.055   7.355 -0.1901  0.3737 -0.1473
  959POPC   C4B14006   8.536   5.223   7.758 -0.4128 -0.0211  0.0395
  960POPC   NC314007  13.760   8.372   5.785 -0.0027 -0.2060  0.2424
  960POPC   PO414008  14.119   8.555   5.903  0.1283 -0.0533 -0.0575
  960POPC   GL114009  14.065   8.556   6.281 -0.2114  0.1509 -0.0884
  960POPC   GL214010  14.348   8.696   6.531 -0.1211 -0.2867  0.1961
  960POPC   C1A14011  13.856   8.705   6.629  0.0769 -0.0823  0.1955
  960POPC   D2A14012  13.703   8.665   6.995 -0.0005  0.1481 -0.1168
  960POPC   C3A14013  13.298   8.606   7.191 -0.2202 -0.0996 -0.3786
  960POPC   C4A14014  12.793   8.595   7.350  0.5522  0.2089 -0.3209
  960POPC   C1B14015  14.238   8.844   6.895 -0.0970 -0.3883  0.0735
  960POPC   C2B14016  14.116   8.813   7.281 -0.1256  0.0950 -0.2785
  960POPC   C3B14017  14.170   8.682   7.705  0.1575 -0.0321  0.1770
  960POPC   C4B14018  14.315   8.522   8.155  0.2187  0.0551 -0.0531
  961POPC   NC314019  12.085  11.502   5.796 -0.0842  0.1891  0.1143
  961POPC   PO414020  12.258  11.754   6.132  0.1746 -0.0543 -0.1696
  961POPC   GL114021  12.312  11.421   6.381  0.0752 -0.0064 -0.0150
  961POPC   GL214022  12.346  11.031   6.430 -0.0118  0.1331 -0.1193
  961POPC   C1A14023  12.303  11.418   6.810  0.1941  0.1122 -0.1861
  961POPC   D2A14024  12.348  11.409   7.253  0.1178  0.3229  0.0006
  961POPC   C3A14025  12.290  11.676   7.688 -0.1729 -0.0108 -0.1989
  961POPC   C4A14026  12.558  12.006   7.831  0.4120  0.0944 -0.2340
  961POPC   C1B14027  12.344  10.880   6.850 -0.1071 -0.1047 -0.3010
  961POPC   C2B14028  12.310  10.762   7.211  0.0112  0.0478 -0.0053
  961POPC   C3B14029  12.393  10.650   7.599  0.0221 -0.3401  0.1357
  961POPC   C4B14030  12.426  10.674   7.944 -0.2153 -0.0181  0.1589
  962POPC   NC314031   2.908  12.819   5.880 -0.3792  0.3979 -0.3046
  962POPC   PO414032   2.731  12.452   5.804  0.0397  0.0204 -0.0770
  962POPC   GL114033   2.592  12.685   6.192  0.2001  0.2933 -0.2672
  962POPC   GL214034   2.597  13.095   6.231  0.1359 -0.1059 -0.0916
  962POPC   C1A14035   2.476  12.880   6.635  0.0617 -0.1932 -0.1871
  962POPC   D2A14036   2.403  12.979   7.077  0.1561 -0.0142  0.2186
  962POPC   C3A14037   2.478  12.713   7.381 -0.0216 -0.3120 -0.2423
  962POPC   C4A14038   2.470  12.344   7.614 -0.1791 -0.0601  0.2900
  962POPC   C1B14039   2.754  13.299   6.502  0.2155  0.1044 -0.0519
  962POPC   C2B14040   2.704  13.473   6.840 -0.0458  0.1416 -0.0484
  962POPC   C3B14041   2.581  13.582   7.291  0.0315  0.0614  0.0519
  962POPC   C4B14042   2.474  13.646   7.667  0.0177 -0.0719 -0.1028
  963POPC   NC314043   4.243   4.865   5.680 -0.2353 -0.1243  0.1239
  963POPC   PO414044   4.685   4.969   5.921  0.0744  0.1403  0.2582
  963POPC   GL114045   4.474   5.209   6.278  0.1486  0.0665 -0.0733
  963POPC   GL214046   4.680   5.211   6.483 -0.0001 -0.1405 -0.0117
  963POPC   C1A14047   4.218   5.067   6.621  0.0878  0.1804 -0.0595
  963POPC   D2A14048   4.187   5.090   7.100  0.0587 -0.0406 -0.0835
  963POPC   C3A14049   4.008   5.099   7.497  0.2520  0.2703 -0.3043
  963POPC   C4A14050   3.634   5.032   7.669  0.2708  0.0911  0.1775
  963POPC   C1B14051   4.556   5.357   6.904  0.2040  0.0315  0.0990
  963POPC   C2B14052   4.603   5.350   7.369 -0.0810  0.0013 -0.3392
  963POPC   C3B14053   4.644   5.588   7.782 -0.1717  0.1248  0.0437
  963POPC   C4B14054   4.831   5.637   8.204  0.0285  0.1621  0.2613
  964POPC   NC314055   1.486   4.114   5.690 -0.0764 -0.0878  0.2346
  964POPC   PO414056   1.404   3.627   5.699  0.0929 -0.3872  0.2272
  964POPC   GL114057   1.324   3.340   6.044  0.0477  0.0733 -0.1547
  964POPC   GL214058   1.476   3.131   6.326 -0.1782 -0.0513 -0.0899
  964POPC   C1A14059   0.993   3.265   6.328  0.0907 -0.2124  0.0317
  964POPC   D2A14060   0.562   3.037   6.393 -0.0824 -0.0981 -0.0799
  964POPC   C3A14061   0.350   3.100   6.838  0.0873  0.0777 -0.0020
  964POPC   C4A14062   0.296   3.310   7.209 -0.2495  0.0057 -0.1671
  964POPC   C1B14063   1.197   3.103   6.742  0.2588  0.2899  0.1483
  964POPC   C2B14064   1.296   3.079   7.149 -0.0897  0.1320 -0.0483
  964POPC   C3B14065   1.135   3.083   7.464  0.1767 -0.0813 -0.2123
  964POPC   C4B14066   1.149   2.992   7.806  0.2258  0.1187  0.0333
  965POPC   NC314067  16.515  16.702   6.151 -0.1479  0.2144 -0.1202
  965POPC   PO414068  16.258  17.111   6.235  0.2289  0.0268 -0.0210
  965POPC   GL114069  16.224  17.278   6.691 -0.1986  0.2104  0.0257
  965POPC   GL214070  16.362  17.567   6.680  0.1149 -0.1903  0.1154
  965POPC   C1A14071  16.243  17.421   7.195 -0.0163 -0.0283 -0.0623
  965POPC   D2A14072  16.259  17.528   7.615  0.3242  0.2377  0.0435
  965POPC   C3A14073  16.176  17.565   8.000 -0.0124 -0.1686  0.1222
  965POPC   C4A14074  16.475  17.484   8.304 -0.1829  0.1496  0.0305
  965POPC   C1B14075  16.653  17.679   7.042 -0.1432 -0.0339 -0.1710
  965POPC   C2B14076  16.613  17.961   7.394  0.1447 -0.3461 -0.0238
  965POPC   C3B14077  16.679  18.031   7.855 -0.1966 -0.0123 -0.0955
  965POPC   C4B14078  16.839  17.915   8.190 -0.1450 -0.3654  0.0298
  966POPC   NC314079   5.365   9.254   5.500 -0.1719  0.1327  0.0394
  966POPC   PO414080   5.506   8.922   5.746 -0.0835  0.0987 -0.2286
  966POPC   GL114081   5.817   8.989   6.130 -0.3067  0.0350  0.0931
  966POPC   GL214082   6.111   9.117   6.104  0.0178  0.1228 -0.2346
  966POPC   C1A14083   5.800   8.947   6.519  0.0553  0.0872  0.1024
  966POPC   D2A14084   6.063   8.703   6.773  0.1039 -0.3318  0.0987
  966POPC   C3A14085   6.134   8.360   6.778  0.1111 -0.0574  0.2821
  966POPC   C4A14086   6.048   7.968   6.456  0.1369 -0.0386 -0.0494
  966POPC   C1B14087   6.206   9.232   6.473  0.2224 -0.5415 -0.1545
  966POPC   C2B14088   6.315   9.181   6.863 -0.1478  0.0806  0.0967
  966POPC   C3B14089   6.327   9.110   7.317 -0.1628 -0.1240  0.3654
  966POPC   C4B14090   6.083   9.117   7.662  0.1403  0.2209 -0.0012
  967POPC   NC314091  15.700   0.683   5.357  0.1597  0.1026  0.0909
  967POPC   PO414092  15.584   0.584   5.813  0.0720  0.3048  0.0692
  967POPC   GL114093  15.745   0.513   6.248 -0.0360  0.2445  0.0796
  967POPC   GL214094  15.877   0.701   6.289  0.1940 -0.2744 -0.0693
  967POPC   C1A14095  15.595   0.292   6.586  0.1327 -0.2510 -0.1160
  967POPC   D2A14096  15.367   0.295   6.902  0.1080  0.0073 -0.0692
  967POPC   C3A14097  15.563   0.443   7.237  0.0392  0.2551 -0.1016
  967POPC   C4A14098  15.597   0.418   7.707 -0.1028 -0.0789  0.0287
  967POPC   C1B14099  15.920   0.629   6.737  0.1497 -0.0794  0.0274
  967POPC   C2B14100  15.978   0.659   7.133 -0.2558  0.0059 -0.1770
  967POPC   C3B14101  16.000   0.818   7.510 -0.1734 -0.3861  0.0560
  967POPC   C4B14102  16.094   0.921   7.953 -0.1756  0.1145  0.1269
  968POPC   NC314103   0.592  16.332   5.372  0.2002 -0.2167  0.2219
  968POPC   PO414104   0.428  15.944   5.750  0.2514 -0.2124 -0.2340
  968POPC   GL114105   0.501  15.847   6.214 -0.1857 -0.1024 -0.0571
  968POPC   GL214106   0.268  15.947   6.531  0.0530 -0.1528 -0.0031
  968POPC   C1A14107   0.750  15.941   6.617 -0.4552  0.0199  0.0401
  968POPC   D2A14108   1.138  15.861   6.588 -0.3160 -0.0077  0.0562
  968POPC   C3A14109   1.470  15.781   6.944 -0.1619 -0.0169 -0.6041
  968POPC   C4A14110   1.604  15.974   7.247 -0.3520  0.0134  0.0263
  968POPC   C1B14111   0.430  15.734   6.945  0.4216 -0.0706  0.0254
  968POPC   C2B14112   0.446  15.553   7.402 -0.2561 -0.0917 -0.0624
  968POPC   C3B14113   0.793  15.402   7.526 -0.3803 -0.1945  0.0237
  968POPC   C4B14114   1.005  15.395   7.880  0.2105  0.0820  0.3048
  969POPC   NC314115   8.062   9.692   5.727  0.2331  0.1910  0.0534
  969POPC   PO414116   8.401   9.369   5.677  0.1373 -0.1505  0.0640
  969POPC   GL114117   8.452   9.417   6.045 -0.1797  0.1839 -0.0199
  969POPC   GL214118   8.651   9.221   6.197 -0.3692 -0.1188  0.0139
  969POPC   C1A14119   8.222   9.420   6.445  0.1390  0.2814  0.0571
  969POPC   D2A14120   8.169   9.579   6.929  0.0437  0.0357  0.2293
  969POPC   C3A14121   8.358   9.990   7.124  0.1099 -0.0874  0.1226
  969POPC   C4A14122   8.477  10.027   7.545  0.1297 -0.1816  0.0524
  969POPC   C1B14123   8.692   9.466   6.566 -0.1678  0.0543  0.1403
  969POPC   C2B14124   8.673   9.584   6.960 -0.1360  0.0007  0.1228
  969POPC   C3B14125   8.780   9.778   7.273 -0.2319  0.1839  0.4822
  969POPC   C4B14126   8.959   9.910   7.684 -0.4414  0.0312 -0.0446
  970POPC   NC314127  12.253   6.060   5.480  0.0035 -0.3803  0.0735
  970POPC   PO414128  12.558   5.891   5.750 -0.2366 -0.0494  0.5886
  970POPC   GL114129  12.525   5.764   6.195  0.0242 -0.1866  0.1349
  970POPC   GL214130  12.281   5.573   6.371 -0.1831  0.3543  0.1009
  970POPC   C1A14131  12.806   5.647   6.560 -0.0676 -0.1379  0.0788
  970POPC   D2A14132  12.964   5.584   6.970 -0.0816 -0.3316 -0.0886
  970POPC   C3A14133  13.164   5.330   7.260  0.2835  0.2006 -0.1231
  970POPC   C4A14134  13.466   5.062   7.526  0.1202 -0.1850 -0.1068
  970POPC   C1B14135  12.428   5.569   6.838 -0.0901  0.0438  0.2172
  970POPC   C2B14136  12.558   5.362   7.207 -0.1253  0.1213  0.3716
  970POPC   C3B14137  12.771   5.225   7.532  0.1090 -0.0505  0.1907
  970POPC   C4B14138  13.018   5.138   7.806 -0.1952 -0.3765 -0.0293
  971POPC   NC314139   0.042   7.411   6.044 -0.0493  0.1117 -0.1897
  971POPC   PO414140  -0.233   7.814   6.054  0.2747  0.0120  0.1026
  971POPC   GL114141  -0.266   7.586   6.369  0.1938  0.1541  0.0316
  971POPC   GL214142   0.141   7.703   6.502  0.0622  0.1273 -0.0798
  971POPC   C1A14143  -0.388   7.717   6.768  0.0841 -0.2009  0.0278
  971POPC   D2A14144  -0.301   7.898   7.161  0.1928  0.2396 -0.2142
  971POPC   C3A14145  -0.626   7.888   7.521 -0.0143  0.1277 -0.0505
  971POPC   C4A14146  -0.479   7.855   7.991 -0.0436  0.0931  0.0885
  971POPC   C1B14147   0.111   7.808   6.958 -0.3917 -0.1618  0.1067
  971POPC   C2B14148   0.055   8.220   7.150 -0.0913 -0.1204  0.0448
  971POPC   C3B14149   0.198   8.204   7.583  0.1658 -0.0657 -0.1955
  971POPC   C4B14150   0.367   8.421   7.982 -0.1920  0.4113  0.0867
  972POPC   NC314151  13.556  14.999   5.914  0.1204  0.2290  0.0715
  972POPC   PO414152  13.309  15.419   6.003 -0.0998 -0.2143 -0.0136
  972POPC   GL114153  13.321  15.176   6.366  0.2158 -0.0137 -0.0493
  972POPC   GL214154  13.635  15.148   6.413 -0.0108 -0.0756 -0.0333
  972POPC   C1A14155  12.961  14.984   6.551  0.1115 -0.3377 -0.2510
  972POPC   D2A14156  12.777  14.794   6.929  0.2808 -0.3097 -0.0950
  972POPC   C3A14157  12.851  14.889   7.240 -0.2477 -0.0976 -0.0764
  972POPC   C4A14158  13.025  15.023   7.578 -0.1830  0.4505 -0.0422
  972POPC   C1B14159  13.445  14.978   6.798  0.4185 -0.1456  0.1305
  972POPC   C2B14160  13.458  14.901   7.232 -0.0034 -0.2344  0.1338
  972POPC   C3B14161  13.421  14.706   7.635 -0.3085  0.1189  0.0876
  972POPC   C4B14162  13.824  14.491   7.641  0.2374 -0.0935 -0.1260
  973POPC   NC314163   9.713  10.543   5.478 -0.1369  0.0769 -0.0147
  973POPC   PO414164   9.308  10.492   5.623  0.2131  0.1223 -0.1269
  973POPC   GL114165   9.577  10.453   6.017 -0.0127 -0.0943  0.1686
  973POPC   GL214166   9.830  10.709   6.019 -0.0217  0.1382  0.1601
  973POPC   C1A14167   9.452  10.322   6.353 -0.0956  0.1766 -0.3067
  973POPC   D2A14168   9.263  10.506   6.689 -0.0887 -0.0839  0.1472
  973POPC   C3A14169   9.245  10.538   7.097  0.4166  0.2092 -0.3104
  973POPC   C4A14170   9.322  10.656   7.496 -0.0997  0.0193 -0.0424
  973POPC   C1B14171   9.859  10.676   6.371  0.2251  0.0841 -0.2238
  973POPC   C2B14172   9.688  10.743   6.757 -0.0643 -0.4214  0.0983
  973POPC   C3B14173   9.761  10.745   7.184  0.2188  0.0070  0.0403
  973POPC   C4B14174   9.807  10.670   7.622 -0.1617  0.0171 -0.0141
  974POPC   NC314175  14.730  15.674   5.687  0.0131  0.0066  0.0373
  974POPC   PO414176  14.629  15.250   5.777 -0.2096 -0.1779 -0.0891
  974POPC   GL114177  14.517  15.146   6.181  0.0008 -0.0411 -0.0676
  974POPC   GL214178  14.267  15.332   6.368 -0.3384  0.3256  0.0550
  974POPC   C1A14179  14.473  14.888   6.568  0.0400 -0.1197 -0.2133
  974POPC   D2A14180  14.472  14.895   7.065  0.0429 -0.0766 -0.0505
  974POPC   C3A14181  14.543  14.722   7.506  0.0296 -0.2148 -0.0064
  974POPC   C4A14182  14.840  14.895   7.904 -0.0284 -0.1790  0.0524
  974POPC   C1B14183  14.225  15.339   6.787 -0.0355  0.5850  0.1994
  974POPC   C2B14184  14.260  15.334   7.196  0.1996  0.1860  0.2080
  974POPC   C3B14185  14.446  15.264   7.529  0.0552  0.1533  0.2061
  974POPC   C4B14186  14.769  15.340   7.779  0.0086 -0.1586  0.0132
  975POPC   NC314187   7.921  18.145   6.465 -0.0302  0.0760 -0.0711
  975POPC   PO414188   7.890  18.572   6.283  0.1035  0.0410  0.0308
  975POPC   GL114189   7.716  18.656   6.651 -0.2140  0.1422 -0.0262
  975POPC   GL214190   7.526  18.330   6.769 -0.0406 -0.0312 -0.1129
  975POPC   C1A14191   7.508  18.742   6.999  0.1555 -0.3269 -0.0386
  975POPC   D2A14192   7.500  18.699   7.429  0.2561  0.0874  0.1789
  975POPC   C3A14193   7.416  19.000   7.710  0.3184 -0.2994  0.0759
  975POPC   C4A14194   7.470  19.159   8.028  0.0031  0.0348 -0.3123
  975POPC   C1B14195   7.586  18.188   7.120  0.0601 -0.0449  0.0218
  975POPC   C2B14196   7.815  18.218   7.493  0.1741 -0.0176 -0.1320
  975POPC   C3B14197   8.004  18.227   7.891 -0.0494 -0.0620  0.0656
  975POPC   C4B14198   8.226  18.071   8.162 -0.3707  0.4019 -0.1005
  976POPC   NC314199  17.841   9.663   5.730  0.2066 -0.0307 -0.2989
  976POPC   PO414200  18.202   9.370   5.705  0.0497 -0.0130 -0.0813
  976POPC   GL114201  18.341   9.479   6.125 -0.0439 -0.0112  0.0499
  976POPC   GL214202  18.695   9.628   6.064 -0.1634 -0.1595 -0.0201
  976POPC   C1A14203  18.582   9.505   6.618 -0.0403 -0.0559 -0.0831
  976POPC   D2A14204  18.602   9.476   7.056 -0.0368 -0.3267 -0.1922
  976POPC   C3A14205  18.812   9.374   7.484 -0.0038  0.1302  0.0823
  976POPC   C4A14206  18.741   9.503   7.926  0.1660  0.2125 -0.4089
  976POPC   C1B14207  19.042   9.515   6.417  0.0184 -0.1658  0.1543
  976POPC   C2B14208  19.041   9.320   6.780  0.0828  0.0266  0.0231
  976POPC   C3B14209  18.951   9.052   7.053 -0.2723 -0.0663  0.0478
  976POPC   C4B14210  19.207   8.831   7.348 -0.0697 -0.2553 -0.0441
  977POPC   NC314211  15.416  14.907   5.617 -0.0622 -0.0500 -0.1051
  977POPC   PO414212  15.794  14.827   5.588  0.0187 -0.0488 -0.1913
  977POPC   GL114213  15.745  15.011   6.039  0.0105 -0.1579 -0.0121
  977POPC   GL214214  15.406  14.951   6.139  0.4820 -0.0624  0.1530
  977POPC   C1A14215  15.832  15.320   6.435 -0.0564  0.1028 -0.0561
  977POPC   D2A14216  15.897  15.693   6.753 -0.1272  0.0924 -0.1834
  977POPC   C3A14217  15.927  15.654   7.224  0.1082 -0.0006 -0.1541
  977POPC   C4A14218  15.937  15.770   7.668  0.1573  0.1830  0.0211
  977POPC   C1B14219  15.311  14.606   6.305  0.1272  0.3237  0.1802
  977POPC   C2B14220  15.213  14.454   6.786  0.2053 -0.4302  0.1307
  977POPC   C3B14221  15.083  14.077   7.199  0.0463  0.1199 -0.0712
  977POPC   C4B14222  14.977  13.963   7.657 -0.0887  0.3597 -0.2445
  978POPC   NC314223   7.408  12.689   5.501 -0.0960  0.0552 -0.0524
  978POPC   PO414224   7.380  12.202   5.466  0.3827 -0.0775  0.2291
  978POPC   GL114225   7.313  12.008   5.908  0.0571  0.1129 -0.0629
  978POPC   GL214226   7.510  11.723   5.956  0.1442  0.1237  0.3358
  978POPC   C1A14227   7.198  12.011   6.291  0.0962 -0.1444  0.2289
  978POPC   D2A14228   7.120  11.799   6.730  0.1207 -0.2271  0.1996
  978POPC   C3A14229   7.155  12.124   6.950  0.0123  0.0483 -0.2791
  978POPC   C4A14230   7.429  12.165   7.194 -0.1006 -0.2547 -0.0208
  978POPC   C1B14231   7.714  11.327   6.226 -0.3241  0.0294  0.2253
  978POPC   C2B14232   7.910  11.002   6.344  0.1165 -0.0848  0.0774
  978POPC   C3B14233   7.745  10.692   6.585 -0.1196  0.3043  0.0975
  978POPC   C4B14234   8.003  10.420   6.867  0.1195 -0.3418  0.1971
  979POPC   NC314235   3.216   3.923   5.313 -0.3018 -0.0817  0.2879
  979POPC   PO414236   2.960   3.996   5.710  0.0111 -0.0337 -0.1217
  979POPC   GL114237   3.131   4.073   6.062  0.0917  0.0583  0.2259
  979POPC   GL214238   3.070   3.971   6.360  0.0015  0.4021  0.1865
  979POPC   C1A14239   3.179   4.447   6.287  0.4180  0.2934 -0.0743
  979POPC   D2A14240   2.837   4.668   6.437  0.2137 -0.1097  0.3232
  979POPC   C3A14241   2.542   4.563   6.737  0.0106  0.3998  0.0039
  979POPC   C4A14242   2.573   4.506   7.198 -0.0501  0.2079  0.0539
  979POPC   C1B14243   2.958   4.255   6.679  0.0314 -0.2963 -0.0039
  979POPC   C2B14244   2.937   4.149   7.083 -0.0411 -0.0798 -0.2985
  979POPC   C3B14245   2.821   4.167   7.553 -0.0636  0.0442  0.3748
  979POPC   C4B14246   2.789   4.341   8.016 -0.2151 -0.1122  0.2021
  980POPC   NC314247   4.049   9.155   5.944 -0.1725 -0.1868  0.2788
  980POPC   PO414248   3.878   9.479   5.727 -0.0148  0.0257 -0.0715
  980POPC   GL114249   3.918   9.528   6.266 -0.0864 -0.0364 -0.2068
  980POPC   GL214250   4.121   9.194   6.421  0.1307  0.0653  0.5227
  980POPC   C1A14251   3.916   9.585   6.693  0.0452 -0.1937  0.3213
  980POPC   D2A14252   3.876   9.555   7.077  0.2413  0.2576  0.2240
  980POPC   C3A14253   4.099   9.762   7.335  0.2214 -0.1707  0.2845
  980POPC   C4A14254   4.373   9.964   7.634 -0.2911 -0.0419  0.2325
  980POPC   C1B14255   4.035   9.019   6.889  0.1870  0.1884  0.2548
  980POPC   C2B14256   4.111   9.191   7.349  0.2304  0.1307  0.0927
  980POPC   C3B14257   3.989   9.489   7.731 -0.0312  0.0662  0.2301
  980POPC   C4B14258   3.854   9.637   8.081  0.0273 -0.1313  0.1616
  981YOPC   NC314259  16.514   7.237   5.769  0.1167  0.0158 -0.2402
  981YOPC   PO414260  16.330   6.900   6.028 -0.1323 -0.0089 -0.0187
  981YOPC   GL114261  16.594   6.738   6.394 -0.0626 -0.1300  0.2025
  981YOPC   GL214262  16.365   6.634   6.557  0.0652 -0.2175  0.0638
  981YOPC   C1A14263  16.886   6.987   6.675 -0.0716 -0.0846 -0.1457
  981YOPC   D2A14264  16.809   7.412   6.861 -0.1129 -0.1473 -0.1402
  981YOPC   C3A14265  16.910   7.470   7.354 -0.1616  0.2902 -0.2281
  981YOPC   C4A14266  16.716   7.784   7.719 -0.2780  0.2174 -0.2652
  981YOPC   C1B14267  16.720   6.510   6.799  0.0682  0.0490  0.2405
  981YOPC   C2B14268  16.894   6.767   7.165 -0.2240  0.3468 -0.1363
  981YOPC   D3B14269  17.113   7.097   7.113 -0.1123  0.0460 -0.1447
  981YOPC   C4B14270  17.406   7.588   7.132  0.0821 -0.1034 -0.0568
  982YOPC   NC314271  17.848  15.358   5.826 -0.0850  0.3439 -0.0011
  982YOPC   PO414272  17.886  15.809   5.772  0.1670 -0.0045  0.2273
  982YOPC   GL114273  17.659  15.937   6.145 -0.0012 -0.1094  0.2817
  982YOPC   GL214274  17.384  15.849   6.283 -0.1139 -0.1218  0.0948
  982YOPC   C1A14275  17.732  16.119   6.594 -0.0309  0.0649 -0.1841
  982YOPC   D2A14276  17.736  16.171   7.008  0.0133 -0.1556 -0.0223
  982YOPC   C3A14277  17.842  16.452   7.184 -0.0396  0.1173  0.1320
  982YOPC   C4A14278  17.713  16.699   7.602 -0.1862 -0.1390 -0.2394
  982YOPC   C1B14279  17.370  15.756   6.759 -0.0509 -0.1381  0.1619
  982YOPC   C2B14280  17.209  15.853   7.108  0.2302 -0.1444 -0.0824
  982YOPC   D3B14281  17.303  15.809   7.512  0.2226  0.1398  0.2782
  982YOPC   C4B14282  17.236  15.864   7.921 -0.1730  0.1451  0.1283
  983YOPC   NC314283   0.571   0.936   5.951  0.0967  0.1334  0.1130
  983YOPC   PO414284   1.051   0.739   5.973  0.3284 -0.2384 -0.1917
  983YOPC   GL114285   1.071   0.908   6.321  0.1613  0.1071  0.0011
  983YOPC   GL214286   0.781   0.626   6.381  0.2875 -0.0841 -0.1154
  983YOPC   C1A14287   1.095   1.101   6.800 -0.3405 -0.0085  0.1771
  983YOPC   D2A14288   1.166   1.026   7.222  0.1275  0.0622 -0.0190
  983YOPC   C3A14289   1.120   0.996   7.588 -0.3683  0.1640  0.0926
  983YOPC   C4A14290   1.165   0.613   7.866 -0.4491  0.1320  0.2885
  983YOPC   C1B14291   0.689   0.808   6.813 -0.0373  0.0155  0.3522
  983YOPC   C2B14292   0.693   0.815   7.259 -0.1072 -0.0419  0.0153
  983YOPC   D3B14293   0.684   0.634   7.677  0.0184  0.1007 -0.1168
  983YOPC   C4B14294   0.744   0.237   7.984 -0.0852 -0.0377 -0.0800
  984YOPC   NC314295  15.118   7.648   6.130 -0.2830 -0.3750 -0.0704
  984YOPC   PO414296  14.924   8.006   6.014  0.1052 -0.2221  0.1218
  984YOPC   GL114297  15.002   8.070   6.403 -0.0776  0.0440  0.0054
  984YOPC   GL214298  14.851   7.765   6.587 -0.0362  0.2166  0.2568
  984YOPC   C1A14299  14.627   8.205   6.717 -0.0659  0.0357 -0.1777
  984YOPC   D2A14300  14.315   8.375   6.887 -0.3477  0.1935  0.1089
  984YOPC   C3A14301  14.131   8.322   7.209  0.1579  0.2640 -0.0615
  984YOPC   C4A14302  13.748   8.451   7.451 -0.0084 -0.1263 -0.0287
  984YOPC   C1B14303  14.544   7.628   6.830 -0.0529 -0.1376  0.3147
  984YOPC   C2B14304  14.309   7.408   7.014 -0.0151 -0.2031  0.1350
  984YOPC   D3B14305  14.229   7.340   7.434  0.2203 -0.0709  0.0056
  984YOPC   C4B14306  14.343   7.564   7.837 -0.1421 -0.3237 -0.2768
  985YOPC   NC314307   5.585  12.968   5.599  0.0401  0.1307  0.2137
  985YOPC   PO414308   6.092  13.069   5.599  0.2332  0.0061  0.1902
  985YOPC   GL114309   6.189  13.182   6.117 -0.2739 -0.1180 -0.0702
  985YOPC   GL214310   6.330  13.423   6.241 -0.1256 -0.0713 -0.1167
  985YOPC   C1A14311   6.237  12.845   6.435 -0.1064  0.1218 -0.0235
  985YOPC   D2A14312   5.904  12.622   6.706  0.2145 -0.0680  0.0813
  985YOPC   C3A14313   6.088  12.709   7.122  0.0969  0.0563 -0.0099
  985YOPC   C4A14314   6.274  12.815   7.524 -0.0288 -0.2149 -0.1215
  985YOPC   C1B14315   6.485  13.221   6.647  0.0841 -0.0675 -0.1833
  985YOPC   C2B14316   6.526  12.953   7.016  0.1240 -0.2334 -0.1514
  985YOPC   D3B14317   6.751  12.950   7.353  0.0872 -0.0016 -0.0661
  985YOPC   C4B14318   7.032  13.143   7.655  0.1598 -0.0623  0.2630
  986YOPC   NC314319  17.903  13.636   5.588  0.0098  0.1280  0.0073
  986YOPC   PO414320  17.918  13.219   5.656  0.0312 -0.0555 -0.0084
  986YOPC   GL114321  17.853  13.293   6.047 -0.3031 -0.1142 -0.1506
  986YOPC   GL214322  17.827  13.096   6.296  0.0377  0.2136 -0.0847
  986YOPC   C1A14323  17.830  13.665   6.410  0.0662  0.0464  0.0391
  986YOPC   D2A14324  17.715  14.104   6.557  0.0629  0.0875 -0.0649
  986YOPC   C3A14325  17.873  14.162   6.936 -0.1152 -0.0460 -0.0312
  986YOPC   C4A14326  17.937  14.337   7.316 -0.3487 -0.2412  0.2134
  986YOPC   C1B14327  17.680  13.221   6.722  0.0688  0.1893  0.0172
  986YOPC   C2B14328  17.587  13.133   7.159 -0.2522 -0.0511  0.1351
  986YOPC   D3B14329  17.744  13.297   7.521 -0.2919 -0.0699  0.0580
  986YOPC   C4B14330  17.867  13.407   7.965 -0.0811  0.0698 -0.3365
  987YOPC   NC314331   8.734   0.461   5.920 -0.0452  0.0364  0.1588
  987YOPC   PO414332   8.348   0.719   6.069 -0.0287 -0.1203 -0.0274
  987YOPC   GL114333   8.355   0.957   6.459  0.3964  0.1464  0.0968
  987YOPC   GL214334   8.174   0.749   6.618 -0.0535 -0.0984  0.1358
  987YOPC   C1A14335   8.580   1.111   6.842  0.0090  0.0397 -0.1103
  987YOPC   D2A14336   8.362   0.996   7.301 -0.0273  0.1162 -0.0983
  987YOPC   C3A14337   8.482   1.153   7.650  0.1277 -0.0036 -0.3010
  987YOPC   C4A14338   8.816   1.102   7.884  0.2139 -0.0269  0.2311
  987YOPC   C1B14339   8.003   0.792   7.011  0.3318  0.2515 -0.2429
  987YOPC   C2B14340   7.712   0.981   7.296 -0.0045  0.2399  0.0778
  987YOPC   D3B14341   7.891   1.052   7.719 -0.3040  0.0907  0.0017
  987YOPC   C4B14342   7.854   1.297   7.995  0.0526  0.2421 -0.2583
  988YOPC   NC314343   0.200  10.853   6.178 -0.3615 -0.2523  0.1155
  988YOPC   PO414344   0.577  10.747   6.092 -0.2180 -0.2431  0.0262
  988YOPC   GL114345   0.912  10.643   6.367  0.0732  0.1656  0.2244
  988YOPC   GL214346   1.040  10.387   6.487 -0.1295 -0.1359  0.0134
  988YOPC   C1A14347   1.150  10.756   6.811  0.2307  0.2400 -0.1097
  988YOPC   D2A14348   1.242  10.940   7.263  0.0122 -0.0410  0.1145
  988YOPC   C3A14349   1.009  11.040   7.607 -0.0626 -0.1705 -0.0200
  988YOPC   C4A14350   0.728  10.885   7.989 -0.1981  0.0538 -0.2598
  988YOPC   C1B14351   0.772  10.217   6.801  0.2596 -0.1294 -0.0562
  988YOPC   C2B14352   0.726   9.753   6.864 -0.2309 -0.3789 -0.3172
  988YOPC   D3B14353   0.921   9.591   7.207 -0.1511  0.0597  0.1848
  988YOPC   C4B14354   1.112   9.608   7.591 -0.2069 -0.0666  0.0023
  989YOPC   NC314355   9.604   5.799   5.253  0.0181  0.1806  0.2010
  989YOPC   PO414356   9.756   6.200   5.600  0.1829 -0.1197  0.0493
  989YOPC   GL114357   9.901   6.419   6.026 -0.1874  0.2298  0.0779
  989YOPC   GL214358  10.035   6.666   6.111  0.1022  0.0447  0.1205
  989YOPC   C1A14359   9.776   6.519   6.499 -0.3067 -0.1577  0.0830
  989YOPC   D2A14360   9.848   6.605   6.939 -0.0545  0.1319 -0.0442
  989YOPC   C3A14361   9.488   6.726   7.295  0.4469 -0.0367 -0.0934
  989YOPC   C4A14362   9.518   6.675   7.677  0.0049 -0.1903  0.3436
  989YOPC   C1B14363  10.224   6.244   6.367  0.0852  0.0501 -0.0271
  989YOPC   C2B14364  10.133   6.042   6.693  0.3632  0.2386  0.0466
  989YOPC   D3B14365  10.184   6.106   6.928 -0.1166  0.0553  0.0939
  989YOPC   C4B14366  10.635   6.289   6.988  0.0977 -0.1553  0.1895
  990YOPC   NC314367  15.004   8.505   6.043 -0.0239  0.0916  0.2338
  990YOPC   PO414368  15.103   8.943   6.112 -0.3122 -0.0333  0.0340
  990YOPC   GL114369  15.346   8.984   6.490  0.1396 -0.0452  0.0008
  990YOPC   GL214370  15.188   9.185   6.655 -0.0794 -0.2041  0.0400
  990YOPC   C1A14371  15.442   8.646   6.760  0.0853  0.0266  0.0170
  990YOPC   D2A14372  15.648   8.291   7.059 -0.1095 -0.1143  0.2393
  990YOPC   C3A14373  15.375   8.262   7.345  0.1272  0.2141 -0.0419
  990YOPC   C4A14374  14.984   8.146   7.652  0.1410 -0.0750 -0.0183
  990YOPC   C1B14375  14.983   9.133   7.086 -0.1934 -0.0097  0.1397
  990YOPC   C2B14376  15.112   9.143   7.495  0.1641 -0.0233  0.1153
  990YOPC   D3B14377  15.588   9.132   7.574 -0.2893 -0.0081 -0.0050
  990YOPC   C4B14378  16.067   9.122   7.463  0.0500 -0.0308  0.1963
  991YOPC   NC314379   1.981  11.983   5.488 -0.2215  0.3268  0.0944
  991YOPC   PO414380   1.982  11.908   5.894 -0.1042 -0.1392  0.1782
  991YOPC   GL114381   1.944  11.937   6.346 -0.0005  0.0349 -0.2146
  991YOPC   GL214382   1.679  12.071   6.376  0.0321  0.1411  0.4714
  991YOPC   C1A14383   1.883  11.873   6.756 -0.1123 -0.0847 -0.0931
  991YOPC   D2A14384   1.921  11.794   7.200 -0.3981  0.0524  0.1316
  991YOPC   C3A14385   1.869  11.990   7.615  0.2266  0.0778 -0.1867
  991YOPC   C4A14386   2.029  12.281   7.889 -0.3706 -0.1361 -0.1708
  991YOPC   C1B14387   1.693  12.362   6.767  0.1428 -0.1967 -0.2041
  991YOPC   C2B14388   1.584  12.231   7.274 -0.1451  0.2789  0.1458
  991YOPC   D3B14389   1.535  12.435   7.626 -0.2262  0.1716  0.0756
  991YOPC   C4B14390   1.260  12.665   7.897 -0.2416  0.1166 -0.0816
  992YOPC   NC314391  16.106   5.531   5.719 -0.0071  0.4029 -0.0782
  992YOPC   PO414392  16.035   5.063   5.556  0.1284  0.2479  0.1210
  992YOPC   GL114393  15.759   5.106   5.944  0.0023 -0.0553  0.2373
  992YOPC   GL214394  15.875   4.816   6.046 -0.3137 -0.0496  0.3000
  992YOPC   C1A14395  15.569   5.110   6.391 -0.1399  0.2880  0.1406
  992YOPC   D2A14396  15.705   5.001   6.789  0.2362  0.1139  0.1032
  992YOPC   C3A14397  15.528   4.944   7.142 -0.2096 -0.1239 -0.1649
  992YOPC   C4A14398  15.400   4.859   7.488  0.1199  0.0311  0.1075
  992YOPC   C1B14399  15.877   4.540   6.449  0.2415 -0.1542  0.2019
  992YOPC   C2B14400  15.706   4.463   6.822  0.1612 -0.1110 -0.1036
  992YOPC   D3B14401  15.879   4.604   7.200 -0.2346 -0.0405 -0.4556
  992YOPC   C4B14402  15.753   4.533   7.661  0.0384  0.1051 -0.5393
  993YOPC   NC314403  12.092  15.822   5.662 -0.0691  0.1339  0.0052
  993YOPC   PO414404  11.727  15.895   5.951 -0.1355  0.0744 -0.0101
  993YOPC   GL114405  11.727  16.112   6.335 -0.0897 -0.1578 -0.1181
  993YOPC   GL214406  12.078  16.032   6.388 -0.0665  0.2094  0.0887
  993YOPC   C1A14407  11.818  16.130   6.752 -0.1557 -0.0979  0.0211
  993YOPC   D2A14408  11.828  16.058   7.166 -0.0472  0.1280 -0.0204
  993YOPC   C3A14409  12.104  15.917   7.376  0.1704  0.2278 -0.1328
  993YOPC   C4A14410  12.006  15.560   7.686 -0.0216  0.0337  0.0860
  993YOPC   C1B14411  11.779  15.684   6.542 -0.1905 -0.0280 -0.0226
  993YOPC   C2B14412  11.274  15.531   6.601 -0.0481  0.4647  0.2382
  993YOPC   D3B14413  11.233  15.358   7.078  0.2433 -0.0524 -0.0695
  993YOPC   C4B14414  11.583  15.313   7.371  0.1497 -0.0719 -0.2043
  994YOPC   NC314415  14.337  10.490   5.168  0.1969  0.1979  0.0675
  994YOPC   PO414416  14.234  10.455   5.680  0.1243 -0.1749 -0.1186
  994YOPC   GL114417  14.329  10.400   6.186 -0.3012 -0.2631  0.0500
  994YOPC   GL214418  14.549  10.619   6.373 -0.0691 -0.1397 -0.3136
  994YOPC   C1A14419  14.206  10.209   6.592  0.1168  0.1231 -0.1103
  994YOPC   D2A14420  13.822  10.186   6.861  0.0940  0.1808 -0.0080
  994YOPC   C3A14421  13.860  10.102   7.232  0.1382 -0.2133 -0.3759
  994YOPC   C4A14422  13.880   9.833   7.567  0.1319  0.3225  0.0496
  994YOPC   C1B14423  14.674  10.644   6.839  0.0707 -0.0107  0.1302
  994YOPC   C2B14424  14.899  10.793   7.122  0.0236  0.1354  0.2667
  994YOPC   D3B14425  14.932  11.003   7.494  0.2126 -0.2756  0.1667
  994YOPC   C4B14426  15.114  11.139   7.755  0.0359  0.1132 -0.1045
  995YOPC   NC314427   5.085   9.963   5.901 -0.2809  0.4716 -0.0035
  995YOPC   PO414428   5.310   9.573   5.903 -0.0700 -0.3275 -0.0139
  995YOPC   GL114429   5.340   9.228   6.177 -0.2152 -0.0564 -0.0624
  995YOPC   GL214430   5.360   8.778   6.252  0.0553  0.2944  0.0809
  995YOPC   C1A14431   5.347   9.116   6.600  0.0538 -0.1686  0.3531
  995YOPC   D2A14432   5.113   9.169   6.976  0.1202  0.2616 -0.1928
  995YOPC   C3A14433   5.350   9.062   7.412 -0.2560  0.1461  0.1485
  995YOPC   C4A14434   5.434   9.321   7.658  0.0345  0.0125 -0.1865
  995YOPC   C1B14435   5.309   8.645   6.694 -0.1912 -0.0310  0.1730
  995YOPC   C2B14436   5.554   8.770   7.000  0.0472 -0.0535 -0.0138
  995YOPC   D3B14437   5.952   8.703   7.261  0.1030  0.4055 -0.0250
  995YOPC   C4B14438   6.111   8.599   7.530  0.0796  0.4492  0.0028
  996YOPC   NC314439  14.077   4.039   5.614 -0.1366  0.1228  0.0936
  996YOPC   PO414440  14.175   4.288   5.318 -0.1836  0.0070 -0.2288
  996YOPC   GL114441  14.327   4.470   5.696 -0.0541 -0.2948  0.1090
  996YOPC   GL214442  14.389   4.720   5.790  0.0735 -0.1740  0.2279
  996YOPC   C1A14443  14.350   4.330   6.122  0.3014  0.1232 -0.3548
  996YOPC   D2A14444  14.495   4.111   6.509  0.0552 -0.0682  0.1591
  996YOPC   C3A14445  14.479   4.193   6.874  0.0288  0.1653 -0.1334
  996YOPC   C4A14446  14.324   4.521   7.086  0.0396 -0.3130 -0.0564
  996YOPC   C1B14447  14.667   4.851   6.117  0.1054 -0.0813  0.1508
  996YOPC   C2B14448  15.075   5.089   6.206 -0.1830 -0.3520  0.2193
  996YOPC   D3B14449  15.140   5.293   6.557  0.2377 -0.1168 -0.2929
  996YOPC   C4B14450  15.201   5.229   6.953 -0.1819  0.1243 -0.0901
  997YOPC   NC314451  14.426  16.447   6.017  0.0309 -0.0168  0.3966
  997YOPC   PO414452  14.124  16.124   6.088  0.1741  0.3010 -0.1691
  997YOPC   GL114453  13.855  15.990   6.427  0.2234  0.1468 -0.0563
  997YOPC   GL214454  13.930  15.674   6.582  0.3914 -0.2759 -0.2240
  997YOPC   C1A14455  13.612  16.046   6.930  0.1800  0.2106 -0.1403
  997YOPC   D2A14456  13.306  15.853   7.166  0.1634 -0.0082 -0.1321
  997YOPC   C3A14457  12.971  16.084   7.163 -0.1604 -0.1778  0.0038
  997YOPC   C4A14458  12.668  15.920   7.245  0.1683  0.2026  0.3153
  997YOPC   C1B14459  14.024  15.760   6.948  0.1821 -0.0323  0.0216
  997YOPC   C2B14460  14.020  15.742   7.381  0.0048  0.1858  0.0703
  997YOPC   D3B14461  13.633  15.842   7.537  0.2697 -0.1234 -0.0961
  997YOPC   C4B14462  13.313  16.020   7.832 -0.2790  0.0307  0.1953
  998YOPC   NC314463  14.970   0.011   5.587 -0.1044 -0.1178 -0.4151
  998YOPC   PO414464  15.294  -0.116   5.946  0.1447 -0.1479 -0.2273
  998YOPC   GL114465  15.268  -0.059   6.403 -0.3395 -0.1601 -0.0719
  998YOPC   GL214466  15.058   0.118   6.561  0.0798  0.0820 -0.0856
  998YOPC   C1A14467  15.498  -0.158   6.705  0.1064 -0.0339 -0.2199
  998YOPC   D2A14468  15.393  -0.278   7.054  0.2815  0.3555  0.3631
  998YOPC   C3A14469  15.580  -0.210   7.357  0.0286 -0.0865  0.0236
  998YOPC   C4A14470  15.632  -0.050   7.736 -0.0252  0.0163 -0.0658
  998YOPC   C1B14471  14.918   0.201   7.060 -0.1774 -0.1078  0.2450
  998YOPC   C2B14472  14.723   0.139   7.478  0.0907  0.3974 -0.1125
  998YOPC   D3B14473  14.864  -0.108   7.860  0.0335 -0.0457 -0.1330
  998YOPC   C4B14474  14.922  -0.045   8.275  0.2318 -0.0412  0.0893
  999YOPC   NC314475   8.688   8.958   5.789  0.0868  0.3089  0.0204
  999YOPC   PO414476   8.284   8.855   5.813  0.0470  0.2982 -0.1665
  999YOPC   GL114477   8.424   8.594   6.007  0.2858  0.0517 -0.2391
  999YOPC   GL214478   8.665   8.680   6.197  0.0621  0.1711  0.3611
  999YOPC   C1A14479   8.321   8.419   6.437  0.1422  0.1201  0.0407
  999YOPC   D2A14480   8.216   8.325   6.802 -0.1416 -0.0499  0.2615
  999YOPC   C3A14481   8.049   8.535   7.130  0.2507 -0.0725 -0.0590
  999YOPC   C4A14482   7.958   8.709   7.488 -0.0830 -0.1540 -0.3097
  999YOPC   C1B14483   8.902   8.971   6.549  0.2502 -0.1549  0.3203
  999YOPC   C2B14484   8.912   9.131   6.931  0.3188  0.3393  0.0158
  999YOPC   D3B14485   8.878   9.309   7.329 -0.2890  0.1622  0.0278
  999YOPC   C4B14486   8.855   9.424   7.758 -0.3404  0.2267  0.1721
 1000YOPC   NC314487   8.481  11.716   5.547 -0.0796  0.0146 -0.3274
 1000YOPC   PO414488   8.052  11.506   5.626  0.0760 -0.0248 -0.0459
 1000YOPC   GL114489   8.161  11.817   6.011  0.1601  0.1630  0.2431
 1000YOPC   GL214490   8.507  11.999   5.969 -0.0574 -0.0448  0.0398
 1000YOPC   C1A14491   8.081  11.844   6.434  0.1634 -0.1541 -0.1395
 1000YOPC   D2A14492   8.178  11.904   6.846  0.0596  0.1443  0.2652
 1000YOPC   C3A14493   7.910  11.985   7.155 -0.1542  0.1024  0.2209
 1000YOPC   C4A14494   7.703  11.794   7.515 -0.0240 -0.0949  0.2383
 1000YOPC   C1B14495   8.533  11.638   6.253  0.3765 -0.0026  0.1431
 1000YOPC   C2B14496   8.353  11.329   6.478  0.0401 -0.1260  0.0627
 1000YOPC   D3B14497   7.863  11.479   6.740 -0.1476  0.1232  0.2432
 1000YOPC   C4B14498   7.589  11.711   6.449 -0.1557  0.2605  0.1019
 1001YOPC   NC314499   5.968   7.146   5.841 -0.1726 -0.2703 -0.0972
 1001YOPC   PO414500   6.296   7.420   5.577 -0.2411 -0.2086  0.1968
 1001YOPC   GL114501   6.149   7.584   6.013 -0.1852  0.1244  0.0394
 1001YOPC   GL214502   6.499   7.623   6.306 -0.3478 -0.0011  0.0905
 1001YOPC   C1A14503   6.084   7.413   6.418  0.1566 -0.0596  0.0098
 1001YOPC   D2A14504   6.281   7.192   6.596  0.1994 -0.1007 -0.1708
 1001YOPC   C3A14505   6.313   7.347   7.041  0.1268 -0.1955  0.0651
 1001YOPC   C4A14506   6.205   7.336   7.436 -0.0164  0.1501 -0.4003
 1001YOPC   C1B14507   6.657   7.467   6.687  0.2771  0.1993 -0.0218
 1001YOPC   C2B14508   6.784   7.421   7.095  0.0712  0.3005 -0.1774
 1001YOPC   D3B14509   6.702   7.326   7.445  0.0833 -0.3219 -0.1705
 1001YOPC   C4B14510   6.915   7.324   7.844 -0.1200 -0.0098  0.2091
 1002YOPC   NC314511   4.522  15.004   5.821 -0.0863  0.0864 -0.1020
 1002YOPC   PO414512   4.157  14.796   5.943  0.0457 -0.2170  0.1841
 1002YOPC   GL114513   3.996  14.642   6.303  0.3162 -0.0216 -0.0308
 1002YOPC   GL214514   4.074  14.350   6.406  0.1543  0.0635  0.0163
 1002YOPC   C1A14515   3.806  14.730   6.747 -0.0207  0.1774 -0.0543
 1002YOPC   D2A14516   3.836  14.877   7.273  0.0655  0.1790  0.1597
 1002YOPC   C3A14517   3.499  14.711   7.523  0.0833 -0.0720  0.1297
 1002YOPC   C4A14518   3.360  14.775   7.919 -0.0539 -0.2515  0.0691
 1002YOPC   C1B14519   4.135  14.407   6.857 -0.2856  0.3001  0.0341
 1002YOPC   C2B14520   4.131  14.500   7.309 -0.2378 -0.0118 -0.2168
 1002YOPC   D3B14521   4.288  14.335   7.714  0.0097 -0.1020 -0.1613
 1002YOPC   C4B14522   4.391  14.366   8.238 -0.0459 -0.0716 -0.1135
 1003YOPC   NC314523   0.991   8.469   6.060  0.1449 -0.0158 -0.0829
 1003YOPC   PO414524   0.607   8.417   6.329 -0.2072  0.0496  0.1455
 1003YOPC   GL114525   0.838   8.233   6.578 -0.0110 -0.2455  0.1668
 1003YOPC   GL214526   1.208   8.337   6.507  0.1285 -0.3767 -0.1683
 1003YOPC   C1A14527   0.666   8.276   7.027  0.2078  0.1248  0.1560
 1003YOPC   D2A14528   0.507   7.983   7.296  0.3124  0.1503  0.0787
 1003YOPC   C3A14529   0.717   7.948   7.649  0.0225 -0.2406 -0.1575
 1003YOPC   C4A14530   0.844   8.133   7.970 -0.0473 -0.0989  0.0484
 1003YOPC   C1B14531   1.403   8.206   6.795 -0.1223 -0.2277 -0.1251
 1003YOPC   C2B14532   1.535   8.084   7.224 -0.0334  0.0525 -0.1740
 1003YOPC   D3B14533   1.778   7.763   7.489 -0.0102 -0.1711 -0.4263
 1003YOPC   C4B14534   1.873   7.475   7.833  0.0549  0.2504  0.0562
 1004YOPC   NC314535   6.698  10.735   5.643  0.1185 -0.1708  0.1617
 1004YOPC   PO414536   6.992  10.405   5.613 -0.2139  0.0659  0.2676
 1004YOPC   GL114537   6.943  10.625   6.060 -0.4193  0.0124  0.4124
 1004YOPC   GL214538   6.886  11.014   6.033 -0.1878  0.1543 -0.1469
 1004YOPC   C1A14539   6.921  10.340   6.352  0.0001 -0.0358 -0.0841
 1004YOPC   D2A14540   7.077  10.317   6.786 -0.0339 -0.0828  0.0980
 1004YOPC   C3A14541   7.410  10.616   6.981 -0.1341  0.1501  0.0642
 1004YOPC   C4A14542   7.679  10.381   7.360 -0.3354 -0.0664  0.0027
 1004YOPC   C1B14543   6.983  11.000   6.462  0.1552 -0.0666 -0.2017
 1004YOPC   C2B14544   6.977  10.786   6.779 -0.1465 -0.1552  0.1023
 1004YOPC   D3B14545   7.180  10.946   7.273 -0.2223  0.0864 -0.2088
 1004YOPC   C4B14546   7.169  10.960   7.759 -0.1058  0.1984 -0.1521
 1005YOPC   NC314547   3.629  12.037   5.808 -0.2116 -0.0594 -0.3557
 1005YOPC   PO414548   3.376  11.797   6.041  0.3186  0.0607  0.2886
 1005YOPC   GL114549   3.159  11.741   6.388 -0.0013  0.1031  0.1757
 1005YOPC   GL214550   2.841  11.743   6.431 -0.2279  0.0119  0.1871
 1005YOPC   C1A14551   3.112  11.446   6.831  0.1536 -0.2432 -0.1313
 1005YOPC   D2A14552   2.740  11.179   7.114  0.0220  0.2644  0.0741
 1005YOPC   C3A14553   2.815  11.047   7.544 -0.0546 -0.2055  0.0230
 1005YOPC   C4A14554   2.928  10.844   7.933  0.0461 -0.1838  0.1954
 1005YOPC   C1B14555   2.936  11.921   6.846 -0.1991  0.1131  0.2072
 1005YOPC   C2B14556   3.239  12.102   7.126 -0.1739 -0.2908 -0.2722
 1005YOPC   D3B14557   3.322  11.972   7.553 -0.0485  0.0686 -0.0269
 1005YOPC   C4B14558   3.271  11.867   7.965  0.0471  0.0008 -0.1959
 1006YOPC   NC314559   9.818   0.861   6.398 -0.0532 -0.1444  0.0153
 1006YOPC   PO414560  10.127   1.218   6.341 -0.2486 -0.2758 -0.2129
 1006YOPC   GL114561  10.080   1.299   6.751  0.0218  0.3595  0.2647
 1006YOPC   GL214562   9.975   1.046   6.937 -0.0361 -0.0100 -0.5283
 1006YOPC   C1A14563  10.300   1.406   7.059  0.3368  0.1837  0.1555
 1006YOPC   D2A14564  10.483   1.600   7.410 -0.0813 -0.0276  0.3942
 1006YOPC   C3A14565  10.397   1.540   7.938  0.0108 -0.0907 -0.2887
 1006YOPC   C4A14566  10.399   1.932   8.291 -0.1235  0.0030 -0.1685
 1006YOPC   C1B14567  10.173   1.056   7.364  0.1508 -0.0928  0.2279
 1006YOPC   C2B14568  10.338   0.939   7.780 -0.1803 -0.3386  0.0714
 1006YOPC   D3B14569  10.765   1.045   7.879 -0.2652  0.0358 -0.0826
 1006YOPC   C4B14570  11.169   1.113   8.103  0.1859 -0.2417 -0.0744
 1007YOPC   NC314571   8.644  13.835   5.843  0.0456 -0.1188  0.2887
 1007YOPC   PO414572   8.137  13.773   5.872 -0.3027  0.0207  0.0679
 1007YOPC   GL114573   8.197  13.856   6.277  0.0242 -0.3093  0.0342
 1007YOPC   GL214574   8.394  14.103   6.316 -0.0668  0.1291 -0.0178
 1007YOPC   C1A14575   8.024  14.195   6.601  0.2225 -0.0654 -0.1045
 1007YOPC   D2A14576   7.761  14.353   6.963 -0.1407 -0.0901  0.0304
 1007YOPC   C3A14577   7.821  14.473   7.353 -0.0385 -0.1580  0.0021
 1007YOPC   C4A14578   7.812  14.280   7.677 -0.2130  0.2120  0.3018
 1007YOPC   C1B14579   8.476  14.054   6.726 -0.0628  0.0011  0.3680
 1007YOPC   C2B14580   8.433  13.923   7.164 -0.0229  0.0685 -0.0223
 1007YOPC   D3B14581   8.728  13.795   7.467  0.2602 -0.5100  0.2983
 1007YOPC   C4B14582   8.854  13.461   7.757 -0.2454  0.0554  0.1550
 1008YOPC   NC314583  12.455  14.734   6.057 -0.1283  0.0001  0.1401
 1008YOPC   PO414584  12.407  14.245   6.098 -0.0376  0.1182 -0.1304
 1008YOPC   GL114585  12.519  14.393   6.488 -0.1000 -0.1975 -0.3718
 1008YOPC   GL214586  12.470  14.793   6.592 -0.1388  0.1801  0.2550
 1008YOPC   C1A14587  12.757  14.266   6.877  0.3985 -0.1704 -0.0612
 1008YOPC   D2A14588  12.653  14.326   7.173 -0.2893  0.1449 -0.0205
 1008YOPC   C3A14589  12.288  14.251   7.368  0.1430  0.1092  0.1447
 1008YOPC   C4A14590  12.110  14.448   7.731  0.0204  0.1000  0.3234
 1008YOPC   C1B14591  12.337  14.860   7.066 -0.1725  0.0167  0.1104
 1008YOPC   C2B14592  12.272  14.990   7.509 -0.0002 -0.0578  0.0801
 1008YOPC   D3B14593  12.159  15.096   7.843  0.0452 -0.1920 -0.1949
 1008YOPC   C4B14594  11.888  14.867   8.178 -0.1088  0.4522 -0.0075
 1009YOPC   NC314595   1.492  16.378   5.628  0.1306  0.0296  0.0696
 1009YOPC   PO414596   1.275  16.554   5.826  0.0889 -0.1178 -0.3167
 1009YOPC   GL114597   1.192  16.554   6.238 -0.1758 -0.2480 -0.1851
 1009YOPC   GL214598   1.231  16.789   6.369 -0.2518  0.5006  0.0470
 1009YOPC   C1A14599   1.152  16.380   6.655 -0.1167 -0.1640 -0.2262
 1009YOPC   D2A14600   1.226  16.231   6.987 -0.0528 -0.0535  0.2100
 1009YOPC   C3A14601   1.122  16.212   7.442  0.0977 -0.3329 -0.0382
 1009YOPC   C4A14602   1.272  16.103   7.813 -0.2517  0.3218  0.1487
 1009YOPC   C1B14603   1.087  16.843   6.749 -0.1066  0.1683  0.1602
 1009YOPC   C2B14604   1.024  16.731   7.192  0.0025  0.1674  0.1832
 1009YOPC   D3B14605   1.276  16.888   7.665 -0.1307  0.4101 -0.0531
 1009YOPC   C4B14606   1.569  17.061   7.844  0.2611  0.2141 -0.0797
 1010YOPC   NC314607   8.982   6.482   5.607 -0.1163  0.0808  0.1530
 1010YOPC   PO414608   9.470   6.541   5.724  0.0916 -0.3115 -0.0158
 1010YOPC   GL114609   9.487   6.860   6.135 -0.1343 -0.1968 -0.0554
 1010YOPC   GL214610   9.846   7.142   6.188 -0.2277  0.2886 -0.0262
 1010YOPC   C1A14611   9.502   6.932   6.517 -0.3373 -0.1935 -0.0415
 1010YOPC   D2A14612   9.481   6.970   6.879  0.1330  0.2838 -0.0266
 1010YOPC   C3A14613   9.145   7.022   6.997 -0.2073 -0.4071 -0.0283
 1010YOPC   C4A14614   8.874   6.810   7.219 -0.3161 -0.0012  0.0716
 1010YOPC   C1B14615   9.993   7.008   6.614 -0.0668  0.5595  0.0882
 1010YOPC   C2B14616  10.066   7.000   7.081 -0.2578 -0.0715  0.0431
 1010YOPC   D3B14617   9.758   7.141   7.397  0.0861 -0.1739 -0.0285
 1010YOPC   C4B14618   9.212   7.150   7.537 -0.0068 -0.0711 -0.0325
 1011YOPC   NC314619   6.197   5.041   5.916  0.1914  0.2122  0.0351
 1011YOPC   PO414620   6.338   5.421   5.917  0.0065 -0.0235 -0.2020
 1011YOPC   GL114621   6.325   5.437   6.326  0.0194 -0.3873  0.0158
 1011YOPC   GL214622   6.513   5.612   6.547  0.1717 -0.1176  0.1334
 1011YOPC   C1A14623   6.069   5.273   6.684  0.0913  0.0818 -0.0852
 1011YOPC   D2A14624   6.116   5.012   7.020  0.0499  0.0677 -0.0912
 1011YOPC   C3A14625   5.981   5.150   7.388  0.1920  0.1048 -0.1663
 1011YOPC   C4A14626   6.125   5.172   7.753 -0.1102  0.1806 -0.2074
 1011YOPC   C1B14627   6.618   5.868   6.908  0.1511 -0.0186  0.2449
 1011YOPC   C2B14628   6.583   5.979   7.392 -0.0789  0.0067 -0.1477
 1011YOPC   D3B14629   6.774   5.950   7.780 -0.1460  0.2975 -0.1557
 1011YOPC   C4B14630   6.858   6.254   8.138 -0.0378 -0.2922  0.0716
 1012YOPC   NC314631   1.603   0.235   5.850  0.1398 -0.2297 -0.2960
 1012YOPC   PO414632   1.217   0.340   5.764 -0.0686  0.1615 -0.0480
 1012YOPC   GL114633   1.129   0.296   6.151 -0.1817 -0.0177  0.2032
 1012YOPC   GL214634   1.361   0.461   6.290  0.4196  0.2479  0.2220
 1012YOPC   C1A14635   0.996   0.201   6.551  0.0755  0.1869 -0.0473
 1012YOPC   D2A14636   0.863  -0.019   6.968  0.3058 -0.0502  0.1624
 1012YOPC   C3A14637   0.851   0.232   7.276  0.0218 -0.1171  0.4820
 1012YOPC   C4A14638   0.583   0.051   7.578  0.2310  0.0563 -0.0988
 1012YOPC   C1B14639   1.263   0.591   6.696  0.1322 -0.1510  0.1583
 1012YOPC   C2B14640   1.102   0.558   7.022 -0.1563 -0.1393  0.0391
 1012YOPC   D3B14641   1.248   0.499   7.409 -0.0091 -0.0703  0.0872
 1012YOPC   C4B14642   1.175   0.130   7.653  0.1610 -0.0595 -0.0839
 1013YOPC   NC314643   5.915   3.191   5.715 -0.1944 -0.1508 -0.1928
 1013YOPC   PO414644   5.780   3.362   6.133 -0.2720 -0.0422  0.1344
 1013YOPC   GL114645   5.710   3.545   6.491 -0.4126 -0.2484  0.1243
 1013YOPC   GL214646   5.437   3.620   6.585  0.1107  0.2632 -0.1058
 1013YOPC   C1A14647   5.887   3.591   6.848  0.1146 -0.2312  0.4239
 1013YOPC   D2A14648   5.964   3.778   7.132 -0.1857  0.2269 -0.3490
 1013YOPC   C3A14649   6.147   3.719   7.423 -0.1956 -0.2228  0.3560
 1013YOPC   C4A14650   6.267   3.749   7.768 -0.1762 -0.2360 -0.0125
 1013YOPC   C1B14651   5.116   4.034   6.703 -0.2612  0.0097 -0.1166
 1013YOPC   C2B14652   4.881   4.410   6.912 -0.0640 -0.2907  0.3219
 1013YOPC   D3B14653   4.868   4.412   7.371  0.1034  0.0418 -0.0535
 1013YOPC   C4B14654   4.674   4.586   7.749 -0.3170 -0.0316  0.0492
 1014YOPC   NC314655   3.659  14.866   5.792 -0.0717 -0.2950  0.1510
 1014YOPC   PO414656   3.281  15.034   5.543 -0.3236  0.3561 -0.0678
 1014YOPC   GL114657   3.194  14.979   6.044 -0.0761 -0.1743  0.1737
 1014YOPC   GL214658   2.946  15.211   6.247 -0.2950 -0.3487 -0.0430
 1014YOPC   C1A14659   3.003  14.728   6.320 -0.0242 -0.3830  0.0355
 1014YOPC   D2A14660   2.759  14.716   6.676  0.1052 -0.0082  0.3389
 1014YOPC   C3A14661   2.826  15.031   7.005 -0.3022 -0.0853 -0.0979
 1014YOPC   C4A14662   2.717  15.227   7.436 -0.1267 -0.0462  0.0548
 1014YOPC   C1B14663   2.696  15.399   6.589 -0.1727  0.0727  0.3358
 1014YOPC   C2B14664   2.848  15.548   7.039  0.0111 -0.0572  0.3110
 1014YOPC   D3B14665   2.631  15.711   7.343 -0.0223 -0.2924  0.3514
 1014YOPC   C4B14666   2.543  15.651   7.790 -0.1376  0.0773 -0.0231
 1015YOPC   NC314667  16.255   8.983   6.202 -0.2282  0.0997 -0.4312
 1015YOPC   PO414668  16.734   9.048   6.165 -0.1357 -0.0162  0.1472
 1015YOPC   GL114669  16.671   8.977   6.583 -0.0566 -0.0194  0.1736
 1015YOPC   GL214670  16.379   8.865   6.717 -0.0530 -0.2612 -0.1750
 1015YOPC   C1A14671  16.881   9.043   6.997  0.0958  0.0841  0.0015
 1015YOPC   D2A14672  17.217   9.189   7.379 -0.2848 -0.3012 -0.2101
 1015YOPC   C3A14673  17.122   9.439   7.813 -0.1370  0.0690 -0.2819
 1015YOPC   C4A14674  17.166   9.425   8.270  0.2118  0.0922  0.0184
 1015YOPC   C1B14675  16.457   8.818   7.229 -0.1288 -0.2015 -0.2221
 1015YOPC   C2B14676  16.475   8.826   7.618 -0.1709 -0.1986 -0.1200
 1015YOPC   D3B14677  16.237   9.020   7.935 -0.2014 -0.1727 -0.1483
 1015YOPC   C4B14678  15.988   9.256   7.964 -0.2127 -0.1162  0.0627
 1016YOPC   NC314679   5.417   8.389   5.881 -0.0872 -0.1644  0.0502
 1016YOPC   PO414680   5.002   8.417   5.961  0.1919 -0.1962 -0.1305
 1016YOPC   GL114681   4.907   8.499   6.417  0.0848 -0.2007 -0.2076
 1016YOPC   GL214682   4.936   8.877   6.451  0.0792  0.0086  0.0400
 1016YOPC   C1A14683   4.870   8.643   6.849  0.1475 -0.1858  0.1481
 1016YOPC   D2A14684   5.024   8.735   7.237  0.0651  0.0195  0.1129
 1016YOPC   C3A14685   5.418   8.572   7.460  0.0552 -0.2079 -0.2489
 1016YOPC   C4A14686   5.705   8.241   7.518 -0.4152  0.1500 -0.4283
 1016YOPC   C1B14687   4.879   9.338   6.535 -0.2998 -0.1083  0.2432
 1016YOPC   C2B14688   4.863   9.585   6.909  0.1624 -0.0077  0.2262
 1016YOPC   D3B14689   5.030   9.608   7.285  0.0848 -0.0292  0.0170
 1016YOPC   C4B14690   4.993   9.753   7.821 -0.0049 -0.0148  0.0543
 1017YOPC   NC314691  10.846  12.198   5.968  0.1491 -0.1237 -0.0843
 1017YOPC   PO414692  11.244  12.324   6.028 -0.0027 -0.1705  0.1622
 1017YOPC   GL114693  11.466  12.324   6.356  0.1745  0.1613  0.0635
 1017YOPC   GL214694  11.834  12.344   6.389  0.1449 -0.2603  0.0786
 1017YOPC   C1A14695  11.426  12.052   6.791  0.1892  0.1824  0.0874
 1017YOPC   D2A14696  11.347  12.044   7.218  0.2972 -0.1479  0.0032
 1017YOPC   C3A14697  11.458  12.241   7.604 -0.1105  0.0938  0.2475
 1017YOPC   C4A14698  11.577  12.311   7.969 -0.1476  0.2608  0.0240
 1017YOPC   C1B14699  11.847  12.251   6.785 -0.0760  0.1175 -0.0354
 1017YOPC   C2B14700  11.755  12.331   7.213 -0.1779  0.0855  0.1498
 1017YOPC   D3B14701  12.095  12.597   7.231  0.0460  0.1470  0.0867
 1017YOPC   C4B14702  12.516  12.609   7.440  0.1141 -0.0655  0.0468
 1018YOPC   NC314703   7.699  15.534   6.083 -0.1644  0.1935  0.1848
 1018YOPC   PO414704   8.160  15.632   6.023  0.0131  0.2448 -0.2964
 1018YOPC   GL114705   8.157  15.675   6.475  0.0966 -0.0982  0.2208
 1018YOPC   GL214706   8.250  15.391   6.661  0.3475  0.0815 -0.0898
 1018YOPC   C1A14707   8.085  15.976   6.691 -0.0150  0.1006  0.2184
 1018YOPC   D2A14708   8.232  16.397   6.702 -0.1335 -0.1379 -0.2476
 1018YOPC   C3A14709   8.262  16.563   7.202  0.0804  0.0413 -0.3050
 1018YOPC   C4A14710   7.923  16.883   7.355 -0.0808  0.0750 -0.3207
 1018YOPC   C1B14711   8.317  15.592   7.023  0.3861 -0.0703  0.1493
 1018YOPC   C2B14712   8.239  16.017   7.175 -0.0915 -0.2179  0.0449
 1018YOPC   D3B14713   8.387  16.175   7.666  0.1414 -0.0885  0.0480
 1018YOPC   C4B14714   8.408  16.262   8.134  0.0083  0.0731  0.1082
 1019YOPC   NC314715  14.092   1.764   5.744 -0.2184 -0.0647  0.2117
 1019YOPC   PO414716  14.423   1.483   5.961  0.1052  0.0544  0.2249
 1019YOPC   GL114717  14.402   1.236   6.332  0.3614  0.1710 -0.1004
 1019YOPC   GL214718  14.453   0.878   6.470  0.1197 -0.1564 -0.0989
 1019YOPC   C1A14719  14.473   1.274   6.832 -0.2806  0.2524 -0.1009
 1019YOPC   D2A14720  14.649   1.414   7.198  0.0190  0.1185 -0.0746
 1019YOPC   C3A14721  14.642   1.193   7.593  0.1128  0.0377 -0.1013
 1019YOPC   C4A14722  14.522   1.331   7.960  0.1947 -0.1269  0.1441
 1019YOPC   C1B14723  14.620   0.651   6.764 -0.2511  0.0666  0.1079
 1019YOPC   C2B14724  14.586   0.857   7.169  0.2452  0.0648 -0.0884
 1019YOPC   D3B14725  14.663   0.678   7.536  0.1330  0.2819 -0.0675
 1019YOPC   C4B14726  14.701   0.441   7.846 -0.0626 -0.2365 -0.3795
 1020YOPC   NC314727   7.874   7.284   5.321 -0.2167 -0.1052 -0.0717
 1020YOPC   PO414728   7.806   6.894   5.550 -0.1482 -0.0716 -0.0917
 1020YOPC   GL114729   7.907   6.921   5.988  0.2407  0.2192  0.0226
 1020YOPC   GL214730   8.110   6.683   6.025  0.0494 -0.0861  0.1334
 1020YOPC   C1A14731   7.917   6.931   6.436  0.2582  0.1686 -0.0418
 1020YOPC   D2A14732   7.906   6.709   6.756 -0.0553 -0.0986 -0.0103
 1020YOPC   C3A14733   7.572   6.901   7.004 -0.0006  0.2917  0.0924
 1020YOPC   C4A14734   7.190   6.961   6.979  0.0452  0.0590  0.0178
 1020YOPC   C1B14735   8.326   6.603   6.401 -0.0783  0.0052 -0.3094
 1020YOPC   C2B14736   8.278   6.390   6.766  0.0516 -0.0239  0.1022
 1020YOPC   D3B14737   8.326   6.542   7.173 -0.1676 -0.1641  0.0307
 1020YOPC   C4B14738   8.377   6.816   7.482  0.1893 -0.1171 -0.3683
 1021YOPC   NC314739  15.135  12.256   5.343  0.0066 -0.3487  0.1721
 1021YOPC   PO414740  15.096  12.637   5.537 -0.0418 -0.0851  0.1382
 1021YOPC   GL114741  15.121  12.554   5.994 -0.0701 -0.2100  0.1797
 1021YOPC   GL214742  14.983  12.707   6.322  0.0153 -0.1124  0.2770
 1021YOPC   C1A14743  15.326  12.331   6.247  0.0558 -0.2037 -0.1438
 1021YOPC   D2A14744  15.754  12.252   6.421  0.1460  0.1255  0.1408
 1021YOPC   C3A14745  15.843  12.464   6.769  0.2181 -0.1079  0.2219
 1021YOPC   C4A14746  15.952  12.897   6.926 -0.0643  0.0520  0.1096
 1021YOPC   C1B14747  15.351  12.619   6.657  0.1860 -0.5418  0.0321
 1021YOPC   C2B14748  15.473  12.759   7.005  0.0986  0.0203 -0.0007
 1021YOPC   D3B14749  15.791  12.567   7.231  0.1910  0.0666  0.0873
 1021YOPC   C4B14750  15.946  12.582   7.571 -0.2395 -0.3786 -0.0903
 1022YOPC   NC314751   4.120   5.773   5.674 -0.0384 -0.0119 -0.4338
 1022YOPC   PO414752   4.318   5.367   5.826 -0.1422 -0.1083 -0.0851
 1022YOPC   GL114753   4.107   5.568   6.154 -0.0968 -0.0950 -0.0454
 1022YOPC   GL214754   4.232   5.650   6.469 -0.3086  0.0059  0.1825
 1022YOPC   C1A14755   3.758   5.356   6.440  0.0783  0.1050 -0.3868
 1022YOPC   D2A14756   3.750   4.944   6.551 -0.0917  0.0917 -0.0617
 1022YOPC   C3A14757   3.415   4.706   6.642  0.1518 -0.0336 -0.1207
 1022YOPC   C4A14758   3.059   4.688   6.979 -0.2175  0.1198  0.2880
 1022YOPC   C1B14759   4.128   5.545   6.877 -0.0279 -0.1884 -0.2407
 1022YOPC   C2B14760   3.935   5.611   7.315 -0.1551  0.2588 -0.1374
 1022YOPC   D3B14761   3.642   5.937   7.441  0.0604  0.1365 -0.1899
 1022YOPC   C4B14762   3.538   5.944   7.902  0.1284 -0.1290 -0.3499
 1023YOPC   NC314763   1.840   3.260   5.807  0.1591 -0.2026 -0.0214
 1023YOPC   PO414764   2.069   2.839   5.927 -0.0761  0.0559 -0.0589
 1023YOPC   GL114765   2.124   2.457   6.187 -0.1981  0.0342  0.2696
 1023YOPC   GL214766   2.045   2.202   6.255 -0.0567  0.0080 -0.1380
 1023YOPC   C1A14767   2.414   2.373   6.511 -0.4319 -0.1435 -0.4664
 1023YOPC   D2A14768   2.576   2.476   6.844 -0.0575 -0.0419 -0.2324
 1023YOPC   C3A14769   2.655   2.167   7.222  0.0722  0.4596  0.2934
 1023YOPC   C4A14770   2.583   1.931   7.655 -0.1172 -0.3135 -0.0494
 1023YOPC   C1B14771   1.850   2.214   6.616 -0.2202 -0.1454 -0.1456
 1023YOPC   C2B14772   1.652   1.921   6.915  0.0626  0.0590  0.0906
 1023YOPC   D3B14773   1.687   2.056   7.388 -0.0585  0.1878 -0.2944
 1023YOPC   C4B14774   1.498   1.854   7.739 -0.5444 -0.2055 -0.3892
 1024YOPC   NC314775   1.115   4.919   6.064 -0.0509 -0.0628  0.0378
 1024YOPC   PO414776   1.249   4.599   5.702 -0.0424  0.1077 -0.2653
 1024YOPC   GL114777   1.196   4.386   6.065  0.3334 -0.0605  0.1587
 1024YOPC   GL214778   0.930   4.548   6.349  0.1441  0.0001  0.1798
 1024YOPC   C1A14779   1.374   4.404   6.491  0.1903 -0.0304 -0.0038
 1024YOPC   D2A14780   1.407   4.411   6.909  0.1168  0.1925 -0.1052
 1024YOPC   C3A14781   1.608   4.165   7.102  0.1725 -0.1105  0.1347
 1024YOPC   C4A14782   1.653   4.388   7.458 -0.0144 -0.0543  0.0774
 1024YOPC   C1B14783   0.998   4.623   6.713 -0.3161 -0.3616  0.1448
 1024YOPC   C2B14784   1.014   4.673   7.149  0.1620 -0.0233  0.1457
 1024YOPC   D3B14785   1.175   4.498   7.576  0.1015 -0.0278 -0.0582
 1024YOPC   C4B14786   1.244   4.570   7.987  0.1685  0.0841 -0.0970
 1025YOPC   NC314787  14.259   0.951   5.804  0.1755  0.0238 -0.1802
 1025YOPC   PO414788  13.806   1.171   5.659  0.2603 -0.2273 -0.0787
 1025YOPC   GL114789  13.941   1.291   5.987  0.1768 -0.1381  0.2899
 1025YOPC   GL214790  13.918   1.552   6.189 -0.2000 -0.3510 -0.0807
 1025YOPC   C1A14791  13.952   1.028   6.417  0.0951  0.0398  0.0476
 1025YOPC   D2A14792  14.110   0.836   6.841  0.2815 -0.2017  0.0314
 1025YOPC   C3A14793  14.186   1.139   7.242  0.0180 -0.0365 -0.0977
 1025YOPC   C4A14794  14.217   1.419   7.578 -0.0991 -0.0402  0.3167
 1025YOPC   C1B14795  13.808   1.900   6.434  0.3318 -0.0709 -0.1695
 1025YOPC   C2B14796  13.961   1.963   6.850 -0.3296  0.1010  0.3135
 1025YOPC   D3B14797  14.023   2.224   7.145 -0.2305 -0.1078  0.1805
 1025YOPC   C4B14798  14.078   2.656   7.431  0.2126 -0.1823  0.0655
 1026YOPC   NC314799  12.412   5.442   5.900  0.1078  0.2022  0.1133
 1026YOPC   PO414800  12.834   5.485   5.709 -0.1396 -0.2368 -0.2920
 1026YOPC   GL114801  13.086   5.558   6.120 -0.1946  0.1702  0.3563
 1026YOPC   GL214802  13.446   5.546   6.087 -0.2063 -0.2111 -0.0520
 1026YOPC   C1A14803  13.174   5.299   6.502 -0.0530 -0.1701 -0.2065
 1026YOPC   D2A14804  13.352   5.178   6.811  0.1569 -0.1341  0.4992
 1026YOPC   C3A14805  13.748   5.249   7.023 -0.1650 -0.1558  0.2025
 1026YOPC   C4A14806  13.916   5.281   7.431  0.1632 -0.3174  0.0486
 1026YOPC   C1B14807  13.799   5.771   6.176  0.2115  0.0034 -0.0859
 1026YOPC   C2B14808  13.985   5.825   6.544  0.1819  0.0479  0.1716
 1026YOPC   D3B14809  13.949   5.729   6.904 -0.0034  0.3200 -0.0381
 1026YOPC   C4B14810  13.987   5.726   7.263 -0.0178  0.3100  0.4308
 1027YOPC   NC314811   4.397  13.174   5.853 -0.1916  0.0418 -0.1361
 1027YOPC   PO414812   4.726  12.923   5.812 -0.1371 -0.1542  0.0860
 1027YOPC   GL114813   4.870  12.741   6.174 -0.1723 -0.0865 -0.3129
 1027YOPC   GL214814   4.961  12.989   6.333 -0.1111 -0.1320 -0.1395
 1027YOPC   C1A14815   5.134  12.440   6.303  0.0021 -0.0085 -0.0356
 1027YOPC   D2A14816   5.334  12.145   6.549  0.1231  0.0534  0.0943
 1027YOPC   C3A14817   5.506  12.354   6.858 -0.0015  0.2824 -0.0356
 1027YOPC   C4A14818   5.570  12.742   7.110 -0.0544  0.1364  0.0828
 1027YOPC   C1B14819   4.614  12.848   6.739  0.1331  0.2075  0.0597
 1027YOPC   C2B14820   4.632  12.594   7.027 -0.2777  0.1776 -0.0216
 1027YOPC   D3B14821   5.057  12.602   7.311  0.0207  0.2666  0.0380
 1027YOPC   C4B14822   5.350  12.372   7.362 -0.1279 -0.0550  0.1159
 1028YOPC   NC314823   5.800   0.663   5.301  0.1951 -0.3516  0.0096
 1028YOPC   PO414824   5.350   0.634   5.303  0.1029 -0.1101  0.0121
 1028YOPC   GL114825   5.410   0.838   5.722  0.0401 -0.0453 -0.0358
 1028YOPC   GL214826   5.386   1.093   5.921 -0.5217  0.0646  0.0243
 1028YOPC   C1A14827   5.355   0.560   6.088  0.1029 -0.1323  0.2249
 1028YOPC   D2A14828   5.153   0.388   6.426 -0.4401 -0.1914 -0.1177
 1028YOPC   C3A14829   5.127   0.477   6.751 -0.0702  0.2146  0.0678
 1028YOPC   C4A14830   5.139   0.717   7.207 -0.0389 -0.0371  0.0610
 1028YOPC   C1B14831   5.456   1.261   6.408 -0.0333  0.1526  0.0415
 1028YOPC   C2B14832   5.283   1.597   6.726 -0.0777  0.2152 -0.0765
 1028YOPC   D3B14833   5.447   1.689   7.169 -0.0792 -0.3228 -0.2414
 1028YOPC   C4B14834   5.534   1.443   7.693  0.0505  0.0625 -0.1652
 1029YOPC   NC314835   4.366   9.441   5.423 -0.0599 -0.0085 -0.1545
 1029YOPC   PO414836   4.490   9.126   5.716 -0.0485  0.0689  0.0915
 1029YOPC   GL114837   4.479   9.007   6.146  0.2899 -0.0139 -0.1207
 1029YOPC   GL214838   4.263   8.717   6.151 -0.0742  0.1166 -0.2720
 1029YOPC   C1A14839   4.485   9.049   6.666 -0.3528 -0.0229  0.0022
 1029YOPC   D2A14840   4.555   9.001   7.088 -0.1663 -0.1770 -0.1459
 1029YOPC   C3A14841   4.759   9.079   7.504 -0.0347  0.0282 -0.0033
 1029YOPC   C4A14842   4.887   9.214   7.868  0.1111  0.0004 -0.1824
 1029YOPC   C1B14843   4.256   8.614   6.530  0.0143  0.0448  0.2628
 1029YOPC   C2B14844   4.406   8.552   6.985  0.1155  0.0367 -0.1616
 1029YOPC   D3B14845   4.200   8.616   7.365  0.1471  0.2434  0.1638
 1029YOPC   C4B14846   4.280   8.906   7.783 -0.0329  0.1061  0.0220
 1030YOPC   NC314847   2.935  17.939   6.004  0.2304 -0.0487 -0.2794
 1030YOPC   PO414848   2.789  17.469   5.859 -0.1474 -0.1451  0.0293
 1030YOPC   GL114849   2.816  17.314   6.224 -0.1006  0.0145 -0.0571
 1030YOPC   GL214850   2.686  17.547   6.374 -0.0649 -0.3904 -0.1077
 1030YOPC   C1A14851   2.954  17.095   6.533  0.3009 -0.0963  0.1123
 1030YOPC   D2A14852   3.038  16.941   6.916  0.1177  0.1452 -0.0159
 1030YOPC   C3A14853   2.961  16.937   7.381 -0.1421 -0.0570  0.3630
 1030YOPC   C4A14854   3.064  17.250   7.713 -0.0817 -0.2856 -0.0426
 1030YOPC   C1B14855   2.758  17.460   6.782  0.1156  0.0424 -0.1227
 1030YOPC   C2B14856   2.670  17.307   7.173 -0.0011 -0.0796 -0.1420
 1030YOPC   D3B14857   2.774  17.652   7.587 -0.2853  0.2489 -0.0192
 1030YOPC   C4B14858   2.808  17.982   7.674  0.3117 -0.4737  0.1651
 1031YOPC   NC314859   7.403   8.698   5.297  0.0232  0.0089 -0.1334
 1031YOPC   PO414860   6.955   8.713   5.348 -0.1065  0.1448  0.0778
 1031YOPC   GL114861   6.895   8.821   5.789 -0.0835 -0.1093 -0.1309
 1031YOPC   GL214862   6.574   8.901   5.968  0.1684 -0.1234 -0.0010
 1031YOPC   C1A14863   7.077   8.955   6.184  0.1550 -0.0063  0.0994
 1031YOPC   D2A14864   7.071   9.220   6.511  0.0335  0.3079 -0.3771
 1031YOPC   C3A14865   6.786   9.089   6.967 -0.1087 -0.0602 -0.0979
 1031YOPC   C4A14866   6.800   9.161   7.520 -0.0942  0.2286 -0.1799
 1031YOPC   C1B14867   6.645   9.021   6.392  0.3652 -0.3076 -0.1023
 1031YOPC   C2B14868   6.663   9.454   6.631  0.0267  0.1380 -0.0328
 1031YOPC   D3B14869   7.028   9.453   6.976 -0.1238 -0.1437  0.1577
 1031YOPC   C4B14870   6.949   9.580   7.364 -0.0864  0.0765  0.1194
 1032YOPC   NC314871   7.822   4.818   5.832 -0.1062  0.2206  0.2913
 1032YOPC   PO414872   8.337   4.799   5.823  0.1680  0.0412  0.1024
 1032YOPC   GL114873   8.267   4.842   6.236  0.0186 -0.0698  0.2741
 1032YOPC   GL214874   8.637   4.765   6.430  0.1571 -0.0338 -0.3823
 1032YOPC   C1A14875   8.226   4.723   6.688 -0.1833 -0.0947 -0.0066
 1032YOPC   D2A14876   8.108   4.757   7.102 -0.1776 -0.1352 -0.2027
 1032YOPC   C3A14877   8.164   4.662   7.524 -0.0369  0.2364 -0.0906
 1032YOPC   C4A14878   8.434   4.767   7.840  0.2172  0.1088 -0.1105
 1032YOPC   C1B14879   8.680   4.698   6.838  0.1194 -0.0713 -0.0443
 1032YOPC   C2B14880   8.638   4.600   7.238  0.1296 -0.1270 -0.0255
 1032YOPC   D3B14881   8.802   4.784   7.541 -0.1165 -0.1028 -0.0272
 1032YOPC   C4B14882   9.157   4.982   7.836  0.0089 -0.2851 -0.0118
 1033YOPC   NC314883  15.711   4.674   5.567 -0.3142  0.1010 -0.1493
 1033YOPC   PO414884  15.550   4.221   5.539  0.2309 -0.0759 -0.2838
 1033YOPC   GL114885  15.288   4.355   5.859  0.5334 -0.1649  0.0105
 1033YOPC   GL214886  14.882   4.310   5.824  0.3731  0.0315  0.1731
 1033YOPC   C1A14887  15.307   4.541   6.272  0.0733  0.3204 -0.2594
 1033YOPC   D2A14888  15.337   4.726   6.740 -0.2923 -0.1122  0.1194
 1033YOPC   C3A14889  15.300   4.429   7.096  0.3218 -0.0998  0.5256
 1033YOPC   C4A14890  15.303   4.339   7.483  0.0504  0.0766 -0.0092
 1033YOPC   C1B14891  14.808   4.412   6.311  0.2916  0.0950  0.4545
 1033YOPC   C2B14892  14.943   4.271   6.651 -0.1852 -0.1238 -0.2132
 1033YOPC   D3B14893  14.847   4.547   6.959 -0.3083  0.1526 -0.1544
 1033YOPC   C4B14894  14.934   4.899   7.185 -0.0078  0.2312  0.1115
 1034YOPC   NC314895   1.220   2.595   5.798 -0.4855 -0.0550 -0.0653
 1034YOPC   PO414896   1.536   2.831   5.948  0.0152 -0.1021  0.2338
 1034YOPC   GL114897   1.719   2.713   6.390  0.0300 -0.0782  0.2826
 1034YOPC   GL214898   1.486   2.731   6.600  0.1027 -0.1091  0.1555
 1034YOPC   C1A14899   1.971   2.721   6.650 -0.0036 -0.0895  0.3752
 1034YOPC   D2A14900   2.127   2.675   6.980  0.0969  0.1215 -0.2256
 1034YOPC   C3A14901   2.309   2.865   7.259  0.0755  0.0267  0.0594
 1034YOPC   C4A14902   2.147   2.866   7.569 -0.0345 -0.1251  0.1177
 1034YOPC   C1B14903   1.607   2.610   7.011  0.0706  0.2045  0.3485
 1034YOPC   C2B14904   1.804   2.580   7.359 -0.0178 -0.0050  0.1936
 1034YOPC   D3B14905   1.637   2.877   7.689 -0.0730 -0.0387  0.2322
 1034YOPC   C4B14906   1.607   3.062   8.115  0.0297 -0.0735 -0.0058
 1035YOPC   NC314907  16.054  13.378   5.729  0.1561 -0.1652  0.0971
 1035YOPC   PO414908  15.754  13.756   5.610 -0.1988 -0.1046  0.0906
 1035YOPC   GL114909  15.700  13.716   6.003 -0.3192 -0.0359 -0.0967
 1035YOPC   GL214910  16.023  13.663   6.125  0.0104  0.0014  0.0447
 1035YOPC   C1A14911  15.647  13.732   6.498  0.2176 -0.1861  0.1861
 1035YOPC   D2A14912  15.826  13.691   6.864 -0.2452  0.2299 -0.0666
 1035YOPC   C3A14913  15.603  13.819   7.223  0.4504  0.1349  0.0795
 1035YOPC   C4A14914  15.467  14.003   7.620 -0.1111 -0.1599 -0.0017
 1035YOPC   C1B14915  16.127  13.469   6.458  0.1827 -0.2636 -0.0225
 1035YOPC   C2B14916  16.174  13.319   6.895  0.4565  0.0290 -0.1069
 1035YOPC   D3B14917  15.960  13.533   7.332 -0.0191  0.0904 -0.0826
 1035YOPC   C4B14918  15.908  13.635   7.762  0.1343 -0.0338 -0.1588
 1036YOPC   NC314919  10.843   7.264   5.764  0.3336 -0.0827  0.3439
 1036YOPC   PO414920  11.230   7.475   5.865  0.1303  0.3002 -0.3792
 1036YOPC   GL114921  11.179   7.638   6.258  0.1715  0.0791 -0.0158
 1036YOPC   GL214922  10.910   7.363   6.284 -0.0386 -0.0343  0.1183
 1036YOPC   C1A14923  11.182   7.522   6.717 -0.1470  0.3389 -0.1999
 1036YOPC   D2A14924  11.554   7.323   6.797 -0.3112 -0.0116 -0.0096
 1036YOPC   C3A14925  11.618   6.933   7.044  0.6693 -0.1135 -0.0077
 1036YOPC   C4A14926  12.008   6.766   7.253 -0.0543 -0.1700 -0.1303
 1036YOPC   C1B14927  10.760   7.241   6.612 -0.1267 -0.0533  0.0842
 1036YOPC   C2B14928  10.474   7.105   6.835 -0.2217  0.0375  0.0580
 1036YOPC   D3B14929  10.401   7.283   7.234  0.0323  0.1694  0.0532
 1036YOPC   C4B14930  10.264   7.086   7.611  0.0353 -0.0981 -0.0293
 1037YOPC   NC314931   2.811  10.754   5.715 -0.5554  0.0093  0.4655
 1037YOPC   PO414932   3.163  10.585   5.780  0.3745  0.0969  0.1684
 1037YOPC   GL114933   3.307  10.549   6.175  0.3356  0.1948 -0.0449
 1037YOPC   GL214934   3.566  10.814   6.315 -0.0026  0.0947 -0.1209
 1037YOPC   C1A14935   3.347  10.457   6.632  0.1347  0.1902 -0.2340
 1037YOPC   D2A14936   3.303  10.275   7.046 -0.0525 -0.1223 -0.1416
 1037YOPC   C3A14937   3.600  10.528   7.291  0.2458 -0.0012 -0.0207
 1037YOPC   C4A14938   3.827  10.838   7.354  0.0647  0.1259  0.3387
 1037YOPC   C1B14939   3.814  10.399   6.376 -0.0316 -0.3038 -0.1725
 1037YOPC   C2B14940   4.041   9.989   6.431  0.0675 -0.0340 -0.1644
 1037YOPC   D3B14941   4.167  10.011   6.879 -0.0741  0.3036 -0.0212
 1037YOPC   C4B14942   4.513   9.933   7.063 -0.2223 -0.1207  0.2176
 1038YOPC   NC314943  13.254   0.397   5.321  0.2257 -0.1534 -0.0218
 1038YOPC   PO414944  13.092   0.441   5.734 -0.1044  0.4500  0.1191
 1038YOPC   GL114945  12.963   0.585   6.095 -0.2480  0.0826 -0.0463
 1038YOPC   GL214946  12.718   0.766   6.114 -0.0261  0.0039 -0.0429
 1038YOPC   C1A14947  13.214   0.612   6.537 -0.2059 -0.2117 -0.2571
 1038YOPC   D2A14948  13.407   0.697   6.976  0.0968  0.0793 -0.2312
 1038YOPC   C3A14949  13.776   0.659   7.299 -0.2711 -0.0254  0.1073
 1038YOPC   C4A14950  14.208   0.587   7.380  0.1689  0.0024 -0.2293
 1038YOPC   C1B14951  12.682   0.779   6.540  0.2985  0.1765 -0.0212
 1038YOPC   C2B14952  12.797   0.742   6.938  0.0427 -0.0957 -0.0832
 1038YOPC   D3B14953  12.756   0.304   6.982 -0.1618 -0.0407  0.0955
 1038YOPC   C4B14954  12.873   0.005   6.699  0.1878 -0.1170  0.1264
 1039YOPC   NC314955   0.087  14.610   5.860  0.0790 -0.1462  0.0926
 1039YOPC   PO414956  -0.307  14.825   5.913 -0.2275 -0.1618  0.0100
 1039YOPC   GL114957  -0.140  15.082   6.269  0.0069 -0.0622  0.0180
 1039YOPC   GL214958   0.125  15.060   6.268 -0.0685 -0.1068 -0.0057
 1039YOPC   C1A14959  -0.153  15.093   6.737  0.1830  0.1673  0.2386
 1039YOPC   D2A14960  -0.337  15.196   7.172  0.0430 -0.1076  0.0305
 1039YOPC   C3A14961  -0.147  15.380   7.476 -0.3189 -0.2213 -0.3757
 1039YOPC   C4A14962   0.140  15.469   7.812 -0.0421  0.1681 -0.1796
 1039YOPC   C1B14963   0.401  14.912   6.603  0.2707 -0.2836  0.3032
 1039YOPC   C2B14964   0.533  14.654   7.033 -0.0065 -0.3761  0.1408
 1039YOPC   D3B14965   0.693  14.709   7.384 -0.1276 -0.0311 -0.1337
 1039YOPC   C4B14966   0.799  14.452   7.666  0.0517  0.0701  0.2175
 1040YOPC   NC314967   6.215  17.261   6.225 -0.0280  0.2953  0.1509
 1040YOPC   PO414968   6.268  16.848   6.132 -0.2784 -0.3282  0.2274
 1040YOPC   GL114969   6.004  16.907   6.524 -0.1947 -0.1018 -0.2162
 1040YOPC   GL214970   6.039  17.062   6.778 -0.0452 -0.2546  0.0589
 1040YOPC   C1A14971   5.626  16.753   6.820 -0.0244  0.1121  0.1064
 1040YOPC   D2A14972   5.524  16.511   7.054 -0.2528  0.2098 -0.1310
 1040YOPC   C3A14973   5.648  16.399   7.330 -0.2558 -0.0199  0.0722
 1040YOPC   C4A14974   6.131  16.353   7.520 -0.0287 -0.3092  0.1119
 1040YOPC   C1B14975   5.990  17.417   7.144  0.0863  0.0260  0.0941
 1040YOPC   C2B14976   6.252  17.466   7.488 -0.0203 -0.1271  0.0329
 1040YOPC   D3B14977   6.255  17.148   7.878  0.0420 -0.4819  0.1947
 1040YOPC   C4B14978   6.045  16.819   8.009  0.1669  0.1038  0.0369
 1041YOPC   NC314979  13.735   7.337   5.766  0.0841  0.1400  0.0836
 1041YOPC   PO414980  14.042   6.903   5.865  0.1195  0.2218 -0.4029
 1041YOPC   GL114981  13.727   6.956   6.178  0.1033  0.2059  0.0012
 1041YOPC   GL214982  13.718   7.193   6.314 -0.0083 -0.1114  0.0290
 1041YOPC   C1A14983  13.766   6.688   6.528  0.2128 -0.0833 -0.0658
 1041YOPC   D2A14984  13.766   6.649   6.957  0.1156 -0.1685  0.0971
 1041YOPC   C3A14985  14.104   6.634   7.332 -0.1383  0.3436 -0.1909
 1041YOPC   C4A14986  13.923   6.629   7.720  0.2940  0.0023  0.0097
 1041YOPC   C1B14987  13.487   7.069   6.688 -0.2644 -0.1701  0.3218
 1041YOPC   C2B14988  13.413   7.029   7.112 -0.3616 -0.1405  0.0858
 1041YOPC   D3B14989  13.478   6.682   7.396  0.0830  0.0055  0.1095
 1041YOPC   C4B14990  13.223   6.432   7.515  0.0833 -0.0313  0.0730
 1042YOPC   NC314991   6.425  16.418   6.377 -0.0159  0.2209 -0.0021
 1042YOPC   PO414992   6.788  16.453   6.455  0.3736  0.0333  0.3478
 1042YOPC   GL114993   6.672  16.418   6.903  0.0726  0.2557  0.0749
 1042YOPC   GL214994   6.614  16.760   6.916 -0.0471 -0.0005 -0.0505
 1042YOPC   C1A14995   6.562  16.460   7.345 -0.3028 -0.1755 -0.0722
 1042YOPC   D2A14996   6.443  16.711   7.624  0.0031  0.0588 -0.1935
 1042YOPC   C3A14997   6.640  16.640   7.902 -0.0479 -0.1977 -0.0907
 1042YOPC   C4A14998   6.677  16.463   8.326  0.1682  0.2625 -0.1504
 1042YOPC   C1B14999   6.883  16.806   7.143 -0.4641 -0.1000  0.1000
 1042YOPC   C2B15000   6.996  16.800   7.642 -0.1796 -0.2433 -0.0178
 1042YOPC   D3B15001   7.109  16.574   8.035  0.0175  0.1160  0.0776
 1042YOPC   C4B15002   7.305  16.421   8.420 -0.1724  0.0848  0.3497
 1043YOPC   NC315003   8.753  12.282   5.567 -0.0146  0.2108  0.0760
 1043YOPC   PO415004   8.219  12.319   5.610 -0.2735 -0.0697  0.2006
 1043YOPC   GL115005   7.879  12.261   5.913 -0.2628 -0.0980 -0.1712
 1043YOPC   GL215006   7.570  12.400   5.893  0.0440  0.1975  0.2694
 1043YOPC   C1A15007   7.693  12.176   6.338 -0.0572  0.1454 -0.0692
 1043YOPC   D2A15008   7.623  12.067   6.762 -0.2072 -0.1942 -0.0183
 1043YOPC   C3A15009   7.481  11.698   7.029  0.0694 -0.0972  0.1619
 1043YOPC   C4A15010   7.168  11.736   7.335  0.0621  0.2320  0.2352
 1043YOPC   C1B15011   7.267  12.464   6.165 -0.1159 -0.0100  0.0904
 1043YOPC   C2B15012   7.331  12.500   6.604  0.6180 -0.1403 -0.0750
 1043YOPC   D3B15013   7.555  12.739   6.830 -0.1664 -0.0771  0.1371
 1043YOPC   C4B15014   7.644  12.858   7.251  0.2017  0.2478  0.0745
 1044YOPC   NC315015   2.525   4.668   5.060  0.1297 -0.0324  0.0362
 1044YOPC   PO415016   2.645   4.722   5.517 -0.2471 -0.0925 -0.1240
 1044YOPC   GL115017   2.462   4.700   5.949  0.0758  0.2540 -0.0928
 1044YOPC   GL215018   2.076   4.840   5.867 -0.0846  0.0906  0.2689
 1044YOPC   C1A15019   2.385   4.748   6.327 -0.1284  0.2826  0.0953
 1044YOPC   D2A15020   2.211   4.993   6.686 -0.1137  0.1206  0.1340
 1044YOPC   C3A15021   2.265   4.895   7.065  0.2353  0.4151  0.1733
 1044YOPC   C4A15022   2.017   4.731   7.432  0.1971 -0.0256  0.0085
 1044YOPC   C1B15023   2.170   5.159   6.197  0.1949 -0.2996 -0.2537
 1044YOPC   C2B15024   2.258   5.480   6.570  0.0675  0.2209 -0.1870
 1044YOPC   D3B15025   2.163   5.476   6.964 -0.1400 -0.0487 -0.0309
 1044YOPC   C4B15026   2.287   5.391   7.225  0.0959  0.0187  0.1027
 1045YOPC   NC315027   3.243   5.817   5.888 -0.0259  0.0413 -0.0802
 1045YOPC   PO415028   3.291   5.274   5.759  0.2075  0.1829  0.1749
 1045YOPC   GL115029   3.261   5.297   6.178  0.3242  0.0776 -0.1351
 1045YOPC   GL215030   3.144   5.009   6.397 -0.0476 -0.0884 -0.0122
 1045YOPC   C1A15031   3.236   5.578   6.486 -0.1150  0.0144  0.1280
 1045YOPC   D2A15032   3.018   5.793   6.823  0.2178 -0.1706  0.1194
 1045YOPC   C3A15033   2.603   5.777   6.805 -0.0087 -0.1072  0.0432
 1045YOPC   C4A15034   2.203   6.000   6.868  0.1704  0.1593 -0.1158
 1045YOPC   C1B15035   3.292   5.197   6.803 -0.2494 -0.3072 -0.0820
 1045YOPC   C2B15036   3.187   5.434   7.182 -0.0801  0.0610 -0.1481
 1045YOPC   D3B15037   3.204   5.146   7.400  0.3374 -0.1705  0.2147
 1045YOPC   C4B15038   3.158   4.922   7.864 -0.0400 -0.0488  0.2308
 1046YOPC   NC315039   6.530   4.901   5.364  0.1155 -0.1384  0.0908
 1046YOPC   PO415040   6.672   5.001   5.819  0.1131  0.0016  0.0893
 1046YOPC   GL115041   6.728   5.062   6.215  0.0861  0.4579 -0.3617
 1046YOPC   GL215042   6.900   5.386   6.259 -0.1004 -0.0154 -0.1523
 1046YOPC   C1A15043   6.606   5.089   6.596 -0.0297  0.0155  0.5484
 1046YOPC   D2A15044   6.534   5.299   6.992  0.0472  0.0305 -0.1919
 1046YOPC   C3A15045   6.526   5.016   7.338  0.1213  0.1924 -0.0564
 1046YOPC   C4A15046   6.237   4.618   7.335  0.0570  0.0500 -0.2724
 1046YOPC   C1B15047   6.926   5.512   6.704  0.3168  0.0216  0.0368
 1046YOPC   C2B15048   7.003   5.574   7.176 -0.0207 -0.1670  0.0779
 1046YOPC   D3B15049   6.717   5.513   7.503  0.1053  0.2919  0.3690
 1046YOPC   C4B15050   6.590   5.131   7.837 -0.2933 -0.0794  0.0144
 1047YOPC   NC315051  15.345  17.018   5.980  0.0734 -0.0294 -0.1003
 1047YOPC   PO415052  14.985  17.200   6.235 -0.4020  0.2439  0.0749
 1047YOPC   GL115053  14.860  17.260   6.661  0.4912  0.0690  0.1088
 1047YOPC   GL215054  15.105  17.077   6.732  0.1507 -0.2368  0.2342
 1047YOPC   C1A15055  14.952  17.430   7.130  0.1868  0.1969 -0.0136
 1047YOPC   D2A15056  15.265  17.580   7.389 -0.0812  0.1781  0.0885
 1047YOPC   C3A15057  15.280  17.684   7.793  0.0139 -0.1252 -0.0139
 1047YOPC   C4A15058  15.364  17.912   8.139 -0.0434  0.2626 -0.0520
 1047YOPC   C1B15059  15.319  17.048   7.128  0.0340 -0.0610  0.1635
 1047YOPC   C2B15060  15.225  17.093   7.457  0.5023  0.1240 -0.2624
 1047YOPC   D3B15061  15.123  16.711   7.590  0.0319 -0.1496 -0.0783
 1047YOPC   C4B15062  15.327  16.642   7.948 -0.0571  0.2271  0.2648
 1048YOPC   NC315063   2.229  15.669   5.634  0.0830 -0.1015  0.2482
 1048YOPC   PO415064   2.186  15.323   5.874 -0.2130 -0.2210  0.3442
 1048YOPC   GL115065   1.976  15.449   6.159 -0.0985 -0.1187  0.3628
 1048YOPC   GL215066   1.692  15.669   6.116  0.0067  0.2575 -0.1808
 1048YOPC   C1A15067   2.196  15.492   6.528 -0.3217 -0.0247  0.2055
 1048YOPC   D2A15068   2.442  15.916   6.699 -0.2201 -0.1058 -0.1433
 1048YOPC   C3A15069   2.395  16.292   6.638 -0.1313  0.2141 -0.3161
 1048YOPC   C4A15070   2.142  16.669   6.776  0.1728 -0.2513  0.1296
 1048YOPC   C1B15071   1.586  15.525   6.476 -0.1372  0.0292  0.1849
 1048YOPC   C2B15072   1.291  15.313   6.660  0.0182  0.1716 -0.1313
 1048YOPC   D3B15073   1.189  15.382   7.058 -0.0063  0.3149  0.2146
 1048YOPC   C4B15074   1.253  15.606   7.464  0.1286 -0.0568  0.0462
 1049YOPC   NC315075  15.521   1.826   5.570 -0.1250 -0.1655 -0.0781
 1049YOPC   PO415076  15.195   2.096   5.773 -0.1177 -0.1369  0.1799
 1049YOPC   GL115077  15.296   1.953   6.176  0.0861  0.0766  0.0515
 1049YOPC   GL215078  15.177   1.721   6.282  0.2270 -0.0293  0.1323
 1049YOPC   C1A15079  15.657   1.769   6.331  0.0305 -0.5345 -0.4378
 1049YOPC   D2A15080  16.085   1.725   6.636  0.0235 -0.2764  0.0338
 1049YOPC   C3A15081  16.077   1.803   7.079 -0.1584 -0.1122 -0.0424
 1049YOPC   C4A15082  16.179   1.687   7.403 -0.2608 -0.1993  0.1378
 1049YOPC   C1B15083  15.233   1.747   6.713 -0.0886 -0.0292  0.2336
 1049YOPC   C2B15084  15.126   1.736   7.121 -0.0186 -0.1310  0.0250
 1049YOPC   D3B15085  15.325   2.038   7.390 -0.0546  0.0921 -0.0150
 1049YOPC   C4B15086  15.639   2.024   7.854 -0.0851 -0.0290 -0.0162
 1050YOPC   NC315087  13.918   3.904   5.112 -0.2548 -0.1598 -0.2343
 1050YOPC   PO415088  13.625   3.780   5.511 -0.0132 -0.3128  0.1571
 1050YOPC   GL115089  13.696   3.882   5.955 -0.2463 -0.0049  0.2190
 1050YOPC   GL215090  14.095   3.675   5.923 -0.1350  0.1248 -0.1528
 1050YOPC   C1A15091  13.677   3.868   6.402 -0.0499  0.0244 -0.1788
 1050YOPC   D2A15092  13.633   3.801   6.766 -0.1331 -0.1310  0.2611
 1050YOPC   C3A15093  13.732   3.486   7.083 -0.0204  0.0834 -0.0461
 1050YOPC   C4A15094  13.949   3.474   7.610 -0.1815 -0.4337  0.0501
 1050YOPC   C1B15095  14.251   3.746   6.322 -0.1001  0.0277 -0.1279
 1050YOPC   C2B15096  14.151   3.776   6.767  0.0843  0.2072  0.0210
 1050YOPC   D3B15097  14.352   3.592   7.150 -0.1157  0.0369  0.0960
 1050YOPC   C4B15098  14.475   3.926   7.486 -0.2158  0.2685 -0.1138
 1051YOPC   NC315099   9.274   1.678   6.127  0.2254  0.0326  0.0583
 1051YOPC   PO415100   8.875   1.532   6.188  0.0034 -0.0109 -0.1927
 1051YOPC   GL115101   9.041   1.450   6.600  0.1000  0.2048 -0.0772
 1051YOPC   GL215102   9.327   1.627   6.740 -0.0132  0.0866 -0.0920
 1051YOPC   C1A15103   8.916   1.629   6.998 -0.0018  0.0043 -0.5054
 1051YOPC   D2A15104   8.628   1.520   7.330  0.1580 -0.0366 -0.0301
 1051YOPC   C3A15105   8.879   1.626   7.700  0.1578  0.0207 -0.1262
 1051YOPC   C4A15106   9.205   1.888   7.896 -0.1043  0.2043 -0.0654
 1051YOPC   C1B15107   9.458   1.261   6.937  0.1022 -0.2778 -0.1229
 1051YOPC   C2B15108   9.649   1.050   7.282  0.1288  0.3176 -0.0043
 1051YOPC   D3B15109   9.757   0.734   7.245  0.0542 -0.0539 -0.0408
 1051YOPC   C4B15110   9.734   0.324   7.203 -0.3218 -0.0089 -0.2383
 1052YOPC   NC315111   1.578  16.892   6.013  0.2516 -0.2201 -0.1903
 1052YOPC   PO415112   1.887  17.304   5.988 -0.2236  0.0771  0.2368
 1052YOPC   GL115113   2.104  17.266   6.404  0.3115 -0.1265  0.0216
 1052YOPC   GL215114   2.429  17.083   6.489  0.2603  0.2530  0.0288
 1052YOPC   C1A15115   2.265  17.429   6.888 -0.3241  0.1351 -0.0546
 1052YOPC   D2A15116   2.146  17.460   7.289 -0.0970 -0.0943 -0.0491
 1052YOPC   C3A15117   2.355  17.352   7.644 -0.1406  0.0017  0.5596
 1052YOPC   C4A15118   2.645  16.967   7.777  0.0278  0.2139  0.1528
 1052YOPC   C1B15119   2.473  16.978   6.904  0.0568  0.0633 -0.0548
 1052YOPC   C2B15120   2.444  16.895   7.291  0.0504 -0.0575  0.1090
 1052YOPC   D3B15121   2.207  16.489   7.612  0.0732 -0.0684 -0.0207
 1052YOPC   C4B15122   2.281  16.530   8.018 -0.1505  0.0418 -0.0849
 1053YOPC   NC315123   0.703   1.883   6.188  0.2022  0.1400 -0.1888
 1053YOPC   PO415124   0.973   2.214   5.988 -0.1208 -0.5154 -0.1245
 1053YOPC   GL115125   1.090   2.159   6.386 -0.1811  0.0451 -0.0125
 1053YOPC   GL215126   0.894   1.978   6.638 -0.1396  0.2820 -0.1625
 1053YOPC   C1A15127   1.321   2.279   6.713 -0.0626  0.0921  0.0307
 1053YOPC   D2A15128   1.238   2.242   7.074  0.2579 -0.1450 -0.1060
 1053YOPC   C3A15129   1.265   2.586   7.365 -0.1706  0.0761 -0.0410
 1053YOPC   C4A15130   1.353   2.457   7.766 -0.0437  0.0686  0.0011
 1053YOPC   C1B15131   0.760   2.253   7.019  0.2575  0.1043  0.2619
 1053YOPC   C2B15132   0.488   2.381   7.393  0.0939 -0.2291  0.0470
 1053YOPC   D3B15133   0.443   2.220   7.770  0.1339 -0.0344 -0.0060
 1053YOPC   C4B15134   0.389   1.987   8.204 -0.2383  0.0533  0.0819
 1054YOPC   NC315135   1.849  14.944   5.892  0.0411 -0.2224  0.1429
 1054YOPC   PO415136   1.626  14.588   5.794 -0.0667 -0.0100  0.2178
 1054YOPC   GL115137   1.590  14.537   6.269  0.0649  0.0786  0.1331
 1054YOPC   GL215138   1.683  14.250   6.356  0.1258  0.0626 -0.0072
 1054YOPC   C1A15139   1.733  14.561   6.741  0.1258 -0.2969 -0.0015
 1054YOPC   D2A15140   1.865  14.565   7.172  0.1307 -0.3677  0.0232
 1054YOPC   C3A15141   1.636  14.740   7.484  0.2278  0.0271 -0.0841
 1054YOPC   C4A15142   1.686  14.758   7.874 -0.1114  0.1771  0.2970
 1054YOPC   C1B15143   1.715  13.795   6.527  0.1623  0.2967 -0.1431
 1054YOPC   C2B15144   1.527  13.744   6.963 -0.2660  0.2069 -0.1205
 1054YOPC   D3B15145   1.666  13.596   7.324 -0.1940 -0.0093 -0.0930
 1054YOPC   C4B15146   1.718  13.459   7.753  0.3103  0.0753  0.2861
 1055YOPC   NC315147  14.645  14.399   5.723 -0.0470  0.3001 -0.1020
 1055YOPC   PO415148  14.881  13.990   5.532  0.3698 -0.4118 -0.1870
 1055YOPC   GL115149  14.999  14.016   5.931  0.0840 -0.1314  0.1945
 1055YOPC   GL215150  15.353  14.029   5.991 -0.2989 -0.0020 -0.0919
 1055YOPC   C1A15151  14.915  14.192   6.326 -0.0908  0.4898  0.0354
 1055YOPC   D2A15152  14.952  14.014   6.747 -0.1769 -0.0409  0.1210
 1055YOPC   C3A15153  15.467  14.052   6.814 -0.0493 -0.0536 -0.1572
 1055YOPC   C4A15154  15.573  14.293   7.220  0.0305 -0.1052  0.0003
 1055YOPC   C1B15155  15.530  14.208   6.321  0.2236 -0.0121  0.0879
 1055YOPC   C2B15156  15.668  14.507   6.626  0.0953 -0.1285 -0.4446
 1055YOPC   D3B15157  15.554  14.918   6.655 -0.2396 -0.0806  0.1971
 1055YOPC   C4B15158  15.338  15.322   6.547  0.1960  0.0791 -0.1777
 1056YOPC   NC315159  17.296   9.092   6.010 -0.4139 -0.1895 -0.3556
 1056YOPC   PO415160  17.373   9.499   5.892  0.0698  0.6103 -0.0258
 1056YOPC   GL115161  17.380   9.469   6.384 -0.1385 -0.1995 -0.0130
 1056YOPC   GL215162  17.205   9.122   6.501 -0.2753  0.1351 -0.0039
 1056YOPC   C1A15163  17.735   9.355   6.615 -0.1315  0.0294  0.2076
 1056YOPC   D2A15164  18.166   9.116   6.594 -0.0858  0.1490 -0.0016
 1056YOPC   C3A15165  18.369   8.999   7.015  0.1885 -0.0418  0.0422
 1056YOPC   C4A15166  18.362   9.111   7.401  0.1333  0.2674 -0.3943
 1056YOPC   C1B15167  17.349   9.156   6.908  0.1322  0.1189  0.0713
 1056YOPC   C2B15168  17.523   9.527   7.153  0.0417  0.0796  0.1884
 1056YOPC   D3B15169  17.527   9.596   7.592 -0.0731 -0.0774 -0.0304
 1056YOPC   C4B15170  17.558   9.603   8.023 -0.0564 -0.0038  0.0267
 1057YOPC   NC315171  15.590  12.825   5.614 -0.0403  0.0167 -0.0944
 1057YOPC   PO415172  15.624  13.254   5.568 -0.1753  0.1540 -0.1565
 1057YOPC   GL115173  15.583  13.197   5.989  0.0197  0.0393  0.2587
 1057YOPC   GL215174  15.750  13.270   6.148 -0.0129 -0.2324  0.3521
 1057YOPC   C1A15175  15.347  13.089   6.316  0.1580 -0.2388  0.0143
 1057YOPC   D2A15176  15.005  13.056   6.642 -0.2620 -0.1157  0.1149
 1057YOPC   C3A15177  14.988  13.022   7.105 -0.0274  0.0140 -0.2251
 1057YOPC   C4A15178  15.100  13.065   7.534  0.0239  0.2305  0.0583
 1057YOPC   C1B15179  15.708  13.221   6.629 -0.2733 -0.4054 -0.2070
 1057YOPC   C2B15180  15.666  13.251   7.045 -0.0677 -0.0647 -0.1968
 1057YOPC   D3B15181  15.659  13.050   7.389  0.0588  0.1797  0.0347
 1057YOPC   C4B15182  15.449  12.710   7.592  0.0089 -0.2768 -0.1624
 1058YOPC   NC315183   6.409   9.543   5.203 -0.2165 -0.0076 -0.1558
 1058YOPC   PO415184   6.117   9.646   5.454  0.2538 -0.0437 -0.2530
 1058YOPC   GL115185   6.184   9.577   5.982 -0.1315 -0.1431 -0.0236
 1058YOPC   GL215186   6.396   9.525   6.149 -0.1772  0.1258 -0.0721
 1058YOPC   C1A15187   6.155   9.753   6.489  0.0913  0.0073 -0.0702
 1058YOPC   D2A15188   6.114   9.678   6.912  0.0801  0.0768  0.2007
 1058YOPC   C3A15189   6.418   9.594   7.303 -0.2028  0.1855 -0.0529
 1058YOPC   C4A15190   6.421   9.457   7.718  0.0686  0.1084  0.0364
 1058YOPC   C1B15191   6.771   9.455   6.101  0.1651  0.1066  0.1511
 1058YOPC   C2B15192   7.184   9.450   5.878 -0.1070 -0.0782 -0.0711
 1058YOPC   D3B15193   7.445   9.282   6.221 -0.0955  0.0173 -0.0396
 1058YOPC   C4B15194   7.761   9.447   6.427  0.2302 -0.3723  0.2659
 1059YOPC   NC315195   3.605  12.505   5.688 -0.0239 -0.0356  0.1597
 1059YOPC   PO415196   3.266  12.337   5.876  0.1594 -0.2845  0.0601
 1059YOPC   GL115197   3.045  12.308   6.229 -0.2465  0.1868  0.2219
 1059YOPC   GL215198   2.776  12.194   6.312 -0.4425 -0.0444 -0.0958
 1059YOPC   C1A15199   3.198  12.325   6.653 -0.1107 -0.0669 -0.1300
 1059YOPC   D2A15200   3.595  12.480   6.788 -0.2837 -0.3997  0.0602
 1059YOPC   C3A15201   3.584  12.499   7.204 -0.0940  0.1840  0.2735
 1059YOPC   C4A15202   3.426  12.574   7.571  0.1045  0.2540  0.1702
 1059YOPC   C1B15203   2.672  12.407   6.638 -0.2002 -0.1657  0.0969
 1059YOPC   C2B15204   2.684  12.325   7.095 -0.0414  0.0346 -0.5161
 1059YOPC   D3B15205   2.799  12.041   7.386 -0.1563  0.3191 -0.0581
 1059YOPC   C4B15206   2.831  11.792   7.735 -0.0126 -0.1676 -0.0349
 1060YOPC   NC315207   1.679   5.827   5.326 -0.0012 -0.1513  0.1689
 1060YOPC   PO415208   1.842   6.055   5.690 -0.0922  0.3138 -0.1278
 1060YOPC   GL115209   1.719   5.910   6.159  0.3823  0.1875  0.0223
 1060YOPC   GL215210   1.873   5.593   6.226 -0.0304 -0.3405  0.0237
 1060YOPC   C1A15211   1.690   5.815   6.629  0.0114  0.1543 -0.1179
 1060YOPC   D2A15212   1.769   5.793   7.096  0.3600 -0.0299  0.0823
 1060YOPC   C3A15213   1.864   5.630   7.463 -0.0212 -0.2649  0.1835
 1060YOPC   C4A15214   1.921   5.209   7.525  0.0616 -0.1045  0.0072
 1060YOPC   C1B15215   1.799   5.285   6.637  0.1161  0.0063 -0.0067
 1060YOPC   C2B15216   1.794   5.124   7.015 -0.0057 -0.2460 -0.0976
 1060YOPC   D3B15217   1.503   5.323   7.315  0.1157  0.1889 -0.1233
 1060YOPC   C4B15218   1.268   5.496   7.661 -0.1384 -0.2792  0.1350
 1061YOPC   NC315219   7.085   2.327   5.747  0.2325  0.0231  0.0607
 1061YOPC   PO415220   7.311   2.666   5.758  0.2170  0.2668 -0.2265
 1061YOPC   GL115221   7.274   2.755   6.065 -0.0648 -0.2514 -0.1748
 1061YOPC   GL215222   7.079   2.582   6.298  0.0910  0.2356  0.1570
 1061YOPC   C1A15223   7.551   2.739   6.393  0.1787 -0.2427  0.0693
 1061YOPC   D2A15224   7.540   2.893   6.842  0.3738  0.3489  0.2409
 1061YOPC   C3A15225   7.653   2.472   6.978  0.0746  0.2228  0.2248
 1061YOPC   C4A15226   8.038   2.249   6.936 -0.2855 -0.0808 -0.1045
 1061YOPC   C1B15227   7.105   2.980   6.513  0.0759 -0.3899 -0.2690
 1061YOPC   C2B15228   7.145   3.143   6.951 -0.0153  0.1859 -0.2480
 1061YOPC   D3B15229   7.385   3.034   7.310 -0.0727  0.1171 -0.1828
 1061YOPC   C4B15230   7.343   2.973   7.678 -0.0473 -0.3322  0.0752
 1062YOPC   NC315231  13.000   7.743   5.948 -0.0271 -0.0263  0.2074
 1062YOPC   PO415232  13.371   7.434   6.028  0.1632  0.0328  0.1759
 1062YOPC   GL115233  13.135   7.393   6.480 -0.3127  0.1848 -0.0394
 1062YOPC   GL215234  12.836   7.633   6.478  0.0005 -0.0010 -0.0827
 1062YOPC   C1A15235  13.015   7.391   6.903  0.0049 -0.0090  0.2929
 1062YOPC   D2A15236  12.711   7.343   7.214  0.0714 -0.2107 -0.0301
 1062YOPC   C3A15237  12.728   7.340   7.722  0.0752  0.0751  0.0988
 1062YOPC   C4A15238  12.656   7.136   8.125 -0.0481 -0.1705  0.2246
 1062YOPC   C1B15239  12.723   7.752   6.914  0.3762  0.0457 -0.1360
 1062YOPC   C2B15240  12.695   7.853   7.359 -0.2582  0.2307 -0.0655
 1062YOPC   D3B15241  12.899   7.774   7.656  0.2111  0.3090  0.4546
 1062YOPC   C4B15242  13.149   7.762   7.998 -0.0373 -0.1834 -0.1019
 1063YOPC   NC315243   7.957  13.504   5.464 -0.0618  0.0089  0.1479
 1063YOPC   PO415244   7.909  13.239   5.755  0.0143  0.2784 -0.0823
 1063YOPC   GL115245   7.577  12.932   5.871 -0.1324 -0.2911 -0.0663
 1063YOPC   GL215246   7.261  12.896   5.935  0.2102 -0.2542  0.5037
 1063YOPC   C1A15247   7.642  12.760   6.217  0.0261  0.0212 -0.1595
 1063YOPC   D2A15248   7.995  12.823   6.473 -0.3738  0.0008  0.1049
 1063YOPC   C3A15249   8.111  12.840   6.832  0.3229 -0.1312  0.0463
 1063YOPC   C4A15250   8.204  12.831   7.246 -0.2742  0.2141 -0.1943
 1063YOPC   C1B15251   7.200  12.951   6.355 -0.0192 -0.2441  0.0458
 1063YOPC   C2B15252   6.923  12.891   6.704  0.0396  0.0184  0.0788
 1063YOPC   D3B15253   7.092  12.603   7.085 -0.0094  0.1307  0.0206
 1063YOPC   C4B15254   7.183  12.680   7.528  0.0742  0.0523 -0.0914
 1064YOPC   NC315255  17.833   4.031   5.578 -0.1742  0.0988  0.1439
 1064YOPC   PO415256  17.804   4.330   5.813  0.1122  0.0049 -0.4213
 1064YOPC   GL115257  17.661   4.417   6.195  0.1174 -0.0716 -0.1368
 1064YOPC   GL215258  17.320   4.638   6.028 -0.3132 -0.1481  0.2441
 1064YOPC   C1A15259  17.714   4.327   6.621  0.1111  0.0723 -0.0325
 1064YOPC   D2A15260  18.113   4.084   6.668  0.0137  0.2019 -0.0816
 1064YOPC   C3A15261  18.337   4.087   7.106 -0.1939 -0.2758 -0.1080
 1064YOPC   C4A15262  18.449   4.133   7.465 -0.0947 -0.4403 -0.0451
 1064YOPC   C1B15263  17.256   4.491   6.437  0.0553  0.0385  0.2268
 1064YOPC   C2B15264  17.303   4.459   6.957  0.0238 -0.0208  0.0310
 1064YOPC   D3B15265  17.335   4.504   7.416  0.1478  0.1804  0.0298
 1064YOPC   C4B15266  17.426   4.369   7.843  0.0118  0.3667  0.0290
 1065YOPC   NC315267   0.907   5.732   5.711 -0.0565 -0.2000 -0.1471
 1065YOPC   PO415268   1.072   5.460   6.076  0.2329  0.0561 -0.1944
 1065YOPC   GL115269   0.915   5.749   6.442  0.2494 -0.2444 -0.1533
 1065YOPC   GL215270   1.179   5.936   6.634 -0.0295  0.0193  0.0486
 1065YOPC   C1A15271   0.632   5.779   6.831  0.1996 -0.0635  0.2289
 1065YOPC   D2A15272   0.404   5.966   7.122  0.0645  0.3505 -0.0902
 1065YOPC   C3A15273  -0.044   6.055   7.167 -0.0485 -0.0807 -0.0096
 1065YOPC   C4A15274  -0.287   5.988   7.517 -0.1357  0.0002  0.0570
 1065YOPC   C1B15275   1.347   6.116   6.923 -0.0732  0.1941  0.1919
 1065YOPC   C2B15276   1.669   6.374   7.008 -0.2578 -0.0418  0.3006
 1065YOPC   D3B15277   1.994   6.153   7.344  0.2067 -0.0029 -0.3011
 1065YOPC   C4B15278   2.330   5.829   7.398  0.0276  0.2678  0.0408
 1066YOPC   NC315279   7.235   4.228   5.936 -0.3460 -0.0249 -0.0201
 1066YOPC   PO415280   7.648   4.371   5.817 -0.4732  0.0624 -0.1706
 1066YOPC   GL115281   7.578   4.521   6.167 -0.1690  0.0734 -0.0995
 1066YOPC   GL215282   7.875   4.445   6.320  0.0385 -0.0144  0.1118
 1066YOPC   C1A15283   7.557   4.763   6.552  0.0759 -0.1235  0.0440
 1066YOPC   D2A15284   7.593   4.885   6.890 -0.1008  0.0921 -0.0168
 1066YOPC   C3A15285   7.401   5.197   7.098  0.0005 -0.0400 -0.0856
 1066YOPC   C4A15286   7.529   5.333   7.500 -0.0231  0.0454 -0.2984
 1066YOPC   C1B15287   7.868   4.396   6.687  0.0962 -0.0103 -0.0345
 1066YOPC   C2B15288   7.789   4.435   7.149 -0.1145  0.1705 -0.1818
 1066YOPC   D3B15289   7.681   4.777   7.411  0.1100  0.3294 -0.3339
 1066YOPC   C4B15290   7.495   4.912   7.763 -0.0384  0.1990  0.0578
 1067YOPC   NC315291  12.878   9.795   5.908 -0.1944 -0.0583 -0.2218
 1067YOPC   PO415292  13.225   9.552   5.874 -0.0656  0.2300  0.2024
 1067YOPC   GL115293  12.992   9.269   6.103 -0.0416  0.0472  0.0844
 1067YOPC   GL215294  12.741   9.010   6.080 -0.0786 -0.1557 -0.0952
 1067YOPC   C1A15295  12.666   9.265   6.457 -0.1245  0.0563  0.0496
 1067YOPC   D2A15296  12.519   9.220   6.738  0.0881  0.1718  0.0075
 1067YOPC   C3A15297  12.704   9.177   7.108 -0.2815 -0.2946 -0.0856
 1067YOPC   C4A15298  12.531   9.072   7.473 -0.2394  0.0743  0.5241
 1067YOPC   C1B15299  12.932   8.809   6.406 -0.0468  0.1281  0.2335
 1067YOPC   C2B15300  13.085   9.141   6.650 -0.0315  0.1082  0.0580
 1067YOPC   D3B15301  13.408   9.115   7.033 -0.1341  0.0774 -0.2955
 1067YOPC   C4B15302  13.567   8.929   7.446  0.0167  0.0000 -0.2810
 1068YOPC   NC315303   0.987  10.354   5.911  0.0817  0.4233  0.0407
 1068YOPC   PO415304   1.388  10.591   6.103 -0.4755  0.0553  0.0310
 1068YOPC   GL115305   1.647  10.441   6.435 -0.0592  0.1433  0.0092
 1068YOPC   GL215306   1.914  10.517   6.568 -0.2675 -0.2651  0.1618
 1068YOPC   C1A15307   1.481  10.358   6.880 -0.1577  0.2169  0.1943
 1068YOPC   D2A15308   1.475  10.305   7.321 -0.2726  0.2087 -0.1950
 1068YOPC   C3A15309   1.539  10.645   7.580  0.0355 -0.0170  0.1467
 1068YOPC   C4A15310   1.328  10.713   7.954 -0.2532 -0.1006  0.2456
 1068YOPC   C1B15311   2.252  10.582   6.829 -0.1575 -0.4085 -0.0525
 1068YOPC   C2B15312   2.520  10.767   7.041  0.1204  0.1741 -0.0668
 1068YOPC   D3B15313   2.342  10.802   7.424  0.0681 -0.2640  0.0654
 1068YOPC   C4B15314   2.396  10.979   7.879  0.1082  0.2354  0.1359
 1069YOPC   NC315315  17.315  17.874   5.556 -0.4645  0.0494  0.1859
 1069YOPC   PO415316  17.683  18.188   5.678  0.1429 -0.2035 -0.3637
 1069YOPC   GL115317  17.790  18.189   6.105  0.2869  0.1262 -0.0853
 1069YOPC   GL215318  17.615  18.365   6.224  0.0778 -0.0910  0.0609
 1069YOPC   C1A15319  17.848  17.765   6.407  0.1900  0.3152 -0.0749
 1069YOPC   D2A15320  17.886  17.394   6.651  0.4855  0.0890  0.1024
 1069YOPC   C3A15321  17.693  17.398   7.048 -0.1284 -0.1233  0.0935
 1069YOPC   C4A15322  17.535  17.586   7.408  0.3250  0.1593  0.0242
 1069YOPC   C1B15323  17.594  18.346   6.641  0.0226  0.3916 -0.1483
 1069YOPC   C2B15324  17.583  18.269   7.066 -0.2229  0.2678 -0.1476
 1069YOPC   D3B15325  17.529  18.133   7.466  0.1065  0.2166 -0.3172
 1069YOPC   C4B15326  17.641  17.999   7.943 -0.2257 -0.2934 -0.1831
 1070YOPC   NC315327  18.128   6.114   5.872 -0.0657  0.2102  0.0930
 1070YOPC   PO415328  18.276   5.648   5.833 -0.3092 -0.0070 -0.0024
 1070YOPC   GL115329  18.272   5.653   6.257 -0.2313 -0.0300 -0.0469
 1070YOPC   GL215330  18.165   5.913   6.393 -0.0338  0.0922  0.2486
 1070YOPC   C1A15331  18.539   5.347   6.506 -0.1231 -0.0667 -0.2222
 1070YOPC   D2A15332  18.516   5.201   6.939  0.0494  0.0769 -0.1370
 1070YOPC   C3A15333  18.692   4.983   7.167 -0.3208  0.2135  0.2392
 1070YOPC   C4A15334  18.860   4.958   7.493  0.1668  0.2264 -0.0779
 1070YOPC   C1B15335  18.330   5.730   6.788  0.0223 -0.4108 -0.1434
 1070YOPC   C2B15336  18.317   5.562   7.211  0.0386 -0.0575 -0.0562
 1070YOPC   D3B15337  18.568   5.373   7.528 -0.0718 -0.0348  0.1975
 1070YOPC   C4B15338  18.567   5.041   7.898  0.1561  0.1823 -0.1291
 1071YOPC   NC315339  17.712  17.401   5.591  0.1402 -0.1086 -0.1586
 1071YOPC   PO415340  18.148  17.353   5.706  0.1692 -0.0030 -0.1872
 1071YOPC   GL115341  18.256  17.448   6.147  0.0230  0.1796 -0.0731
 1071YOPC   GL215342  18.343  17.260   6.464  0.0029 -0.0967  0.1231
 1071YOPC   C1A15343  18.338  17.804   6.439 -0.1473  0.1424  0.3182
 1071YOPC   D2A15344  18.573  18.109   6.633 -0.1614 -0.0829 -0.1963
 1071YOPC   C3A15345  18.502  18.105   6.985 -0.0288  0.0280 -0.0577
 1071YOPC   C4A15346  18.338  17.930   7.354 -0.1020  0.0047  0.0300
 1071YOPC   C1B15347  18.286  17.140   6.862 -0.2617  0.2050  0.1007
 1071YOPC   C2B15348  18.406  17.093   7.348 -0.4784  0.1360  0.0872
 1071YOPC   D3B15349  18.248  16.817   7.501  0.0015 -0.1379 -0.2154
 1071YOPC   C4B15350  18.444  16.621   7.802 -0.0181 -0.0455 -0.2632
 1072YOPC   NC315351  18.007   6.524   5.715 -0.4059 -0.2995 -0.0833
 1072YOPC   PO415352  17.622   6.655   5.843  0.1581  0.2157  0.2410
 1072YOPC   GL115353  17.571   6.866   6.225  0.3213 -0.0683 -0.0911
 1072YOPC   GL215354  17.325   6.746   6.397  0.1988  0.0220  0.1131
 1072YOPC   C1A15355  17.899   6.893   6.569  0.0772 -0.1521  0.1813
 1072YOPC   D2A15356  18.278   6.802   6.652  0.0672  0.2637  0.0045
 1072YOPC   C3A15357  18.423   6.313   6.640 -0.1226  0.0706 -0.1905
 1072YOPC   C4A15358  18.645   5.995   6.428 -0.3066 -0.1558 -0.3759
 1072YOPC   C1B15359  17.340   6.684   6.851  0.2240 -0.2354 -0.0416
 1072YOPC   C2B15360  17.346   6.670   7.247 -0.1841 -0.3348 -0.1432
 1072YOPC   D3B15361  17.475   6.963   7.474 -0.3192 -0.1070  0.1617
 1072YOPC   C4B15362  17.916   6.919   7.567  0.2826 -0.0119 -0.0926
 1073YOPC   NC315363   8.025   8.400   5.749 -0.0096 -0.3510 -0.1852
 1073YOPC   PO415364   7.641   8.200   5.720  0.0776 -0.2976 -0.2731
 1073YOPC   GL115365   7.642   8.401   6.068  0.2439 -0.1025  0.1656
 1073YOPC   GL215366   7.904   8.420   6.206 -0.3208 -0.1918 -0.1477
 1073YOPC   C1A15367   7.557   8.791   6.293  0.1226 -0.2190 -0.2472
 1073YOPC   D2A15368   7.407   8.948   6.740  0.0404  0.1022 -0.0569
 1073YOPC   C3A15369   7.535   9.373   6.934 -0.0866  0.0103  0.2219
 1073YOPC   C4A15370   7.547   9.602   7.291 -0.3202  0.0211 -0.6460
 1073YOPC   C1B15371   7.888   8.660   6.614  0.1608 -0.2476  0.1521
 1073YOPC   C2B15372   7.919   9.082   6.728 -0.0061  0.1527  0.5433
 1073YOPC   D3B15373   7.910   9.095   7.142  0.1364 -0.1819  0.0390
 1073YOPC   C4B15374   7.980   9.385   7.304 -0.0000  0.4179  0.1147
 1074YOPC   NC315375  14.177  12.711   5.925 -0.2529 -0.0308 -0.0142
 1074YOPC   PO415376  13.904  13.057   5.800 -0.1155 -0.4916  0.1237
 1074YOPC   GL115377  13.907  13.332   6.120 -0.0214 -0.1118 -0.0569
 1074YOPC   GL215378  13.614  13.563   6.186  0.2622 -0.3795  0.0042
 1074YOPC   C1A15379  13.952  13.495   6.548 -0.0760 -0.1119 -0.3267
 1074YOPC   D2A15380  14.096  13.795   6.884  0.1915  0.0308  0.0097
 1074YOPC   C3A15381  14.239  13.712   7.282 -0.0009  0.0185  0.2776
 1074YOPC   C4A15382  14.430  13.858   7.624  0.1207 -0.0264 -0.2724
 1074YOPC   C1B15383  13.572  13.134   6.478  0.0319 -0.1438  0.2226
 1074YOPC   C2B15384  13.506  12.867   6.819 -0.0136 -0.1732  0.2164
 1074YOPC   D3B15385  13.567  12.939   7.290 -0.1568 -0.1317 -0.2448
 1074YOPC   C4B15386  13.531  13.125   7.603 -0.2672  0.0606 -0.1381
 1075YOPC   NC315387   0.528  12.665   5.472  0.1780 -0.0557  0.0918
 1075YOPC   PO415388   0.322  12.616   5.871 -0.1704 -0.2690  0.3127
 1075YOPC   GL115389   0.472  12.763   6.240  0.1769  0.3884 -0.1853
 1075YOPC   GL215390   0.184  12.896   6.244  0.1599  0.1101  0.0170
 1075YOPC   C1A15391   0.464  12.822   6.688 -0.0721 -0.0045  0.0147
 1075YOPC   D2A15392   0.452  13.123   7.040  0.0513  0.1329  0.0470
 1075YOPC   C3A15393   0.717  13.208   7.405  0.4278  0.0034  0.1627
 1075YOPC   C4A15394   0.917  13.022   7.825  0.1936 -0.1314  0.0045
 1075YOPC   C1B15395  -0.008  12.944   6.638  0.1307 -0.1647  0.2643
 1075YOPC   C2B15396  -0.060  12.904   7.063 -0.0415 -0.0187 -0.0133
 1075YOPC   D3B15397  -0.038  13.014   7.565 -0.0379 -0.1685  0.0270
 1075YOPC   C4B15398  -0.117  12.959   7.910  0.5079 -0.2771  0.0636
 1076YOPC   NC315399   5.205  12.882   5.863 -0.0223 -0.0678  0.0969
 1076YOPC   PO415400   5.477  12.490   5.690 -0.3076  0.1533  0.2725
 1076YOPC   GL115401   5.623  12.403   6.045 -0.3793  0.1337  0.1083
 1076YOPC   GL215402   5.593  12.145   6.067  0.0717  0.2313  0.0124
 1076YOPC   C1A15403   6.054  12.427   6.183  0.2295 -0.2112 -0.1963
 1076YOPC   D2A15404   6.308  12.264   6.458  0.2189 -0.0106 -0.0197
 1076YOPC   C3A15405   6.463  12.525   6.778  0.1123  0.0763  0.1671
 1076YOPC   C4A15406   6.588  12.520   7.153 -0.1994  0.2572 -0.0838
 1076YOPC   C1B15407   5.841  12.047   6.520 -0.2318  0.0674 -0.2016
 1076YOPC   C2B15408   6.037  12.214   6.940  0.3098  0.1933  0.2898
 1076YOPC   D3B15409   5.843  12.232   7.241  0.1536  0.2883  0.2321
 1076YOPC   C4B15410   5.873  12.537   7.568  0.0741  0.3645 -0.1501
 1077YOPC   NC315411  12.303   7.034   6.079 -0.2167  0.1730  0.0667
 1077YOPC   PO415412  12.143   7.491   5.893  0.1104  0.0942  0.2075
 1077YOPC   GL115413  12.090   7.631   6.261 -0.1435  0.0989  0.1327
 1077YOPC   GL215414  12.374   7.525   6.343 -0.1016 -0.1407  0.1722
 1077YOPC   C1A15415  12.180   7.756   6.729  0.0809  0.0212 -0.3454
 1077YOPC   D2A15416  12.264   7.745   7.143  0.0549 -0.0434 -0.0236
 1077YOPC   C3A15417  12.135   7.992   7.527  0.1111 -0.0938 -0.1086
 1077YOPC   C4A15418  11.800   8.178   7.715  0.0674 -0.0538 -0.0138
 1077YOPC   C1B15419  12.494   7.305   6.690 -0.2273 -0.0341  0.1242
 1077YOPC   C2B15420  12.449   6.967   7.027  0.4155  0.3107  0.3208
 1077YOPC   D3B15421  12.586   6.885   7.504  0.0715  0.0576 -0.1711
 1077YOPC   C4B15422  12.793   6.653   7.877 -0.0932 -0.0921 -0.1218
 1078YOPC   NC315423   5.042   0.094   5.235 -0.2699  0.2582  0.0419
 1078YOPC   PO415424   4.876  -0.121   5.564 -0.1463 -0.0024  0.1647
 1078YOPC   GL115425   4.982  -0.082   6.039  0.0400 -0.0790 -0.1642
 1078YOPC   GL215426   4.834  -0.376   6.277 -0.3707 -0.0834 -0.1879
 1078YOPC   C1A15427   5.211  -0.109   6.370 -0.2647 -0.1845  0.1947
 1078YOPC   D2A15428   5.454   0.026   6.644 -0.1895  0.1419 -0.1971
 1078YOPC   C3A15429   5.376   0.059   6.961  0.0908  0.3497  0.0186
 1078YOPC   C4A15430   5.260   0.222   7.268  0.2137  0.0912  0.4075
 1078YOPC   C1B15431   4.627  -0.445   6.621  0.0182  0.0388  0.2010
 1078YOPC   C2B15432   4.647  -0.593   7.040  0.0882  0.0024 -0.2960
 1078YOPC   D3B15433   4.546  -0.377   7.276  0.1197  0.2366 -0.0156
 1078YOPC   C4B15434   4.521  -0.385   7.696  0.1981  0.0661  0.3622
 1079YOPC   NC315435  13.091   5.948   5.525 -0.2363 -0.0446  0.1732
 1079YOPC   PO415436  13.170   6.404   5.621 -0.1190 -0.1102  0.1652
 1079YOPC   GL115437  13.002   6.325   6.080  0.1815  0.2960  0.2082
 1079YOPC   GL215438  12.916   6.077   6.067  0.1697  0.1004  0.0626
 1079YOPC   C1A15439  12.802   6.230   6.472  0.2051 -0.0645  0.0431
 1079YOPC   D2A15440  12.708   6.084   6.918 -0.1620 -0.1316 -0.0531
 1079YOPC   C3A15441  12.476   5.902   7.199  0.0232  0.1787  0.1443
 1079YOPC   C4A15442  12.407   6.004   7.696  0.0287 -0.0110 -0.3162
 1079YOPC   C1B15443  13.175   5.944   6.432  0.1886 -0.0433 -0.0966
 1079YOPC   C2B15444  13.466   5.707   6.663 -0.0862 -0.0037 -0.3326
 1079YOPC   D3B15445  13.466   5.670   7.067 -0.0844 -0.1524  0.0980
 1079YOPC   C4B15446  13.530   5.659   7.504 -0.1658  0.0424  0.2366
 1080YOPC   NC315447   7.978   2.028   5.787 -0.0176  0.2457 -0.0726
 1080YOPC   PO415448   8.252   2.210   5.965 -0.0475  0.1720  0.0130
 1080YOPC   GL115449   8.065   2.375   6.325 -0.2997  0.0106  0.2996
 1080YOPC   GL215450   7.723   2.270   6.515 -0.0891 -0.0523 -0.1130
 1080YOPC   C1A15451   8.027   2.681   6.699 -0.0022 -0.3485 -0.0646
 1080YOPC   D2A15452   8.023   2.942   7.024 -0.0121 -0.1258  0.3175
 1080YOPC   C3A15453   7.861   2.831   7.373  0.0379 -0.2762  0.1167
 1080YOPC   C4A15454   7.969   2.865   7.890  0.1727  0.0369  0.0928
 1080YOPC   C1B15455   7.272   2.328   6.607  0.0372  0.1126 -0.0819
 1080YOPC   C2B15456   6.943   2.608   6.800  0.0830 -0.0152  0.0263
 1080YOPC   D3B15457   7.056   2.697   7.147  0.0411  0.0038 -0.2124
 1080YOPC   C4B15458   6.943   2.601   7.585  0.0965 -0.1332 -0.1924
 1081YOPC   NC315459   3.937  16.662   5.884  0.1313  0.1227 -0.1654
 1081YOPC   PO415460   3.799  16.208   5.831 -0.0307  0.0557 -0.0723
 1081YOPC   GL115461   3.876  16.121   6.263 -0.1457  0.1566 -0.0528
 1081YOPC   GL215462   4.082  16.355   6.270  0.1047  0.3324  0.2219
 1081YOPC   C1A15463   3.986  15.875   6.604  0.1508 -0.0940  0.1660
 1081YOPC   D2A15464   4.148  15.912   7.039  0.2382 -0.0772 -0.0387
 1081YOPC   C3A15465   3.931  15.830   7.356 -0.2227  0.2139 -0.1117
 1081YOPC   C4A15466   3.535  15.684   7.632 -0.1598  0.0618  0.1771
 1081YOPC   C1B15467   4.304  16.273   6.630 -0.2685 -0.0676  0.1641
 1081YOPC   C2B15468   4.327  16.382   7.025  0.1065  0.2041 -0.1115
 1081YOPC   D3B15469   4.158  16.357   7.404  0.1110 -0.0470 -0.3854
 1081YOPC   C4B15470   4.016  16.476   7.874 -0.0061 -0.1358  0.2007
 1082YOPC   NC315471   5.272  10.494   5.600  0.1265  0.4428  0.1129
 1082YOPC   PO415472   5.615  10.227   5.726  0.1809 -0.1395  0.0765
 1082YOPC   GL115473   5.637  10.118   6.157  0.0224 -0.0595 -0.2829
 1082YOPC   GL215474   5.683   9.812   6.212 -0.0901  0.0640 -0.1600
 1082YOPC   C1A15475   5.407  10.211   6.560 -0.0222  0.1241  0.2190
 1082YOPC   D2A15476   5.510  10.338   7.027 -0.0039 -0.1306 -0.3789
 1082YOPC   C3A15477   5.899  10.183   6.951 -0.1331 -0.1206  0.1373
 1082YOPC   C4A15478   6.328  10.114   7.029  0.0531  0.2072  0.0766
 1082YOPC   C1B15479   5.729   9.452   6.492 -0.1432 -0.2470  0.2362
 1082YOPC   C2B15480   5.756   9.185   6.925 -0.0044 -0.1518  0.1745
 1082YOPC   D3B15481   5.839   9.364   7.316 -0.2549 -0.1346 -0.1618
 1082YOPC   C4B15482   5.876   9.583   7.710 -0.0490 -0.3147  0.1456
 1083YOPC   NC315483   4.568  12.648   5.413 -0.3359 -0.1021  0.2514
 1083YOPC   PO415484   4.271  12.297   5.478  0.3446  0.3839  0.3589
 1083YOPC   GL115485   4.537  12.156   5.815  0.1079  0.0484  0.2833
 1083YOPC   GL215486   4.653  12.291   6.068  0.0543 -0.0086 -0.1954
 1083YOPC   C1A15487   4.970  11.925   6.021  0.1843 -0.0012 -0.0546
 1083YOPC   D2A15488   4.881  12.014   6.475  0.4007 -0.1331 -0.1355
 1083YOPC   C3A15489   4.972  11.649   6.755 -0.1310 -0.0242 -0.1420
 1083YOPC   C4A15490   5.133  11.517   7.062 -0.1212  0.3125  0.0180
 1083YOPC   C1B15491   4.505  12.404   6.498 -0.2253  0.3636 -0.0781
 1083YOPC   C2B15492   4.505  12.065   6.854 -0.2484 -0.3130 -0.2725
 1083YOPC   D3B15493   4.438  12.237   7.324 -0.0792  0.1344 -0.3620
 1083YOPC   C4B15494   4.447  12.525   7.653  0.0450 -0.1992 -0.0961
 1084YOPC   NC315495   3.407   9.415   5.496  0.0523 -0.0953 -0.0143
 1084YOPC   PO415496   3.137   9.526   5.849 -0.2030  0.0801  0.0852
 1084YOPC   GL115497   3.017   9.681   6.289  0.1541 -0.0981  0.2232
 1084YOPC   GL215498   2.964  10.068   6.353 -0.0184 -0.2054 -0.0601
 1084YOPC   C1A15499   2.747   9.601   6.689 -0.0730  0.0554 -0.4602
 1084YOPC   D2A15500   2.693   9.467   7.146 -0.3746 -0.0741 -0.1728
 1084YOPC   C3A15501   2.625   9.694   7.529 -0.1416 -0.0772  0.1931
 1084YOPC   C4A15502   2.385   9.925   7.875  0.2175 -0.0214  0.2337
 1084YOPC   C1B15503   3.085   9.974   6.747 -0.0540  0.1312 -0.0607
 1084YOPC   C2B15504   2.993   9.853   7.198 -0.3243 -0.2295  0.1765
 1084YOPC   D3B15505   3.204   9.970   7.485  0.4341  0.0281 -0.0315
 1084YOPC   C4B15506   3.343   9.857   7.845 -0.2914 -0.0354  0.2226
 1085YOPC   NC315507  12.167   4.675   5.834 -0.3126 -0.1842  0.0413
 1085YOPC   PO415508  12.568   4.561   5.868 -0.2693  0.1634  0.1634
 1085YOPC   GL115509  12.758   4.781   6.175 -0.4575 -0.0595 -0.0586
 1085YOPC   GL215510  12.786   5.184   6.202  0.0329 -0.0242 -0.0051
 1085YOPC   C1A15511  13.114   4.812   6.497 -0.1876  0.2922  0.1423
 1085YOPC   D2A15512  13.244   4.643   6.951 -0.4286  0.0225  0.0820
 1085YOPC   C3A15513  13.362   4.675   7.279  0.0827  0.1314 -0.3719
 1085YOPC   C4A15514  13.028   4.749   7.521  0.0997 -0.0633 -0.0359
 1085YOPC   C1B15515  12.708   5.137   6.706  0.1215  0.1616 -0.0052
 1085YOPC   C2B15516  12.879   5.000   7.036 -0.0351 -0.0052 -0.0369
 1085YOPC   D3B15517  12.667   4.662   7.229 -0.0041 -0.0051 -0.2856
 1085YOPC   C4B15518  12.331   4.474   7.462 -0.4979  0.1906 -0.1280
 1086YOPC   NC315519  12.179  12.462   5.550  0.0101  0.3460 -0.3166
 1086YOPC   PO415520  12.130  12.785   5.957 -0.0721 -0.1486 -0.0864
 1086YOPC   GL115521  12.243  12.717   6.395  0.0155 -0.2488  0.0960
 1086YOPC   GL215522  12.578  12.908   6.547 -0.1875 -0.1703 -0.1374
 1086YOPC   C1A15523  12.399  12.572   6.860  0.1655  0.1049 -0.0539
 1086YOPC   D2A15524  12.708  12.356   7.074 -0.1153 -0.1260  0.0041
 1086YOPC   C3A15525  12.841  12.257   7.420 -0.1376  0.1216 -0.1382
 1086YOPC   C4A15526  13.113  12.360   7.739  0.1564  0.0630 -0.2753
 1086YOPC   C1B15527  12.616  12.996   7.054 -0.0950 -0.0525 -0.0537
 1086YOPC   C2B15528  12.677  13.134   7.330  0.1023 -0.0543 -0.3856
 1086YOPC   D3B15529  12.633  13.042   7.746  0.3045 -0.2471  0.2290
 1086YOPC   C4B15530  12.705  13.162   8.155 -0.2244 -0.1492 -0.4490
 1087YOPC   NC315531  18.150   0.496   5.383  0.2912 -0.0852 -0.0024
 1087YOPC   PO415532  18.396   0.424   5.751 -0.0996  0.0967  0.0469
 1087YOPC   GL115533  18.471   0.444   6.198 -0.2788 -0.0679  0.0528
 1087YOPC   GL215534  18.173   0.453   6.234 -0.0646 -0.1980  0.0297
 1087YOPC   C1A15535  18.531   0.419   6.640  0.0332  0.1120 -0.0102
 1087YOPC   D2A15536  18.722   0.347   6.935  0.0496 -0.0563  0.2632
 1087YOPC   C3A15537  18.563   0.403   7.192 -0.0724 -0.0246 -0.2709
 1087YOPC   C4A15538  18.419   0.391   7.575  0.1003  0.0064  0.0466
 1087YOPC   C1B15539  18.123   0.066   6.489 -0.0715  0.3102  0.1832
 1087YOPC   C2B15540  18.052  -0.112   6.782  0.0116 -0.0178  0.0488
 1087YOPC   D3B15541  18.204  -0.510   6.890  0.1061  0.1823  0.1362
 1087YOPC   C4B15542  18.179  -0.680   7.221 -0.0427  0.1300  0.0389
 1088YOPC   NC315543  17.616   1.449   5.954  0.0160  0.2356 -0.0455
 1088YOPC   PO415544  17.779   1.040   5.932 -0.1322 -0.2141  0.2289
 1088YOPC   GL115545  17.787   1.205   6.363  0.1289 -0.1229  0.1304
 1088YOPC   GL215546  17.959   1.152   6.570  0.3583 -0.0323 -0.0902
 1088YOPC   C1A15547  17.495   1.113   6.771 -0.1765 -0.0107  0.1115
 1088YOPC   D2A15548  17.256   1.036   7.011  0.0829  0.0770  0.1627
 1088YOPC   C3A15549  17.315   1.087   7.390  0.0905 -0.1106  0.2064
 1088YOPC   C4A15550  17.408   0.901   7.743 -0.1354  0.0513 -0.1177
 1088YOPC   C1B15551  17.968   1.150   6.915  0.0038 -0.1688 -0.1856
 1088YOPC   C2B15552  17.797   0.901   7.299 -0.2813 -0.3354  0.2852
 1088YOPC   D3B15553  17.951   0.597   7.593 -0.0688 -0.0513  0.0108
 1088YOPC   C4B15554  18.053   0.477   7.986  0.0876 -0.0595  0.2389
 1089YOPC   NC315555  13.839   4.856   5.033 -0.0152 -0.0011  0.1211
 1089YOPC   PO415556  13.999   4.743   5.386  0.0899  0.0917  0.2553
 1089YOPC   GL115557  13.872   4.744   5.778  0.0794  0.1557 -0.0458
 1089YOPC   GL215558  13.864   4.431   5.790 -0.1982  0.0766  0.2320
 1089YOPC   C1A15559  14.102   4.782   6.170  0.0690  0.0113 -0.1524
 1089YOPC   D2A15560  14.310   4.947   6.427  0.1432  0.0400 -0.2151
 1089YOPC   C3A15561  14.465   4.722   6.682 -0.0314 -0.0547  0.0303
 1089YOPC   C4A15562  14.888   4.822   6.529 -0.2578  0.0927  0.0465
 1089YOPC   C1B15563  13.852   4.311   6.177  0.1643  0.3208  0.1612
 1089YOPC   C2B15564  14.073   4.398   6.564 -0.1270 -0.2192  0.1171
 1089YOPC   D3B15565  13.944   4.194   6.937 -0.3654 -0.0297  0.1750
 1089YOPC   C4B15566  13.869   3.904   7.201 -0.3387 -0.0504  0.0190
 1090YOPC   NC315567   7.108  16.819   6.229  0.1463 -0.0996 -0.0045
 1090YOPC   PO415568   7.478  16.807   6.126  0.0568  0.1528  0.1838
 1090YOPC   GL115569   7.617  16.821   6.549  0.0738  0.1218 -0.2009
 1090YOPC   GL215570   7.877  16.758   6.564 -0.0042 -0.0682  0.2834
 1090YOPC   C1A15571   7.601  16.865   6.964  0.0492 -0.1137 -0.0256
 1090YOPC   D2A15572   7.381  16.845   7.298  0.2836  0.0392  0.0138
 1090YOPC   C3A15573   7.538  16.838   7.677 -0.0354 -0.2148  0.0079
 1090YOPC   C4A15574   7.617  16.613   8.076  0.0553  0.1012  0.1195
 1090YOPC   C1B15575   8.116  16.891   6.842 -0.0326 -0.1054 -0.1791
 1090YOPC   C2B15576   8.233  17.310   6.973 -0.0670 -0.0069 -0.0048
 1090YOPC   D3B15577   8.115  17.387   7.350  0.2255  0.0657 -0.0079
 1090YOPC   C4B15578   8.186  17.141   7.720  0.0629 -0.0724  0.0751
 1091YOPC   NC315579   2.067  14.503   5.557 -0.2882 -0.2637  0.3206
 1091YOPC   PO415580   2.309  14.838   5.714 -0.0003 -0.1494 -0.0293
 1091YOPC   GL115581   2.288  14.841   6.119 -0.0164  0.1303  0.1398
 1091YOPC   GL215582   2.472  14.969   6.258 -0.1172  0.0097 -0.2225
 1091YOPC   C1A15583   2.152  14.598   6.511  0.0052 -0.0810  0.4172
 1091YOPC   D2A15584   2.264  14.541   6.896 -0.2518 -0.0081  0.5650
 1091YOPC   C3A15585   2.321  14.858   7.203 -0.2359  0.0506 -0.0564
 1091YOPC   C4A15586   2.567  14.734   7.515 -0.0788 -0.1446 -0.1322
 1091YOPC   C1B15587   2.397  15.025   6.691 -0.0716  0.2429  0.1949
 1091YOPC   C2B15588   2.391  15.361   7.068  0.3086 -0.1481  0.1460
 1091YOPC   D3B15589   2.206  15.319   7.426 -0.1739  0.1422  0.0203
 1091YOPC   C4B15590   1.993  15.059   7.615 -0.1197 -0.1394  0.0271
 1092YOPC   NC315591   0.762  15.575   5.804 -0.3859  0.2029 -0.0433
 1092YOPC   PO415592   1.263  15.537   5.897  0.0023 -0.2932 -0.0649
 1092YOPC   GL115593   0.992  15.358   6.214  0.2961  0.4357 -0.1146
 1092YOPC   GL215594   1.011  15.023   6.256 -0.0292 -0.0622  0.1764
 1092YOPC   C1A15595   0.719  15.450   6.548  0.1276 -0.0198  0.2448
 1092YOPC   D2A15596   0.244  15.403   6.666  0.1815 -0.3348  0.1321
 1092YOPC   C3A15597   0.184  15.307   7.041  0.3295 -0.0289  0.0442
 1092YOPC   C4A15598   0.365  15.096   7.310 -0.1359  0.0935 -0.0452
 1092YOPC   C1B15599   1.265  14.775   6.554  0.0150 -0.1558  0.0354
 1092YOPC   C2B15600   1.383  14.853   6.967  0.3041 -0.1607 -0.1359
 1092YOPC   D3B15601   1.185  15.002   7.356  0.0261  0.0645  0.0511
 1092YOPC   C4B15602   1.197  14.875   7.763  0.3195  0.2482 -0.2431
 1093YOPC   NC315603   9.720   3.483   5.990 -0.0412  0.2611 -0.0960
 1093YOPC   PO415604   9.976   3.425   6.408 -0.2016 -0.1252  0.0064
 1093YOPC   GL115605   9.969   3.297   6.756 -0.1596  0.1444 -0.1677
 1093YOPC   GL215606  10.336   3.228   6.868  0.3015 -0.1228 -0.1596
 1093YOPC   C1A15607   9.874   3.121   7.232  0.1327  0.0341 -0.0743
 1093YOPC   D2A15608   9.834   2.843   7.584 -0.0985  0.2576  0.0893
 1093YOPC   C3A15609   9.736   2.798   8.047  0.3703 -0.1006  0.0312
 1093YOPC   C4A15610   9.819   3.126   8.436  0.1745  0.0975  0.1267
 1093YOPC   C1B15611  10.374   3.247   7.350  0.0669  0.0546  0.0459
 1093YOPC   C2B15612  10.067   3.187   7.776 -0.2884 -0.0953  0.2157
 1093YOPC   D3B15613   9.692   3.278   7.920  0.2554 -0.1798 -0.0126
 1093YOPC   C4B15614   9.423   3.434   8.209 -0.0636  0.0126 -0.1524
 1094YOPC   NC315615  13.744   2.679   5.165 -0.0114  0.1880 -0.0530
 1094YOPC   PO415616  13.688   2.856   5.604  0.3940 -0.0430  0.1276
 1094YOPC   GL115617  13.738   2.857   6.024  0.0246 -0.2129  0.1400
 1094YOPC   GL215618  13.446   2.878   6.174  0.1375  0.1940 -0.2839
 1094YOPC   C1A15619  13.889   2.675   6.366 -0.0456 -0.1424 -0.0960
 1094YOPC   D2A15620  13.965   2.598   6.817 -0.0974  0.0436  0.1500
 1094YOPC   C3A15621  13.610   2.593   7.198 -0.2061  0.0147  0.2044
 1094YOPC   C4A15622  13.514   2.734   7.657  0.0082  0.3237 -0.0389
 1094YOPC   C1B15623  13.505   2.844   6.644 -0.1099  0.1125 -0.1914
 1094YOPC   C2B15624  13.694   3.020   6.956  0.0519  0.0088 -0.0045
 1094YOPC   D3B15625  13.645   3.057   7.336  0.2133 -0.0641  0.1347
 1094YOPC   C4B15626  13.382   3.289   7.566 -0.1977  0.0006  0.1840
 1095YOPC   NC315627  10.337   5.911   5.483 -0.0879  0.1386 -0.1537
 1095YOPC   PO415628  10.607   6.155   5.683 -0.1174  0.0802  0.1661
 1095YOPC   GL115629  10.716   6.058   6.120  0.0921  0.2000 -0.2511
 1095YOPC   GL215630  11.014   5.935   6.241  0.0530 -0.1671  0.1173
 1095YOPC   C1A15631  10.803   6.321   6.475 -0.0360  0.1687 -0.0905
 1095YOPC   D2A15632  10.826   6.739   6.730  0.0082 -0.0391 -0.1382
 1095YOPC   C3A15633  10.634   6.794   7.180  0.0300 -0.2619 -0.0403
 1095YOPC   C4A15634  10.582   6.739   7.652  0.1976 -0.1442  0.1413
 1095YOPC   C1B15635  11.060   5.968   6.739  0.1395 -0.1002 -0.3217
 1095YOPC   C2B15636  11.018   6.015   7.188  0.1923 -0.3771 -0.0921
 1095YOPC   D3B15637  10.764   6.336   7.440  0.0920  0.1120 -0.0415
 1095YOPC   C4B15638  10.638   6.277   7.916 -0.2640  0.1495 -0.0283
 1096YOPC   NC315639   1.136   8.133   5.694 -0.0176 -0.0305 -0.1844
 1096YOPC   PO415640   1.247   8.032   6.121 -0.2882 -0.1319 -0.1411
 1096YOPC   GL115641   1.589   7.910   6.425 -0.3264  0.0649 -0.1243
 1096YOPC   GL215642   1.768   8.196   6.496 -0.2369  0.1603  0.1741
 1096YOPC   C1A15643   1.774   7.822   6.859  0.0120  0.0332  0.0846
 1096YOPC   D2A15644   2.124   8.000   7.137 -0.1702 -0.2119  0.0879
 1096YOPC   C3A15645   2.296   7.765   7.458 -0.0183 -0.1807  0.1248
 1096YOPC   C4A15646   2.481   7.741   7.862  0.2444  0.3066  0.0792
 1096YOPC   C1B15647   1.843   8.294   6.887 -0.2767 -0.0175  0.3010
 1096YOPC   C2B15648   1.885   8.438   7.317  0.1032  0.1393  0.0872
 1096YOPC   D3B15649   2.120   8.249   7.562 -0.1610  0.0009 -0.1835
 1096YOPC   C4B15650   2.051   7.980   7.872 -0.0112 -0.1738  0.0393
 1097YOPC   NC315651   4.922  17.566   5.831 -0.2623 -0.0930 -0.1547
 1097YOPC   PO415652   5.179  17.239   6.056 -0.2127  0.3102 -0.2421
 1097YOPC   GL115653   5.039  17.015   6.389 -0.4195  0.2603 -0.0765
 1097YOPC   GL215654   4.760  17.288   6.307 -0.1377  0.0285 -0.0365
 1097YOPC   C1A15655   4.985  17.238   6.858  0.0718  0.1560 -0.1057
 1097YOPC   D2A15656   5.027  17.218   7.280 -0.0402  0.1968  0.0275
 1097YOPC   C3A15657   5.265  17.342   7.506  0.3250 -0.3753 -0.0234
 1097YOPC   C4A15658   5.551  17.682   7.508 -0.2959  0.0080  0.1834
 1097YOPC   C1B15659   4.497  17.254   6.681 -0.2555 -0.1328  0.1742
 1097YOPC   C2B15660   4.389  17.205   7.110  0.1970  0.2956  0.1478
 1097YOPC   D3B15661   4.642  17.350   7.531  0.1243 -0.2215 -0.0973
 1097YOPC   C4B15662   4.827  17.415   7.902 -0.1104  0.0247  0.2147
 1098YOPC   NC315663   6.951   0.787   5.997  0.1689 -0.2084 -0.0945
 1098YOPC   PO415664   6.729   1.179   6.173  0.2383  0.1778 -0.3243
 1098YOPC   GL115665   6.411   1.145   6.502 -0.0442 -0.2712 -0.2743
 1098YOPC   GL215666   6.137   1.060   6.440 -0.0457 -0.1430  0.1006
 1098YOPC   C1A15667   6.219   1.468   6.780  0.1691 -0.1231  0.0404
 1098YOPC   D2A15668   6.032   1.635   7.206  0.1007  0.1818  0.2662
 1098YOPC   C3A15669   6.011   1.378   7.484 -0.0838 -0.0850  0.4022
 1098YOPC   C4A15670   6.155   1.274   7.859 -0.3269  0.0025  0.0602
 1098YOPC   C1B15671   6.151   0.973   6.884  0.0465 -0.1762 -0.0492
 1098YOPC   C2B15672   6.126   0.902   7.313 -0.3152 -0.0235 -0.0398
 1098YOPC   D3B15673   6.159   0.436   7.553 -0.3363  0.1519 -0.0087
 1098YOPC   C4B15674   5.971   0.289   7.947  0.1182 -0.2768  0.0672
 1099YOPC   NC315675   5.193  11.389   5.479  0.2407 -0.2527 -0.2384
 1099YOPC   PO415676   4.988  10.963   5.649 -0.1820 -0.5862  0.1737
 1099YOPC   GL115677   5.370  10.945   5.909 -0.0275  0.1362  0.2835
 1099YOPC   GL215678   5.385  10.649   6.069  0.1514  0.0787  0.2755
 1099YOPC   C1A15679   5.517  11.089   6.266  0.0351 -0.1133  0.0456
 1099YOPC   D2A15680   5.321  11.180   6.632 -0.1602 -0.3913 -0.1551
 1099YOPC   C3A15681   5.534  11.253   6.971  0.2372  0.1765 -0.2019
 1099YOPC   C4A15682   5.791  11.353   7.360  0.0213  0.5619 -0.0869
 1099YOPC   C1B15683   5.157  10.715   6.414  0.3522  0.0250  0.1491
 1099YOPC   C2B15684   5.037  10.605   6.883  0.0547  0.4501 -0.0588
 1099YOPC   D3B15685   5.258  10.877   7.142  0.1697 -0.1529 -0.1042
 1099YOPC   C4B15686   5.363  11.139   7.542 -0.2267 -0.1288 -0.1150
 1100YOPC   NC315687   2.524  14.299   5.606  0.2129 -0.2752  0.0978
 1100YOPC   PO415688   2.885  14.014   5.843 -0.1790 -0.1328  0.0032
 1100YOPC   GL115689   2.939  14.165   6.259 -0.1308 -0.0814  0.0668
 1100YOPC   GL215690   2.557  14.423   6.296  0.0733 -0.4855 -0.0179
 1100YOPC   C1A15691   2.964  13.942   6.679  0.0612  0.0517 -0.1812
 1100YOPC   D2A15692   2.989  13.919   7.111  0.1726 -0.0968 -0.1485
 1100YOPC   C3A15693   3.177  14.219   7.349 -0.0232 -0.0176  0.1187
 1100YOPC   C4A15694   3.347  14.264   7.764  0.1255 -0.0419  0.0045
 1100YOPC   C1B15695   2.568  14.247   6.656 -0.1856  0.2823 -0.0033
 1100YOPC   C2B15696   2.473  13.983   6.974 -0.0977  0.0972 -0.1938
 1100YOPC   D3B15697   2.219  14.211   7.245 -0.1148 -0.1505  0.2213
 1100YOPC   C4B15698   2.123  14.523   7.569  0.1881  0.2471  0.2153
 1101YOPC   NC315699   4.922   1.201   5.744 -0.0036 -0.0367  0.0997
 1101YOPC   PO415700   5.238   1.491   5.601  0.0681  0.1346 -0.3329
 1101YOPC   GL115701   5.117   1.487   6.100  0.1697  0.0292 -0.0249
 1101YOPC   GL215702   5.050   1.794   6.305 -0.0919 -0.0411  0.1002
 1101YOPC   C1A15703   4.947   1.351   6.483  0.1452  0.0988  0.2010
 1101YOPC   D2A15704   4.763   1.592   6.824  0.2478  0.0198 -0.0038
 1101YOPC   C3A15705   5.002   1.887   7.054  0.0678  0.1415 -0.0711
 1101YOPC   C4A15706   5.324   2.120   6.858 -0.1845  0.0875 -0.0524
 1101YOPC   C1B15707   4.947   1.940   6.586  0.1647 -0.0475 -0.0898
 1101YOPC   C2B15708   4.854   2.317   6.713  0.1838  0.1431 -0.2939
 1101YOPC   D3B15709   4.750   2.338   7.163 -0.4492 -0.0762  0.2437
 1101YOPC   C4B15710   4.793   2.386   7.639  0.0609 -0.0024  0.0957
 1102YOPC   NC315711   2.445   8.511   5.936 -0.1405  0.1032 -0.2127
 1102YOPC   PO415712   2.058   8.329   5.853  0.1598  0.1844 -0.2603
 1102YOPC   GL115713   2.286   8.123   6.261 -0.2282 -0.0805 -0.0616
 1102YOPC   GL215714   2.620   8.137   6.249  0.0816 -0.2633 -0.1737
 1102YOPC   C1A15715   2.267   8.002   6.638 -0.0816  0.2218  0.0260
 1102YOPC   D2A15716   2.454   7.685   6.918  0.0446  0.1757  0.1331
 1102YOPC   C3A15717   2.698   7.684   7.207  0.2432 -0.3279  0.0577
 1102YOPC   C4A15718   3.018   7.540   7.104  0.1075  0.0773 -0.0487
 1102YOPC   C1B15719   2.779   8.054   6.759 -0.2648 -0.1095  0.1398
 1102YOPC   C2B15720   2.866   8.222   7.132 -0.2746 -0.0140 -0.0026
 1102YOPC   D3B15721   2.612   8.129   7.448  0.0812 -0.4776  0.1241
 1102YOPC   C4B15722   2.527   8.308   7.822 -0.0064 -0.1357  0.2109
 1103YOPC   NC315723   5.622   3.825   6.095 -0.2853 -0.3384  0.2075
 1103YOPC   PO415724   5.294   3.689   6.063 -0.0717  0.1440 -0.1235
 1103YOPC   GL115725   5.104   4.022   6.149  0.2535 -0.0103 -0.1221
 1103YOPC   GL215726   4.796   4.016   6.255  0.1398 -0.3199 -0.0136
 1103YOPC   C1A15727   5.014   4.433   6.404 -0.0801  0.0607  0.1375
 1103YOPC   D2A15728   4.730   4.699   6.430  0.0217 -0.0126  0.1758
 1103YOPC   C3A15729   4.517   4.740   6.869 -0.4204  0.0593  0.0693
 1103YOPC   C4A15730   4.571   4.814   7.287 -0.2760  0.1112  0.2110
 1103YOPC   C1B15731   4.586   3.842   6.651 -0.1356 -0.0300 -0.0968
 1103YOPC   C2B15732   4.465   3.610   6.958  0.1263  0.0047  0.0145
 1103YOPC   D3B15733   4.442   3.781   7.305  0.2024 -0.1144  0.1425
 1103YOPC   C4B15734   4.246   3.736   7.748  0.1632  0.0191  0.4197
 1104YOPC   NC315735   3.304   8.914   5.782 -0.0631 -0.0876  0.1065
 1104YOPC   PO415736   2.936   8.500   5.727 -0.0442  0.1794  0.0167
 1104YOPC   GL115737   2.929   8.648   6.188 -0.0234  0.0825  0.0710
 1104YOPC   GL215738   2.683   8.689   6.350 -0.1818 -0.0691 -0.0725
 1104YOPC   C1A15739   3.234   8.788   6.542  0.4342 -0.2791 -0.1673
 1104YOPC   D2A15740   3.285   8.802   7.027  0.0129 -0.1856  0.1609
 1104YOPC   C3A15741   3.148   8.542   7.298  0.2178  0.0471  0.0744
 1104YOPC   C4A15742   2.837   8.570   7.499 -0.0759  0.1959  0.0666
 1104YOPC   C1B15743   2.838   8.594   6.789  0.0922  0.1231 -0.1526
 1104YOPC   C2B15744   2.721   8.868   7.094  0.2908  0.0267  0.2788
 1104YOPC   D3B15745   2.674   9.074   7.427 -0.1956  0.1135  0.2780
 1104YOPC   C4B15746   2.824   9.066   7.796  0.0100  0.1814 -0.1165
 1105YOPC   NC315747   6.596   1.647   6.054  0.2722 -0.0977 -0.1186
 1105YOPC   PO415748   6.395   2.035   6.194  0.0320  0.2787 -0.0750
 1105YOPC   GL115749   6.226   2.056   6.565 -0.1690 -0.0634 -0.0082
 1105YOPC   GL215750   5.836   2.206   6.573 -0.1696  0.0284  0.0127
 1105YOPC   C1A15751   6.053   2.135   6.996  0.0226  0.1818 -0.4331
 1105YOPC   D2A15752   5.710   2.127   7.210  0.2423 -0.1127  0.1021
 1105YOPC   C3A15753   5.693   2.344   7.656 -0.1186  0.0812  0.1523
 1105YOPC   C4A15754   5.826   2.565   7.946  0.4995  0.0799 -0.1511
 1105YOPC   C1B15755   5.795   1.773   6.791 -0.0146 -0.2535  0.0291
 1105YOPC   C2B15756   5.692   1.305   6.855  0.3863 -0.1986 -0.0895
 1105YOPC   D3B15757   5.587   1.137   7.229  0.0309 -0.0014 -0.0071
 1105YOPC   C4B15758   5.457   0.954   7.532 -0.0005 -0.0353 -0.4048
 1106YOPC   NC315759  12.186   2.310   5.712 -0.0520 -0.0891  0.0068
 1106YOPC   PO415760  11.837   2.351   5.970 -0.0102 -0.1562 -0.2123
 1106YOPC   GL115761  11.896   2.141   6.413  0.3047 -0.0574  0.1511
 1106YOPC   GL215762  12.064   1.802   6.462  0.1455  0.0547  0.0806
 1106YOPC   C1A15763  12.118   2.222   6.765  0.0695 -0.0552  0.0083
 1106YOPC   D2A15764  12.476   2.112   7.035 -0.3092  0.2948 -0.0440
 1106YOPC   C3A15765  12.652   1.951   7.395  0.0964  0.0005  0.0819
 1106YOPC   C4A15766  12.921   1.709   7.591  0.1196  0.2063 -0.0792
 1106YOPC   C1B15767  12.123   1.671   6.875  0.1523 -0.0341  0.1205
 1106YOPC   C2B15768  12.191   1.757   7.400 -0.2401  0.2377 -0.3677
 1106YOPC   D3B15769  11.851   1.635   7.695  0.1838 -0.1313  0.3843
 1106YOPC   C4B15770  11.568   1.438   7.968  0.1879 -0.0065  0.5575
 1107YOPC   NC315771  13.202  17.817   5.975  0.0798 -0.1209  0.1046
 1107YOPC   PO415772  13.052  18.228   6.068  0.0883  0.1127 -0.3153
 1107YOPC   GL115773  13.296  18.272   6.359 -0.4769  0.1302  0.0655
 1107YOPC   GL215774  13.282  17.963   6.434  0.2548  0.0998  0.1153
 1107YOPC   C1A15775  13.361  18.428   6.798  0.1813  0.0195  0.1548
 1107YOPC   D2A15776  13.349  18.385   7.243 -0.2538  0.0346 -0.0332
 1107YOPC   C3A15777  13.725  18.383   7.522  0.1831 -0.2699  0.2799
 1107YOPC   C4A15778  14.222  18.333   7.582 -0.1197 -0.0212  0.1203
 1107YOPC   C1B15779  13.358  17.915   6.841  0.3403 -0.0198 -0.0227
 1107YOPC   C2B15780  13.728  18.217   7.060 -0.5565 -0.0346  0.1531
 1107YOPC   D3B15781  13.827  18.528   6.880 -0.0719 -0.0926 -0.3848
 1107YOPC   C4B15782  13.708  18.771   6.520 -0.0036 -0.1701  0.0640
 1108YOPC   NC315783   5.830  13.382   5.320  0.0881 -0.0335 -0.0757
 1108YOPC   PO415784   5.953  13.478   5.822 -0.0012 -0.2280  0.1050
 1108YOPC   GL115785   5.888  13.717   6.175  0.1629 -0.1820 -0.1125
 1108YOPC   GL215786   5.631  13.696   6.442 -0.0610 -0.1429 -0.0646
 1108YOPC   C1A15787   6.095  13.614   6.625 -0.1654 -0.4042  0.2256
 1108YOPC   D2A15788   6.078  13.613   7.062  0.0977  0.0444 -0.1299
 1108YOPC   C3A15789   6.311  13.340   7.254  0.0074  0.2280  0.0536
 1108YOPC   C4A15790   6.556  13.441   7.647  0.1184 -0.5067 -0.0260
 1108YOPC   C1B15791   5.527  13.566   6.872 -0.1697 -0.0418 -0.0431
 1108YOPC   C2B15792   5.132  13.661   7.050 -0.1281 -0.2218  0.1147
 1108YOPC   D3B15793   5.168  13.898   7.374  0.0773 -0.1985 -0.1012
 1108YOPC   C4B15794   5.383  13.932   7.726 -0.3413  0.1064  0.1525
 1109YOPC   NC315795  15.529   8.891   5.811  0.0329 -0.2643 -0.3173
 1109YOPC   PO415796  15.769   9.024   6.169 -0.1743  0.2755  0.0807
 1109YOPC   GL115797  15.953   9.098   6.589  0.0079  0.0738 -0.1489
 1109YOPC   GL215798  15.723   9.274   6.709 -0.2691  0.0583 -0.2087
 1109YOPC   C1A15799  15.916   8.866   6.973  0.1433  0.0591  0.2519
 1109YOPC   D2A15800  15.925   8.653   7.358 -0.2686  0.0725 -0.1244
 1109YOPC   C3A15801  15.662   8.632   7.683  0.1352  0.0412  0.2210
 1109YOPC   C4A15802  15.393   8.318   7.841 -0.1268 -0.1404 -0.0577
 1109YOPC   C1B15803  15.518   9.166   7.085  0.1304  0.1463  0.2456
 1109YOPC   C2B15804  15.267   8.729   7.224 -0.2363  0.0785  0.0445
 1109YOPC   D3B15805  15.134   8.714   7.728 -0.4414  0.3501 -0.1437
 1109YOPC   C4B15806  15.244   8.683   8.115  0.1255 -0.2539  0.2074
 1110YOPC   NC315807   8.459   2.965   5.403 -0.0206 -0.2069  0.1078
 1110YOPC   PO415808   8.718   3.231   5.797 -0.3207 -0.3529  0.2655
 1110YOPC   GL115809   8.917   3.248   6.168  0.1782  0.0171  0.2697
 1110YOPC   GL215810   9.169   3.392   6.100 -0.1776  0.3148  0.1982
 1110YOPC   C1A15811   8.859   3.349   6.579  0.1636 -0.1023  0.0066
 1110YOPC   D2A15812   9.121   3.600   6.917 -0.0998  0.3179  0.2426
 1110YOPC   C3A15813   9.154   3.634   7.335  0.2263  0.3893 -0.0178
 1110YOPC   C4A15814   9.154   3.409   7.729 -0.1716 -0.0132  0.0135
 1110YOPC   C1B15815   9.255   3.727   6.419  0.0625 -0.3249  0.2486
 1110YOPC   C2B15816   9.580   3.696   6.733  0.3264  0.0669 -0.2140
 1110YOPC   D3B15817   9.633   3.664   7.138 -0.0742  0.0418 -0.3829
 1110YOPC   C4B15818   9.604   3.568   7.518  0.0040 -0.0099  0.3314
 1111YOPC   NC315819  10.094   8.892   5.821  0.1132  0.1745 -0.0190
 1111YOPC   PO415820  10.164   8.497   5.714  0.0463  0.0653 -0.3131
 1111YOPC   GL115821  10.159   8.451   6.145  0.0240  0.0621  0.3823
 1111YOPC   GL215822  10.205   8.727   6.335 -0.0681  0.0673 -0.2035
 1111YOPC   C1A15823   9.868   8.414   6.446  0.0126 -0.0718  0.0725
 1111YOPC   D2A15824   9.583   8.386   6.861 -0.1969  0.3942  0.1269
 1111YOPC   C3A15825   9.811   8.327   7.279  0.0921 -0.0868 -0.3248
 1111YOPC   C4A15826   9.670   8.169   7.726  0.0351  0.4294  0.1467
 1111YOPC   C1B15827  10.191   8.678   6.646 -0.0963 -0.0187 -0.3888
 1111YOPC   C2B15828  10.186   8.410   6.885 -0.0237  0.0148  0.2647
 1111YOPC   D3B15829  10.178   8.634   7.174  0.1374  0.2122  0.0754
 1111YOPC   C4B15830  10.136   8.863   7.544  0.0819  0.2099  0.0495
 1112YOPC   NC315831   9.201   7.483   5.532 -0.2707  0.1664 -0.0815
 1112YOPC   PO415832   9.413   7.279   5.809  0.0518 -0.0240 -0.3161
 1112YOPC   GL115833   9.107   7.339   6.098 -0.1025  0.0760  0.1503
 1112YOPC   GL215834   9.340   7.419   6.305  0.0166  0.0624  0.0460
 1112YOPC   C1A15835   8.723   7.416   6.320 -0.0205  0.0176 -0.2460
 1112YOPC   D2A15836   8.721   7.528   6.652 -0.1762 -0.1172  0.0286
 1112YOPC   C3A15837   8.710   7.257   7.057  0.0417 -0.0777  0.1794
 1112YOPC   C4A15838   8.697   7.177   7.423 -0.2044 -0.1832 -0.3816
 1112YOPC   C1B15839   9.204   7.347   6.653 -0.2961 -0.2662 -0.0715
 1112YOPC   C2B15840   9.068   7.709   6.923  0.0267  0.0754  0.1197
 1112YOPC   D3B15841   8.889   7.642   7.324  0.0503  0.0257 -0.3715
 1112YOPC   C4B15842   8.843   7.652   7.741 -0.1882  0.2058  0.1307
 1113YOPC   NC315843   1.571  17.668   6.153  0.1612 -0.0626 -0.1163
 1113YOPC   PO415844   1.404  17.270   6.328  0.0725 -0.1024  0.1606
 1113YOPC   GL115845   1.617  17.411   6.647  0.0523  0.2737 -0.0334
 1113YOPC   GL215846   1.461  17.243   6.850  0.2466 -0.1519  0.0686
 1113YOPC   C1A15847   1.610  17.606   7.125  0.0950 -0.1298  0.0581
 1113YOPC   D2A15848   1.655  17.466   7.527 -0.1043 -0.1764  0.4214
 1113YOPC   C3A15849   1.835  17.673   7.760  0.1725  0.1891  0.1178
 1113YOPC   C4A15850   1.833  17.876   8.144 -0.1784 -0.0432  0.0623
 1113YOPC   C1B15851   1.846  17.120   7.006  0.1701 -0.0987  0.4143
 1113YOPC   C2B15852   1.959  16.850   7.206 -0.0171 -0.0630  0.1122
 1113YOPC   D3B15853   2.007  16.966   7.511  0.1298  0.1227  0.0128
 1113YOPC   C4B15854   2.116  17.035   7.959  0.0542 -0.1437 -0.1037
 1114YOPC   NC315855   3.143   0.225   5.231  0.1199  0.0599 -0.2140
 1114YOPC   PO415856   3.011   0.056   5.616  0.2785 -0.2106 -0.1343
 1114YOPC   GL115857   3.026   0.273   6.040 -0.1142  0.1501 -0.0343
 1114YOPC   GL215858   3.335   0.312   6.129  0.0819 -0.1095 -0.2988
 1114YOPC   C1A15859   2.838   0.420   6.348  0.0178 -0.0905  0.1693
 1114YOPC   D2A15860   2.706   0.872   6.439  0.2512  0.0259 -0.0682
 1114YOPC   C3A15861   2.977   1.098   6.654  0.1449 -0.1996  0.0290
 1114YOPC   C4A15862   2.991   1.339   6.970  0.3773  0.3912  0.1287
 1114YOPC   C1B15863   3.322   0.751   6.422 -0.4077  0.2181  0.2525
 1114YOPC   C2B15864   3.453   0.996   6.839  0.0338  0.1292  0.2544
 1114YOPC   D3B15865   3.726   0.867   7.150 -0.2155 -0.1744  0.0400
 1114YOPC   C4B15866   3.791   0.861   7.568  0.0383  0.1671 -0.3139
 1115YOPC   NC315867   7.588   3.062   5.668 -0.0382  0.3649  0.0963
 1115YOPC   PO415868   8.041   3.056   5.728  0.1159  0.1166 -0.0878
 1115YOPC   GL115869   8.147   3.429   5.956  0.1211  0.2373 -0.0226
 1115YOPC   GL215870   8.314   3.803   6.094  0.0110 -0.0334 -0.0995
 1115YOPC   C1A15871   8.321   3.313   6.336 -0.4963 -0.0221  0.0107
 1115YOPC   D2A15872   8.437   3.033   6.648  0.4145  0.0799  0.2215
 1115YOPC   C3A15873   8.792   3.114   6.960 -0.1654  0.1559  0.0191
 1115YOPC   C4A15874   8.781   3.195   7.417 -0.1365  0.1020 -0.1347
 1115YOPC   C1B15875   8.074   3.722   6.405 -0.0781  0.0092  0.1747
 1115YOPC   C2B15876   7.813   3.817   6.665  0.0559 -0.0848 -0.1880
 1115YOPC   D3B15877   7.785   3.912   7.072 -0.1735 -0.0777 -0.1746
 1115YOPC   C4B15878   7.731   3.762   7.534  0.0098 -0.2674 -0.0869
 1116YOPC   NC315879   3.008  13.600   5.630  0.0175 -0.0132  0.0215
 1116YOPC   PO415880   2.810  13.300   5.748 -0.2910  0.2480 -0.0558
 1116YOPC   GL115881   2.788  13.584   6.096  0.0710  0.2513 -0.2629
 1116YOPC   GL215882   3.079  13.701   6.162  0.0368  0.0829 -0.2861
 1116YOPC   C1A15883   2.558  13.782   6.413  0.1544 -0.1999 -0.4722
 1116YOPC   D2A15884   2.143  14.100   6.475 -0.0805 -0.2518  0.0424
 1116YOPC   C3A15885   1.953  14.099   6.838  0.3506  0.1011  0.1154
 1116YOPC   C4A15886   1.770  14.110   7.294  0.2989 -0.0201  0.0411
 1116YOPC   C1B15887   3.244  13.465   6.553  0.0167 -0.1202 -0.0977
 1116YOPC   C2B15888   3.344  13.420   6.990  0.0596  0.1937  0.1036
 1116YOPC   D3B15889   3.011  13.332   7.245 -0.0285 -0.0627 -0.0398
 1116YOPC   C4B15890   2.808  13.342   7.652 -0.0995  0.0842 -0.0512
 1117YOPC   NC315891  17.721   8.256   6.142 -0.2045  0.0590 -0.1718
 1117YOPC   PO415892  18.108   8.512   6.370 -0.1387 -0.1012 -0.0871
 1117YOPC   GL115893  17.992   8.662   6.771 -0.1043  0.1342 -0.1969
 1117YOPC   GL215894  17.759   8.871   6.865 -0.0999  0.1874 -0.0008
 1117YOPC   C1A15895  18.076   8.675   7.243 -0.2204  0.1061 -0.1730
 1117YOPC   D2A15896  18.197   8.712   7.709 -0.0030  0.1106  0.1642
 1117YOPC   C3A15897  17.892   8.904   8.093 -0.1488 -0.0472  0.1049
 1117YOPC   C4A15898  17.601   9.225   8.324  0.0188  0.0007  0.1788
 1117YOPC   C1B15899  17.875   9.168   7.139 -0.0053  0.0320  0.1240
 1117YOPC   C2B15900  17.887   9.192   7.571  0.0557 -0.0484  0.1451
 1117YOPC   D3B15901  17.988   9.638   7.778  0.0659 -0.0535 -0.2034
 1117YOPC   C4B15902  17.830  10.016   8.096 -0.3004  0.0813  0.0491
 1118YOPC   NC315903  17.634  11.112   5.723 -0.1288  0.1729  0.0627
 1118YOPC   PO415904  17.529  10.751   5.976 -0.0631  0.0601 -0.0350
 1118YOPC   GL115905  17.283  10.535   6.305 -0.0181 -0.0683 -0.0240
 1118YOPC   GL215906  17.071  10.750   6.285  0.2692  0.1983 -0.0871
 1118YOPC   C1A15907  17.179  10.396   6.689 -0.1937 -0.3238  0.2185
 1118YOPC   D2A15908  17.151  10.137   6.939 -0.0282 -0.0986  0.0977
 1118YOPC   C3A15909  17.170  10.209   7.257 -0.1573 -0.2936  0.0217
 1118YOPC   C4A15910  17.257   9.962   7.677  0.2320 -0.1257 -0.2067
 1118YOPC   C1B15911  17.149  10.961   6.592  0.1905  0.0536 -0.0581
 1118YOPC   C2B15912  17.313  11.107   7.015 -0.2265 -0.3263 -0.1949
 1118YOPC   D3B15913  17.072  11.273   7.350 -0.1038 -0.1603  0.2573
 1118YOPC   C4B15914  16.791  10.946   7.467  0.0134  0.1021  0.3705
 1119YOPC   NC315915   8.033  10.084   5.044 -0.1478 -0.2952  0.1595
 1119YOPC   PO415916   7.843   9.993   5.395 -0.1964 -0.0151  0.2712
 1119YOPC   GL115917   7.609   9.940   5.807 -0.1779 -0.0917 -0.0115
 1119YOPC   GL215918   7.619   9.688   5.977 -0.0630  0.0869 -0.0387
 1119YOPC   C1A15919   7.395  10.298   6.051  0.0095 -0.0462 -0.0960
 1119YOPC   D2A15920   7.755  10.536   6.116 -0.0187 -0.1231 -0.2766
 1119YOPC   C3A15921   8.069  10.395   6.325  0.1544  0.1585  0.1945
 1119YOPC   C4A15922   8.435  10.343   6.203 -0.1434 -0.0688 -0.0608
 1119YOPC   C1B15923   7.693   9.988   6.313 -0.0602  0.1619 -0.0627
 1119YOPC   C2B15924   7.559  10.220   6.611  0.1403  0.0896 -0.0610
 1119YOPC   D3B15925   7.280  10.644   6.416 -0.0928 -0.0370  0.2599
 1119YOPC   C4B15926   7.428  10.923   6.069  0.3601  0.2408 -0.0712
 1120YOPC   NC315927  13.151   2.601   5.830  0.1586 -0.0522  0.1025
 1120YOPC   PO415928  12.664   2.432   5.733 -0.0067 -0.0886  0.4789
 1120YOPC   GL115929  12.608   2.780   6.063 -0.0648  0.1661 -0.0315
 1120YOPC   GL215930  12.922   2.987   6.115  0.0716  0.2483 -0.0786
 1120YOPC   C1A15931  12.606   2.901   6.499  0.2501  0.1601  0.4358
 1120YOPC   D2A15932  12.525   3.021   7.044  0.2418 -0.2458 -0.0237
 1120YOPC   C3A15933  12.458   2.915   7.507 -0.0811  0.0736 -0.0326
 1120YOPC   C4A15934  12.327   2.672   7.740 -0.1777  0.1276  0.2619
 1120YOPC   C1B15935  13.073   3.098   6.466  0.4182 -0.1218 -0.0386
 1120YOPC   C2B15936  13.307   3.337   6.749 -0.1282  0.2088 -0.0091
 1120YOPC   D3B15937  13.249   3.310   7.091 -0.0294 -0.2917  0.1366
 1120YOPC   C4B15938  12.854   3.215   7.396 -0.0787 -0.1663 -0.3714
 1121YOPC   NC315939  17.488   2.208   5.621 -0.0156  0.2670 -0.4129
 1121YOPC   PO415940  17.128   2.327   5.892  0.3208 -0.0281  0.1991
 1121YOPC   GL115941  17.247   2.536   6.240 -0.1543  0.1806 -0.0635
 1121YOPC   GL215942  17.179   2.825   6.209 -0.2737 -0.0183  0.1845
 1121YOPC   C1A15943  17.379   2.484   6.659 -0.1958 -0.2609 -0.0624
 1121YOPC   D2A15944  17.419   2.475   7.112  0.1731  0.0501 -0.0691
 1121YOPC   C3A15945  17.393   2.166   7.461  0.1573  0.3807 -0.2857
 1121YOPC   C4A15946  17.502   1.928   7.974 -0.0113 -0.0527  0.1151
 1121YOPC   C1B15947  17.047   2.974   6.663 -0.0138 -0.0194 -0.1609
 1121YOPC   C2B15948  16.905   3.161   7.082 -0.0281  0.0061 -0.1102
 1121YOPC   D3B15949  16.741   2.974   7.503 -0.5288 -0.3414 -0.0434
 1121YOPC   C4B15950  16.541   3.065   7.855  0.0283 -0.0515  0.1032
 1122YOPC   NC315951  17.324  14.143   6.021 -0.1594 -0.0276 -0.0772
 1122YOPC   PO415952  17.271  14.633   6.116  0.1303  0.1174 -0.2431
 1122YOPC   GL115953  17.270  14.401   6.475 -0.1106  0.3000  0.5190
 1122YOPC   GL215954  16.979  14.370   6.531  0.0761 -0.0509 -0.0983
 1122YOPC   C1A15955  17.357  14.189   6.879 -0.0034  0.1981 -0.1335
 1122YOPC   D2A15956  17.485  14.200   7.356  0.0378 -0.2410  0.1243
 1122YOPC   C3A15957  17.669  14.511   7.719  0.2199  0.0641  0.0116
 1122YOPC   C4A15958  17.850  14.574   7.987  0.2099  0.0524  0.2000
 1122YOPC   C1B15959  16.941  14.574   6.934  0.0220 -0.0956  0.0494
 1122YOPC   C2B15960  16.898  14.517   7.404  0.0009  0.1485 -0.0957
 1122YOPC   D3B15961  16.631  14.585   7.669  0.3387  0.2413  0.0934
 1122YOPC   C4B15962  16.419  14.826   7.994  0.1804 -0.0230 -0.1478
 1123YOPC   NC315963   4.616  11.682   5.133  0.0551  0.0751 -0.0735
 1123YOPC   PO415964   4.616  11.286   5.442  0.0768 -0.3470 -0.1706
 1123YOPC   GL115965   4.751  11.326   5.919  0.0565  0.0356  0.0179
 1123YOPC   GL215966   4.542  11.482   5.920  0.2256  0.1888 -0.4385
 1123YOPC   C1A15967   4.879  11.391   6.345  0.2344 -0.0258 -0.0443
 1123YOPC   D2A15968   4.805  11.103   6.668  0.2307 -0.1890  0.0698
 1123YOPC   C3A15969   4.786  11.171   7.128  0.0022  0.0516  0.2334
 1123YOPC   C4A15970   4.921  11.505   7.514  0.2321 -0.2526  0.1055
 1123YOPC   C1B15971   4.363  11.287   6.289  0.0094 -0.0209  0.1832
 1123YOPC   C2B15972   4.102  11.319   6.676  0.0498  0.1338  0.0549
 1123YOPC   D3B15973   4.096  11.502   7.056 -0.0073  0.1022  0.2595
 1123YOPC   C4B15974   4.111  11.379   7.410  0.2414  0.0680 -0.2370
 1124YOPC   NC315975  12.603   0.271   5.718  0.2287  0.0131  0.1176
 1124YOPC   PO415976  12.224  -0.014   5.668  0.0251 -0.3200 -0.0759
 1124YOPC   GL115977  12.314  -0.058   6.068  0.3704 -0.2234  0.0878
 1124YOPC   GL215978  12.479   0.306   6.231 -0.3908 -0.2601  0.0747
 1124YOPC   C1A15979  12.370  -0.208   6.518  0.0105  0.0710 -0.1081
 1124YOPC   D2A15980  12.444  -0.159   6.962  0.0226 -0.3192  0.1254
 1124YOPC   C3A15981  12.171  -0.132   7.247 -0.1047  0.1188 -0.0998
 1124YOPC   C4A15982  11.870  -0.221   7.574  0.1911 -0.0352  0.2677
 1124YOPC   C1B15983  12.459   0.340   6.603  0.2859  0.0009 -0.4299
 1124YOPC   C2B15984  12.232   0.314   7.000  0.3582 -0.2185  0.3899
 1124YOPC   D3B15985  12.490   0.385   7.383  0.1723  0.2579 -0.1041
 1124YOPC   C4B15986  12.983   0.560   7.394  0.0771  0.2451 -0.3892
 1125YOPC   NC315987   0.915  17.966   5.776  0.0616  0.0793 -0.1056
 1125YOPC   PO415988   1.287  18.050   5.997  0.0944  0.0639 -0.1207
 1125YOPC   GL115989   1.192  17.880   6.409  0.1160  0.1228 -0.2638
 1125YOPC   GL215990   1.317  17.752   6.677  0.2855  0.0800 -0.2449
 1125YOPC   C1A15991   0.806  17.850   6.531 -0.1206  0.2386 -0.1115
 1125YOPC   D2A15992   0.531  17.583   6.775  0.2461  0.0142 -0.0244
 1125YOPC   C3A15993   0.480  17.500   7.180  0.1853 -0.0652  0.1901
 1125YOPC   C4A15994   0.717  17.325   7.521  0.1404  0.1456 -0.0628
 1125YOPC   C1B15995   1.126  17.661   7.117  0.1472 -0.1387  0.0822
 1125YOPC   C2B15996   0.909  17.888   7.393 -0.0981  0.2465 -0.2452
 1125YOPC   D3B15997   0.852  17.838   7.800 -0.0289 -0.1207 -0.3391
 1125YOPC   C4B15998   0.528  17.837   8.125 -0.0699  0.2343 -0.1273
 1126YOPC   NC315999   8.760  16.914   6.306  0.1168  0.0290  0.0550
 1126YOPC   PO416000   8.752  17.260   6.210 -0.3334 -0.2046  0.0408
 1126YOPC   GL116001   8.685  17.356   6.588 -0.2698 -0.2297 -0.3597
 1126YOPC   GL216002   9.034  17.421   6.628  0.0572 -0.2920  0.1633
 1126YOPC   C1A16003   8.687  17.397   7.080 -0.0944  0.0999 -0.1561
 1126YOPC   D2A16004   8.622  17.387   7.603 -0.0126 -0.1239  0.5078
 1126YOPC   C3A16005   8.717  17.111   7.812 -0.0466  0.2768  0.1232
 1126YOPC   C4A16006   8.877  16.859   8.225 -0.1660 -0.1417 -0.0579
 1126YOPC   C1B16007   9.104  17.119   6.949 -0.1524  0.0435  0.2349
 1126YOPC   C2B16008   9.071  17.115   7.424  0.0584  0.1530 -0.0983
 1126YOPC   D3B16009   9.302  17.005   7.824  0.1563 -0.1110  0.0392
 1126YOPC   C4B16010   9.356  16.674   8.059 -0.3794 -0.2222  0.1807
 1127YOPC   NC316011   9.670   9.707   5.242 -0.2086 -0.1183  0.2525
 1127YOPC   PO416012   9.342   9.619   5.485 -0.0497  0.1997  0.0549
 1127YOPC   GL116013   9.101   9.787   5.740  0.1852 -0.1768  0.1061
 1127YOPC   GL216014   9.109  10.064   5.844  0.0151  0.0479 -0.1868
 1127YOPC   C1A16015   8.948   9.586   6.060 -0.0304 -0.0881 -0.0112
 1127YOPC   D2A16016   8.756   9.962   6.223 -0.0858 -0.2111 -0.0195
 1127YOPC   C3A16017   8.477   9.959   6.590  0.0481  0.1203  0.2918
 1127YOPC   C4A16018   8.015   9.945   6.660  0.0072 -0.1326  0.2671
 1127YOPC   C1B16019   8.977  10.363   6.180  0.2056 -0.0672  0.0146
 1127YOPC   C2B16020   8.806  10.368   6.511 -0.1813  0.2345  0.1685
 1127YOPC   D3B16021   8.452  10.406   6.736 -0.2253  0.6130 -0.1681
 1127YOPC   C4B16022   8.398  10.515   7.173 -0.1693  0.0437 -0.2063
 1128YOPC   NC316023   3.975   6.540   5.757 -0.0984 -0.1737  0.2561
 1128YOPC   PO416024   4.176   6.225   5.799 -0.3063 -0.0868  0.0975
 1128YOPC   GL116025   4.253   6.178   6.223 -0.0044 -0.0391 -0.0173
 1128YOPC   GL216026   4.411   6.398   6.461 -0.2765 -0.1205 -0.0310
 1128YOPC   C1A16027   4.041   6.076   6.701  0.0512  0.1915 -0.2201
 1128YOPC   D2A16028   3.793   6.094   6.990  0.2006  0.0031  0.2514
 1128YOPC   C3A16029   3.746   6.365   7.268 -0.1991  0.1802 -0.0890
 1128YOPC   C4A16030   3.418   6.384   7.648  0.0102  0.2800  0.1448
 1128YOPC   C1B16031   4.459   6.374   6.889 -0.0125 -0.4200  0.1792
 1128YOPC   C2B16032   4.234   6.330   7.235 -0.0172  0.0107  0.0660
 1128YOPC   D3B16033   4.412   6.527   7.575 -0.0698 -0.0061 -0.2166
 1128YOPC   C4B16034   4.733   6.517   7.953  0.0430  0.1607  0.1801
 1129YOPC   NC316035   1.733   6.479   5.544 -0.0140 -0.2315  0.3107
 1129YOPC   PO416036   1.588   6.911   5.598 -0.2518 -0.2144 -0.1186
 1129YOPC   GL116037   1.635   6.876   6.016  0.0143 -0.0557 -0.0397
 1129YOPC   GL216038   1.838   7.225   6.249 -0.0178  0.4146 -0.2530
 1129YOPC   C1A16039   1.846   6.686   6.402 -0.1288 -0.0343  0.1622
 1129YOPC   D2A16040   1.831   6.331   6.502  0.3037  0.1194 -0.0495
 1129YOPC   C3A16041   2.161   6.031   6.348 -0.0180  0.1106 -0.2908
 1129YOPC   C4A16042   2.380   5.716   6.138 -0.3290 -0.0016  0.0153
 1129YOPC   C1B16043   2.127   7.117   6.608  0.1761  0.1585 -0.1951
 1129YOPC   C2B16044   2.527   7.206   6.641  0.2362  0.0350  0.0896
 1129YOPC   D3B16045   2.554   7.148   7.053  0.0527 -0.1723 -0.0090
 1129YOPC   C4B16046   2.624   7.314   7.536  0.1732  0.0309 -0.0146
 1130YOPC   NC316047   8.625  15.487   6.336  0.0745 -0.1232  0.0036
 1130YOPC   PO416048   8.861  15.133   6.228 -0.0959  0.4347 -0.1324
 1130YOPC   GL116049   8.996  15.106   6.551  0.1129  0.1756 -0.0008
 1130YOPC   GL216050   9.203  14.855   6.650 -0.0911 -0.0102  0.2876
 1130YOPC   C1A16051   8.700  14.982   6.923 -0.2343  0.1596  0.1532
 1130YOPC   D2A16052   8.390  15.091   7.146  0.0440 -0.2517 -0.0852
 1130YOPC   C3A16053   8.289  15.349   7.512  0.1650 -0.3311 -0.0095
 1130YOPC   C4A16054   8.124  15.265   7.753  0.4340  0.1353 -0.0178
 1130YOPC   C1B16055   9.190  15.063   7.041 -0.0356 -0.1520 -0.0222
 1130YOPC   C2B16056   9.017  15.357   7.337  0.2836 -0.0889  0.2156
 1130YOPC   D3B16057   9.037  15.139   7.762  0.1528 -0.1372  0.3621
 1130YOPC   C4B16058   8.896  14.709   8.009  0.2091 -0.0006 -0.0424
 1131YOPC   NC316059  14.564   7.874   5.557  0.0857 -0.1738 -0.0012
 1131YOPC   PO416060  14.637   7.562   5.938  0.0610 -0.0507  0.3248
 1131YOPC   GL116061  14.411   7.730   6.304 -0.1404  0.0027  0.0456
 1131YOPC   GL216062  14.162   8.019   6.457  0.0214  0.1392  0.0823
 1131YOPC   C1A16063  14.148   7.472   6.515 -0.2547 -0.1273 -0.1615
 1131YOPC   D2A16064  13.983   7.113   6.766  0.0276 -0.2804 -0.1228
 1131YOPC   C3A16065  13.935   7.082   7.138  0.1606  0.3180 -0.0252
 1131YOPC   C4A16066  13.785   7.043   7.563 -0.0546 -0.3538  0.0996
 1131YOPC   C1B16067  14.142   7.917   6.840 -0.0270 -0.2240  0.2501
 1131YOPC   C2B16068  14.088   7.799   7.203 -0.2992  0.1648  0.0307
 1131YOPC   D3B16069  14.095   8.033   7.589  0.3115  0.3108 -0.1242
 1131YOPC   C4B16070  13.877   8.219   7.834  0.2310 -0.0085  0.0464
 1132YOPC   NC316071   2.745   2.804   5.569 -0.0429 -0.5574 -0.2717
 1132YOPC   PO416072   2.761   3.079   5.949 -0.1573  0.1763 -0.0664
 1132YOPC   GL116073   3.022   3.075   6.321 -0.2297 -0.0335  0.1204
 1132YOPC   GL216074   2.865   2.781   6.353 -0.0186 -0.2961 -0.2397
 1132YOPC   C1A16075   3.236   3.076   6.683  0.1683  0.1184 -0.2638
 1132YOPC   D2A16076   3.544   3.176   6.829  0.4206 -0.1669 -0.1700
 1132YOPC   C3A16077   3.574   3.314   7.183 -0.2365  0.1042  0.0508
 1132YOPC   C4A16078   3.565   3.503   7.527  0.0507  0.0085  0.2314
 1132YOPC   C1B16079   3.001   2.630   6.715  0.3911  0.0425 -0.0229
 1132YOPC   C2B16080   3.158   2.328   6.890 -0.0071  0.0439  0.0643
 1132YOPC   D3B16081   3.140   2.300   7.420  0.1558  0.0508  0.2115
 1132YOPC   C4B16082   3.369   2.274   7.918  0.0123  0.1440 -0.2859
 1133YOPC   NC316083   0.690  13.762   5.570 -0.2679 -0.1510  0.0139
 1133YOPC   PO416084   1.050  13.489   5.633 -0.0037  0.0859 -0.0265
 1133YOPC   GL116085   1.080  13.793   6.008 -0.0221  0.2159  0.0648
 1133YOPC   GL216086   1.387  13.677   6.135  0.1034 -0.1091 -0.1309
 1133YOPC   C1A16087   0.802  13.753   6.404  0.1868  0.1089 -0.3397
 1133YOPC   D2A16088   0.459  13.715   6.665  0.1831  0.1195  0.2513
 1133YOPC   C3A16089   0.586  13.627   7.004  0.0654  0.0822  0.3448
 1133YOPC   C4A16090   0.403  13.552   7.420  0.0923 -0.0883 -0.1851
 1133YOPC   C1B16091   1.273  13.609   6.611 -0.2532  0.2125  0.2883
 1133YOPC   C2B16092   1.056  13.831   6.922 -0.2251  0.2774  0.0619
 1133YOPC   D3B16093   1.301  13.889   7.389 -0.0617  0.0389  0.0982
 1133YOPC   C4B16094   1.578  13.976   7.706 -0.2395 -0.0880 -0.1547
 1134YOPC   NC316095  16.138  14.102   5.862 -0.0694 -0.2577 -0.0164
 1134YOPC   PO416096  16.420  13.741   5.874 -0.1406  0.6214 -0.2907
 1134YOPC   GL116097  16.443  13.817   6.350 -0.1609  0.1906 -0.1991
 1134YOPC   GL216098  16.639  14.048   6.519  0.3960  0.1370 -0.2197
 1134YOPC   C1A16099  16.372  13.751   6.824  0.0597  0.2039 -0.3418
 1134YOPC   D2A16100  16.647  13.673   7.141  0.4705  0.0335  0.0749
 1134YOPC   C3A16101  16.493  13.332   7.286 -0.0909 -0.1149 -0.4816
 1134YOPC   C4A16102  16.206  13.020   7.353 -0.0772 -0.2734 -0.0983
 1134YOPC   C1B16103  16.598  14.142   6.984 -0.0097  0.2554  0.1078
 1134YOPC   C2B16104  16.515  14.099   7.413  0.1981  0.1966  0.1124
 1134YOPC   D3B16105  16.352  13.774   7.539 -0.0211  0.3051 -0.0397
 1134YOPC   C4B16106  16.421  13.489   7.772 -0.3045  0.2762  0.1474
 1135YOPC   NC316107  11.177  18.177   5.841  0.0021 -0.0195  0.1750
 1135YOPC   PO416108  11.430  18.527   5.894  0.2326 -0.0609  0.0651
 1135YOPC   GL116109  11.535  18.701   6.280  0.0539  0.2538 -0.1802
 1135YOPC   GL216110  11.421  18.454   6.465  0.1665  0.3773  0.0924
 1135YOPC   C1A16111  11.205  18.906   6.509 -0.1346  0.1287 -0.2280
 1135YOPC   D2A16112  10.789  18.954   6.484 -0.2820  0.1886  0.1079
 1135YOPC   C3A16113  10.660  19.165   6.808  0.1403 -0.3451  0.0074
 1135YOPC   C4A16114  10.655  19.159   7.250  0.3728 -0.0599  0.0051
 1135YOPC   C1B16115  11.290  18.541   6.829 -0.0431 -0.0255  0.1344
 1135YOPC   C2B16116  11.515  18.497   7.322  0.1762 -0.4039  0.0091
 1135YOPC   D3B16117  11.942  18.518   7.431 -0.0691 -0.3137  0.1656
 1135YOPC   C4B16118  12.143  18.340   7.761 -0.0249 -0.0568  0.2800
 1136YOPC   NC316119  14.459  13.894   5.757  0.0254  0.2593  0.0682
 1136YOPC   PO416120  14.785  13.546   5.817 -0.0566  0.1956  0.2737
 1136YOPC   GL116121  14.647  13.727   6.207  0.0833  0.3109  0.0528
 1136YOPC   GL216122  14.492  13.499   6.419  0.1578  0.1098  0.1332
 1136YOPC   C1A16123  14.459  13.973   6.533 -0.2681 -0.0930  0.2132
 1136YOPC   D2A16124  14.540  14.031   6.990 -0.2485  0.0678 -0.0234
 1136YOPC   C3A16125  14.762  13.758   7.263  0.1763  0.0235 -0.2882
 1136YOPC   C4A16126  14.842  13.500   7.697 -0.1404  0.0558 -0.1887
 1136YOPC   C1B16127  14.514  13.553   6.840  0.2709  0.0376  0.1034
 1136YOPC   C2B16128  14.581  13.213   6.958  0.0099 -0.2241 -0.0223
 1136YOPC   D3B16129  14.521  13.308   7.379  0.0059 -0.1375 -0.1504
 1136YOPC   C4B16130  14.326  13.327   7.745 -0.1993 -0.0855 -0.0531
 1137YOPC   NC316131   3.315   8.051   5.635  0.1272  0.2370  0.0298
 1137YOPC   PO416132   3.244   7.633   5.874 -0.0831 -0.0135 -0.1281
 1137YOPC   GL116133   3.411   7.424   6.209  0.4899  0.1475  0.2552
 1137YOPC   GL216134   3.718   7.348   6.076 -0.0322 -0.2764 -0.1963
 1137YOPC   C1A16135   3.528   7.369   6.638 -0.0507  0.0298 -0.2923
 1137YOPC   D2A16136   3.550   7.420   7.094  0.2253 -0.1250 -0.0870
 1137YOPC   C3A16137   3.397   7.468   7.456 -0.1105 -0.1438 -0.2625
 1137YOPC   C4A16138   3.477   7.754   7.704  0.4768 -0.0735 -0.3122
 1137YOPC   C1B16139   3.577   6.984   6.310  0.2426  0.0385  0.3247
 1137YOPC   C2B16140   3.502   6.923   6.738 -0.1344 -0.2301 -0.0116
 1137YOPC   D3B16141   3.111   7.065   6.951  0.0460 -0.0391  0.0649
 1137YOPC   C4B16142   2.981   7.045   7.350  0.0698 -0.3154 -0.0079
 1138YOPC   NC316143   6.155  14.242   6.087  0.0022  0.1773  0.3182
 1138YOPC   PO416144   5.734  14.298   5.970  0.1812  0.0962 -0.3168
 1138YOPC   GL116145   5.736  14.257   6.432 -0.1102  0.0844 -0.5119
 1138YOPC   GL216146   5.628  14.673   6.524 -0.0819  0.0059 -0.1936
 1138YOPC   C1A16147   5.755  14.016   6.839 -0.1592 -0.1428  0.0394
 1138YOPC   D2A16148   5.611  13.938   7.233 -0.1846 -0.1362 -0.2382
 1138YOPC   C3A16149   5.885  13.830   7.511  0.0938  0.2293 -0.3078
 1138YOPC   C4A16150   5.722  13.663   7.959 -0.1971  0.0764  0.0862
 1138YOPC   C1B16151   5.715  14.436   6.988  0.1604  0.0066  0.0242
 1138YOPC   C2B16152   5.967  14.259   7.274  0.1079  0.0501  0.0974
 1138YOPC   D3B16153   5.971  14.278   7.687 -0.2617  0.1744 -0.1906
 1138YOPC   C4B16154   5.719  14.141   7.989  0.0716 -0.1834 -0.2583
 1139YOPC   NC316155  12.291   1.031   5.943 -0.1327 -0.0235 -0.2627
 1139YOPC   PO416156  12.277   0.646   5.867 -0.1096 -0.3636 -0.2068
 1139YOPC   GL116157  12.156   0.714   6.329 -0.0105  0.1001 -0.0899
 1139YOPC   GL216158  11.931   0.877   6.275  0.2138 -0.1121  0.2049
 1139YOPC   C1A16159  12.218   0.749   6.794 -0.1754 -0.1880  0.0677
 1139YOPC   D2A16160  12.227   0.782   7.221 -0.0839 -0.1740 -0.1516
 1139YOPC   C3A16161  12.582   0.871   7.351  0.1667 -0.1780  0.0812
 1139YOPC   C4A16162  12.824   1.033   7.687  0.3377 -0.3016  0.0523
 1139YOPC   C1B16163  11.733   0.738   6.662 -0.1764  0.0641  0.0940
 1139YOPC   C2B16164  11.727   0.634   6.997  0.1589 -0.0386  0.4745
 1139YOPC   D3B16165  11.577   0.839   7.346  0.2398 -0.1267 -0.1087
 1139YOPC   C4B16166  11.602   1.151   7.548 -0.3369  0.3370 -0.0868
 1140YOPC   NC316167   2.968  16.474   5.931  0.1469  0.2370  0.0722
 1140YOPC   PO416168   3.174  16.281   5.731 -0.0323  0.0602  0.0778
 1140YOPC   GL116169   3.370  16.316   6.115  0.1205  0.3138 -0.3305
 1140YOPC   GL216170   3.517  16.604   6.204  0.2629 -0.1623  0.0200
 1140YOPC   C1A16171   3.478  16.041   6.508 -0.0691  0.2099 -0.0252
 1140YOPC   D2A16172   3.444  15.802   6.854  0.1230  0.1519  0.4853
 1140YOPC   C3A16173   3.241  15.921   7.307  0.0965 -0.0755 -0.1000
 1140YOPC   C4A16174   3.053  15.636   7.646 -0.0315 -0.1272 -0.1681
 1140YOPC   C1B16175   3.705  16.488   6.572 -0.3299 -0.0492 -0.1782
 1140YOPC   C2B16176   3.838  16.290   6.853  0.0024  0.0799  0.1040
 1140YOPC   D3B16177   3.680  16.366   7.157 -0.2768  0.0562 -0.3708
 1140YOPC   C4B16178   3.626  16.212   7.647  0.0789  0.1462 -0.0425
 1141YOPC   NC316179   9.675  13.140   5.527  0.1222 -0.2718  0.0400
 1141YOPC   PO416180   9.325  13.158   5.845  0.1504 -0.1668 -0.2375
 1141YOPC   GL116181   9.209  13.020   6.199  0.0151  0.0397  0.0249
 1141YOPC   GL216182   9.361  12.687   6.302  0.2607 -0.0216 -0.0589
 1141YOPC   C1A16183   8.851  13.014   6.450 -0.0686  0.1948  0.0908
 1141YOPC   D2A16184   8.677  12.863   6.819  0.2576  0.0747 -0.1321
 1141YOPC   C3A16185   8.665  13.054   7.188 -0.1954 -0.0472 -0.2152
 1141YOPC   C4A16186   8.472  13.428   7.215 -0.2379 -0.0254  0.1500
 1141YOPC   C1B16187   9.157  12.415   6.566  0.1537 -0.0909 -0.0074
 1141YOPC   C2B16188   9.048  12.269   6.936 -0.2782 -0.1839  0.0979
 1141YOPC   D3B16189   8.759  12.021   7.060 -0.1577  0.2582 -0.0567
 1141YOPC   C4B16190   8.733  11.678   7.399  0.3325 -0.1091  0.5225
 1142YOPC   NC316191  14.893   9.465   6.149 -0.0532  0.3092 -0.0457
 1142YOPC   PO416192  15.125   9.781   6.366 -0.1799  0.2785 -0.1100
 1142YOPC   GL116193  15.034   9.654   6.844  0.1374 -0.0655  0.2512
 1142YOPC   GL216194  15.332   9.597   6.862  0.2106 -0.0622 -0.0704
 1142YOPC   C1A16195  14.752   9.577   7.151 -0.1383  0.0821  0.2170
 1142YOPC   D2A16196  14.602   9.496   7.547  0.0394  0.0543  0.2048
 1142YOPC   C3A16197  14.309   9.659   7.767 -0.0560  0.3901  0.3578
 1142YOPC   C4A16198  14.182   9.631   8.144  0.0366  0.0762 -0.0709
 1142YOPC   C1B16199  15.294   9.575   7.338  0.0718 -0.2368 -0.0157
 1142YOPC   C2B16200  15.261   9.566   7.690 -0.0609  0.0585  0.3181
 1142YOPC   D3B16201  15.001   9.405   7.938  0.2633  0.2028  0.0101
 1142YOPC   C4B16202  14.599   9.379   8.115  0.2838 -0.3721  0.1595
 1143ERGO   ROH16203   6.885  17.470   6.591  0.0826 -0.0005 -0.0006
 1143ERGO    R116204   6.906  17.622   6.829 -0.0080  0.0896 -0.0479
 1143ERGO    R216205   6.684  17.721   6.963 -0.0796 -0.0908 -0.0160
 1143ERGO    R316206   6.794  17.590   7.174  0.1099  0.0709 -0.0131
 1143ERGO    R416207   6.619  17.791   7.295 -0.1595 -0.1720 -0.0156
 1143ERGO    R516208   6.830  17.760   7.338 -0.1189  0.1230 -0.0216
 1143ERGO    C116209   6.684  17.708   7.687 -0.0280 -0.0675 -0.0126
 1143ERGO    C216210   6.620  17.609   8.063 -0.1359 -0.0805  0.0593
 1144ERGO   ROH16211   9.089   5.959   6.470  0.3243 -0.0830  0.1214
 1144ERGO    R116212   9.144   5.862   6.730  0.1795 -0.0206  0.1764
 1144ERGO    R216213   9.094   6.010   6.958  0.1061  0.0566  0.1100
 1144ERGO    R316214   8.953   5.790   7.032  0.0210  0.1105  0.1093
 1144ERGO    R416215   8.974   5.950   7.277  0.3273 -0.0256  0.1796
 1144ERGO    R516216   9.030   5.740   7.253  0.1723 -0.0535  0.0232
 1144ERGO    C116217   8.771   5.708   7.531  0.3762 -0.0227  0.2193
 1144ERGO    C216218   8.519   5.856   7.740 -0.2233  0.1939 -0.1624
 1145ERGO   ROH16219   2.689  18.151   6.387 -0.1119 -0.2135 -0.0568
 1145ERGO    R116220   2.658  17.976   6.607  0.0113 -0.0753  0.0737
 1145ERGO    R216221   2.762  18.032   6.857  0.1297  0.0971 -0.0064
 1145ERGO    R316222   2.506  17.991   6.938  0.1705  0.1270  0.1388
 1145ERGO    R416223   2.666  17.961   7.181  0.2905  0.1509  0.0533
 1145ERGO    R516224   2.522  17.817   7.102  0.2405  0.1531  0.1538
 1145ERGO    C116225   2.369  17.881   7.446  0.4224  0.2100  0.2244
 1145ERGO    C216226   2.300  17.846   7.771  0.0931  0.0771  0.3665
 1146ERGO   ROH16227  14.123   3.154   5.807  0.0103  0.1866 -0.1688
 1146ERGO    R116228  14.168   3.176   6.085 -0.0472 -0.1589 -0.1282
 1146ERGO    R216229  14.350   3.017   6.219  0.2557 -0.0271 -0.3716
 1146ERGO    R316230  14.449   3.257   6.302 -0.2055  0.0483  0.0036
 1146ERGO    R416231  14.558   3.060   6.492  0.3417 -0.0896 -0.4267
 1146ERGO    R516232  14.447   3.242   6.542 -0.0251 -0.4060 -0.0130
 1146ERGO    C116233  14.772   3.310   6.729 -0.0410 -0.0552 -0.1066
 1146ERGO    C216234  15.113   3.327   6.826 -0.0283  0.2823  0.0014
 1147ERGO   ROH16235  10.101   5.272   6.597 -0.0078 -0.1131 -0.0359
 1147ERGO    R116236  10.124   5.444   6.821  0.0054 -0.0769 -0.0661
 1147ERGO    R216237   9.914   5.600   6.911  0.0576  0.0463 -0.1707
 1147ERGO    R316238   9.965   5.476   7.147 -0.0846  0.0762 -0.1223
 1147ERGO    R416239   9.899   5.752   7.221  0.2053  0.1872 -0.2305
 1147ERGO    R516240  10.078   5.642   7.278  0.0910  0.0117 -0.1823
 1147ERGO    C116241   9.939   5.724   7.623  0.1578  0.2973 -0.2199
 1147ERGO    C216242   9.785   5.715   7.950  0.0189  0.1501  0.1365
 1148ERGO   ROH16243  16.028  14.173   6.382  0.0287  0.4676  0.0902
 1148ERGO    R116244  16.110  14.127   6.649 -0.0118  0.2689  0.0705
 1148ERGO    R216245  16.114  14.326   6.840  0.1947  0.1874  0.1591
 1148ERGO    R316246  15.960  14.151   6.979  0.0162  0.2805  0.0813
 1148ERGO    R416247  16.128  14.280   7.182  0.2126 -0.0457  0.1279
 1148ERGO    R516248  16.106  14.066   7.149 -0.0485 -0.0003 -0.0016
 1148ERGO    C116249  15.991  14.088   7.512  0.0555 -0.0941  0.0368
 1148ERGO    C216250  16.218  14.270   7.807  0.0316  0.0639 -0.1956
 1149ERGO   ROH16251   6.946  14.263   6.270  0.2073 -0.1958 -0.0780
 1149ERGO    R116252   6.956  14.335   6.544  0.0180  0.1656 -0.1589
 1149ERGO    R216253   6.797  14.533   6.652 -0.3840  0.0104 -0.4409
 1149ERGO    R316254   6.726  14.336   6.825 -0.0507  0.0798 -0.2142
 1149ERGO    R416255   6.648  14.585   6.959 -0.3484  0.1125 -0.4403
 1149ERGO    R516256   6.774  14.427   7.041 -0.0977  0.3661 -0.3205
 1149ERGO    C116257   6.494  14.431   7.301 -0.0147  0.2370 -0.2273
 1149ERGO    C216258   6.462  14.447   7.656  0.3883  0.0642 -0.1074
 1150ERGO   ROH16259  15.880   6.514   6.692  0.1006 -0.1759  0.0949
 1150ERGO    R116260  15.709   6.470   6.913  0.0029 -0.1440  0.0274
 1150ERGO    R216261  15.804   6.416   7.167 -0.1063 -0.0299  0.0983
 1150ERGO    R316262  15.646   6.627   7.235 -0.1957 -0.0454 -0.0585
 1150ERGO    R416263  15.666   6.466   7.480 -0.3566  0.0080 -0.0160
 1150ERGO    R516264  15.483   6.533   7.383 -0.2923 -0.0421 -0.1667
 1150ERGO    C116265  15.439   6.693   7.727 -0.5864  0.0154 -0.2298
 1150ERGO    C216266  15.312   6.695   8.014 -0.0099 -0.0336  0.0045
 1151ERGO   ROH16267  12.607   9.725   6.356  0.0384  0.0736  0.1344
 1151ERGO    R116268  12.673   9.788   6.624  0.0473 -0.0051  0.1513
 1151ERGO    R216269  12.485   9.868   6.809  0.0654  0.0182  0.1607
 1151ERGO    R316270  12.588   9.663   6.954 -0.0093 -0.0466  0.1207
 1151ERGO    R416271  12.428   9.816   7.146  0.0329 -0.0309  0.1474
 1151ERGO    R516272  12.637   9.759   7.168  0.0141 -0.1061  0.1433
 1151ERGO    C116273  12.491   9.592   7.478 -0.0563 -0.1205  0.1020
 1151ERGO    C216274  12.370   9.461   7.796 -0.0557 -0.2784  0.1007
 1152ERGO   ROH16275   6.919   7.956   6.203 -0.3367  0.0569 -0.0600
 1152ERGO    R116276   7.048   7.887   6.446 -0.2091 -0.1458 -0.1819
 1152ERGO    R216277   7.067   8.062   6.659  0.3070 -0.1536 -0.2075
 1152ERGO    R316278   6.953   7.856   6.796  0.0820  0.0495 -0.0819
 1152ERGO    R416279   7.075   8.024   7.002  0.3307  0.0080 -0.1899
 1152ERGO    R516280   7.107   7.810   6.973  0.0649 -0.0491 -0.0917
 1152ERGO    C116281   6.973   7.808   7.331  0.1334  0.2927 -0.0617
 1152ERGO    C216282   6.955   7.848   7.678 -0.0481 -0.0489  0.0640
 1153ERGO   ROH16283   9.056   6.868   5.891 -0.1388  0.0443  0.0021
 1153ERGO    R116284   9.032   6.785   6.161 -0.0261 -0.0905 -0.0284
 1153ERGO    R216285   8.989   6.963   6.368  0.0472 -0.1959  0.0755
 1153ERGO    R316286   8.777   6.801   6.420  0.0770 -0.2332  0.0839
 1153ERGO    R416287   8.776   6.998   6.637 -0.0602 -0.1149 -0.0188
 1153ERGO    R516288   8.775   6.782   6.659 -0.0016 -0.1063  0.0960
 1153ERGO    C116289   8.453   6.867   6.844 -0.0949 -0.1028 -0.0659
 1153ERGO    C216290   8.139   7.042   7.033 -0.1269  0.0817  0.1646
 1154ERGO   ROH16291   0.353   0.904   6.426 -0.1027  0.1503 -0.1348
 1154ERGO    R116292   0.233   0.983   6.670 -0.1154 -0.0550 -0.0727
 1154ERGO    R216293   0.124   0.802   6.848  0.1853 -0.2349 -0.0682
 1154ERGO    R316294   0.290   0.925   7.024  0.0941 -0.0547 -0.1047
 1154ERGO    R416295   0.099   0.781   7.192  0.3329 -0.3354 -0.0623
 1154ERGO    R516296   0.147   0.993   7.204  0.0679 -0.2705 -0.0402
 1154ERGO    C116297   0.241   0.884   7.558  0.3333 -0.2247 -0.0932
 1154ERGO    C216298   0.328   0.732   7.973  0.0599 -0.1712  0.2959
 1155ERGO   ROH16299  14.980   8.650   6.513  0.0330 -0.2464  0.0804
 1155ERGO    R116300  14.942   8.721   6.784 -0.1619 -0.1506  0.0288
 1155ERGO    R216301  14.693   8.725   6.903 -0.2039 -0.5159 -0.0423
 1155ERGO    R316302  14.812   8.562   7.084  0.0394 -0.2037  0.0901
 1155ERGO    R416303  14.578   8.668   7.224 -0.3356 -0.6965 -0.1194
 1155ERGO    R516304  14.784   8.674   7.294 -0.3873 -0.2035  0.0448
 1155ERGO    C116305  14.623   8.482   7.581 -0.1839 -0.5086 -0.0399
 1155ERGO    C216306  14.502   8.135   7.846 -0.0906 -0.1386  0.2977
 1156ERGO   ROH16307   5.397   5.058   6.211  0.0157 -0.0594 -0.0511
 1156ERGO    R116308   5.183   5.061   6.397 -0.0136 -0.1322 -0.0841
 1156ERGO    R216309   5.151   4.865   6.589  0.0908 -0.0804 -0.0173
 1156ERGO    R316310   5.148   5.078   6.759 -0.0794 -0.0182 -0.0945
 1156ERGO    R416311   5.090   4.846   6.929  0.1523 -0.0180 -0.0021
 1156ERGO    R516312   4.971   5.029   6.913 -0.0185 -0.1266 -0.0541
 1156ERGO    C116313   5.052   5.035   7.286  0.0284  0.0766 -0.0657
 1156ERGO    C216314   4.963   4.941   7.545  0.2503  0.2809  0.1681
 1157ERGO   ROH16315   4.003   6.725   6.188  0.0224  0.2917  0.0319
 1157ERGO    R116316   4.105   6.848   6.422 -0.0359  0.2878  0.0592
 1157ERGO    R216317   4.102   7.122   6.460 -0.2109  0.2746  0.1419
 1157ERGO    R316318   3.974   7.056   6.690 -0.1467  0.1219  0.1355
 1157ERGO    R416319   4.144   7.283   6.762 -0.3681  0.2849  0.1597
 1157ERGO    R516320   4.138   7.089   6.861 -0.1764  0.2653  0.1384
 1157ERGO    C116321   4.049   7.315   7.155 -0.3994  0.1475  0.1640
 1157ERGO    C216322   3.822   7.250   7.441 -0.0822 -0.2330  0.0438
 1158ERGO   ROH16323  14.300  14.398   6.454  0.0749  0.1564  0.1641
 1158ERGO    R116324  14.174  14.460   6.700  0.0760  0.2424  0.1438
 1158ERGO    R216325  14.105  14.266   6.884 -0.1526  0.2794  0.1022
 1158ERGO    R316326  14.251  14.421   7.053 -0.0409  0.1177  0.1556
 1158ERGO    R416327  14.129  14.216   7.225 -0.0932  0.0815  0.0703
 1158ERGO    R516328  14.118  14.432   7.253  0.0137  0.0705  0.1932
 1158ERGO    C116329  14.281  14.333   7.583  0.0463 -0.1855  0.1018
 1158ERGO    C216330  14.152  14.246   7.968  0.0885 -0.3018  0.1073
 1159ERGO   ROH16331   1.571   0.881   6.425  0.0055 -0.0867 -0.0410
 1159ERGO    R116332   1.635   1.043   6.648  0.0420 -0.0789 -0.0576
 1159ERGO    R216333   1.556   0.979   6.906 -0.0535  0.0136 -0.0653
 1159ERGO    R316334   1.822   1.004   6.958 -0.0515 -0.1216 -0.0055
 1159ERGO    R416335   1.696   0.987   7.222 -0.1232 -0.0547 -0.0322
 1159ERGO    R516336   1.832   1.142   7.153 -0.0265 -0.1232 -0.0039
 1159ERGO    C116337   2.026   1.014   7.455 -0.1619 -0.2215  0.0433
 1159ERGO    C216338   2.153   1.041   7.803 -0.1311 -0.3380 -0.1060
 1160ERGO   ROH16339  12.695  10.662   6.528 -0.2798 -0.2251  0.1162
 1160ERGO    R116340  12.866  10.733   6.743 -0.1424 -0.1369 -0.0205
 1160ERGO    R216341  12.793  10.700   7.008  0.0408 -0.0634  0.0386
 1160ERGO    R316342  13.027  10.561   7.020  0.0678 -0.0299 -0.0734
 1160ERGO    R416343  12.986  10.662   7.292  0.1262 -0.1250 -0.0267
 1160ERGO    R516344  13.164  10.688   7.169  0.0887 -0.0551 -0.0694
 1160ERGO    C116345  13.317  10.509   7.469  0.2013 -0.1295 -0.1698
 1160ERGO    C216346  13.581  10.482   7.644  0.4757 -0.3342  0.0270
 1161ERGO   ROH16347  11.021   8.587   6.269  0.0188 -0.2469  0.1047
 1161ERGO    R116348  11.087   8.534   6.540 -0.0679 -0.0729  0.1611
 1161ERGO    R216349  11.278   8.678   6.677  0.0425 -0.1257  0.0603
 1161ERGO    R316350  11.076   8.716   6.855  0.0503  0.2123  0.0057
 1161ERGO    R416351  11.308   8.847   6.977  0.2772 -0.2595  0.1151
 1161ERGO    R516352  11.181   8.696   7.069 -0.0475 -0.0502  0.0348
 1161ERGO    C116353  11.135   8.980   7.319  0.4213 -0.0202  0.0959
 1161ERGO    C216354  11.273   9.102   7.583  0.0283 -0.1273 -0.0222
 1162ERGO   ROH16355   6.610   1.646   6.556  0.0531  0.2183 -0.0012
 1162ERGO    R116356   6.666   1.714   6.825  0.0463  0.1104  0.0277
 1162ERGO    R216357   6.542   1.926   6.953  0.0678  0.0765  0.0979
 1162ERGO    R316358   6.479   1.735   7.136  0.0324  0.0189  0.0268
 1162ERGO    R416359   6.466   1.987   7.285 -0.1343 -0.0057  0.0684
 1162ERGO    R516360   6.581   1.810   7.339 -0.1010  0.0201  0.0982
 1162ERGO    C116361   6.362   1.843   7.649 -0.2852 -0.1076 -0.0155
 1162ERGO    C216362   6.234   1.796   8.011  0.0679  0.3951 -0.2491
 1163ERGO   ROH16363  12.775  11.703   6.796 -0.0945  0.2361 -0.0598
 1163ERGO    R116364  12.864  11.634   7.056 -0.0808  0.0987 -0.1006
 1163ERGO    R216365  12.927  11.824   7.247 -0.0155 -0.0022 -0.0233
 1163ERGO    R316366  12.748  11.684   7.397 -0.0296 -0.0285 -0.0634
 1163ERGO    R416367  12.954  11.770   7.587 -0.0624 -0.0307 -0.0236
 1163ERGO    R516368  12.883  11.566   7.556 -0.0443 -0.0341 -0.0534
 1163ERGO    C116369  12.802  11.607   7.926 -0.1030 -0.0719 -0.0615
 1163ERGO    C216370  12.475  11.549   8.181 -0.0524  0.1728 -0.0195
 1164ERGO   ROH16371   9.180  12.186   5.869 -0.1376 -0.0513  0.1691
 1164ERGO    R116372   9.116  12.145   6.142 -0.1410 -0.0977  0.1616
 1164ERGO    R216373   8.862  12.186   6.244 -0.1235 -0.0310  0.1825
 1164ERGO    R316374   8.892  11.931   6.332 -0.2114 -0.0652  0.1151
 1164ERGO    R416375   8.679  12.041   6.498 -0.1934 -0.0493  0.1219
 1164ERGO    R516376   8.860  11.945   6.569 -0.2320 -0.1238  0.1145
 1164ERGO    C116377   8.600  11.717   6.729 -0.3167 -0.0920  0.0233
 1164ERGO    C216378   8.357  11.499   6.965 -0.3129 -0.0940  0.1780
 1165ERGO   ROH16379   1.164  14.062   6.468  0.3758  0.2690 -0.0729
 1165ERGO    R116380   1.264  14.228   6.674  0.1809  0.2074  0.0744
 1165ERGO    R216381   1.100  14.349   6.861  0.0195  0.0009  0.0722
 1165ERGO    R316382   1.265  14.226   7.038  0.0090 -0.0086  0.0752
 1165ERGO    R416383   1.147  14.448   7.189 -0.0590 -0.0677  0.1046
 1165ERGO    R516384   1.360  14.405   7.166 -0.0482 -0.0222  0.1349
 1165ERGO    C116385   1.330  14.391   7.546 -0.1147 -0.1165  0.1262
 1165ERGO    C216386   1.308  14.391   7.883 -0.3172 -0.1042 -0.0463
 1166ERGO   ROH16387  18.076  10.983   6.573  0.0706 -0.0756 -0.0973
 1166ERGO    R116388  18.231  10.893   6.792 -0.0101 -0.2084 -0.0940
 1166ERGO    R216389  18.225  11.017   7.039  0.2222 -0.0924 -0.1462
 1166ERGO    R316390  18.166  10.767   7.128 -0.1226  0.0252 -0.0250
 1166ERGO    R416391  18.238  10.918   7.370  0.4252 -0.0320 -0.1341
 1166ERGO    R516392  18.324  10.728   7.304  0.0191 -0.2092 -0.1957
 1166ERGO    C116393  18.190  10.625   7.645  0.2197  0.1136 -0.0132
 1166ERGO    C216394  18.026  10.547   7.894  0.0978 -0.0917  0.1710
 1167ERGO   ROH16395  14.103  13.958   6.079 -0.0377 -0.0009 -0.0004
 1167ERGO    R116396  13.999  13.911   6.338 -0.1342  0.0429 -0.0325
 1167ERGO    R216397  13.898  14.113   6.497 -0.2188  0.0597 -0.1221
 1167ERGO    R316398  13.679  13.952   6.507 -0.2067  0.0372 -0.1622
 1167ERGO    R416399  13.673  14.101   6.759 -0.1257 -0.1263 -0.0471
 1167ERGO    R516400  13.665  13.884   6.736 -0.1191 -0.1205 -0.1953
 1167ERGO    C116401  13.337  13.942   6.921 -0.0602 -0.2557 -0.0410
 1167ERGO    C216402  13.080  14.007   7.124 -0.0660 -0.0946 -0.0612
 1168ERGO   ROH16403   7.823  14.734   6.534 -0.1509  0.2297 -0.1386
 1168ERGO    R116404   7.871  14.795   6.806 -0.1040 -0.0433 -0.0835
 1168ERGO    R216405   7.958  15.044   6.890  0.2068 -0.2178  0.1209
 1168ERGO    R316406   7.739  15.030   7.051  0.1672 -0.0614  0.0844
 1168ERGO    R416407   7.917  15.221   7.184  0.0908  0.1558 -0.1117
 1168ERGO    R516408   7.828  15.043   7.273  0.1093  0.2445  0.0955
 1168ERGO    C116409   7.689  15.311   7.507 -0.0140  0.5201 -0.2813
 1168ERGO    C216410   7.360  15.373   7.669  0.2653 -0.0324 -0.0740
 1169ERGO   ROH16411  16.318  12.292   6.340  0.1769  0.0775  0.0381
 1169ERGO    R116412  16.440  12.397   6.572  0.0392  0.0783  0.1116
 1169ERGO    R216413  16.299  12.534   6.766 -0.0975 -0.0241  0.0860
 1169ERGO    R316414  16.409  12.349   6.932 -0.0861 -0.0145  0.0891
 1169ERGO    R416415  16.310  12.559   7.111 -0.0090  0.0311  0.0798
 1169ERGO    R516416  16.512  12.478   7.105 -0.0228 -0.0019  0.0430
 1169ERGO    C116417  16.419  12.399   7.467  0.0531  0.0722  0.0791
 1169ERGO    C216418  16.402  12.608   7.707 -0.1507  0.1809 -0.0065
 1170ERGO   ROH16419   4.379   0.602   6.296  0.0394  0.0292 -0.0687
 1170ERGO    R116420   4.430   0.468   6.541 -0.0295 -0.0062 -0.0739
 1170ERGO    R216421   4.650   0.527   6.699 -0.0320 -0.0869 -0.0465
 1170ERGO    R316422   4.461   0.561   6.891 -0.0405 -0.0462 -0.0612
 1170ERGO    R416423   4.706   0.498   7.038 -0.0390 -0.0205 -0.0392
 1170ERGO    R516424   4.514   0.397   7.057 -0.0445 -0.0171 -0.0265
 1170ERGO    C116425   4.562   0.514   7.417 -0.0510  0.0564 -0.0487
 1170ERGO    C216426   4.705   0.644   7.863  0.0768 -0.2148  0.1058
 1171ERGO   ROH16427   9.248  13.412   6.619  0.0685 -0.1983 -0.2112
 1171ERGO    R116428   9.144  13.222   6.801  0.0444 -0.0596 -0.0789
 1171ERGO    R216429   9.193  12.951   6.777 -0.1364 -0.0986  0.0061
 1171ERGO    R316430   9.280  12.977   7.033  0.0121 -0.0497 -0.0480
 1171ERGO    R416431   9.255  12.688   6.992 -0.2056 -0.0561  0.0789
 1171ERGO    R516432   9.165  12.805   7.153 -0.0473  0.0736  0.0802
 1171ERGO    C116433   9.373  12.559   7.358 -0.1066  0.0146  0.0705
 1171ERGO    C216434   9.552  12.353   7.569  0.4047 -0.1541  0.1841
 1172ERGO   ROH16435  10.295   3.725   6.763 -0.2116 -0.0249  0.0261
 1172ERGO    R116436  10.324   3.682   7.041 -0.2857 -0.3554 -0.0147
 1172ERGO    R216437  10.274   3.879   7.228  0.2899 -0.3697  0.1614
 1172ERGO    R316438  10.108   3.691   7.334 -0.2276 -0.0149  0.0246
 1172ERGO    R416439  10.154   3.882   7.552  0.4953 -0.3779  0.2403
 1172ERGO    R516440  10.184   3.666   7.560 -0.1465 -0.5092 -0.0399
 1172ERGO    C116441   9.928   3.707   7.840  0.1293 -0.0496  0.1578
 1172ERGO    C216442   9.731   3.799   8.087 -0.1595 -0.1187  0.2207
 1173ERGO   ROH16443  15.235  13.508   6.141  0.0705 -0.1446  0.0023
 1173ERGO    R116444  15.207  13.625   6.397  0.0813 -0.0966 -0.0183
 1173ERGO    R216445  15.018  13.541   6.580  0.0373 -0.0107 -0.0234
 1173ERGO    R316446  15.234  13.514   6.742  0.0138 -0.0520  0.0013
 1173ERGO    R416447  15.004  13.514   6.924 -0.0023  0.0453 -0.0205
 1173ERGO    R516448  15.179  13.643   6.936  0.0354 -0.0064 -0.0233
 1173ERGO    C116449  15.198  13.474   7.277 -0.0476  0.0390  0.0043
 1173ERGO    C216450  15.358  13.489   7.576 -0.1481  0.1324  0.5571
 1174ERGO   ROH16451  13.016  15.930   6.672  0.3284  0.0305  0.1599
 1174ERGO    R116452  12.742  15.931   6.744  0.2706  0.0696 -0.0591
 1174ERGO    R216453  12.547  15.806   6.591  0.4200 -0.1411 -0.0675
 1174ERGO    R316454  12.490  15.682   6.826  0.2441  0.1234  0.0362
 1174ERGO    R416455  12.235  15.692   6.684  0.4025 -0.3228 -0.3367
 1174ERGO    R516456  12.273  15.763   6.886  0.0703  0.0015 -0.3665
 1174ERGO    C116457  11.999  15.509   6.958  0.2271 -0.1803 -0.3961
 1174ERGO    C216458  11.980  15.305   7.090  0.0634  0.2011 -0.2801
 1175ERGO   ROH16459   1.959   3.199   6.466  0.1844 -0.0511 -0.0759
 1175ERGO    R116460   1.830   3.278   6.706  0.0070 -0.3745 -0.0589
 1175ERGO    R216461   1.771   3.100   6.909  0.5979 -0.5234  0.0015
 1175ERGO    R316462   1.910   3.277   7.061  0.1239 -0.0541 -0.0799
 1175ERGO    R416463   1.757   3.119   7.253  0.5352 -0.3888 -0.0080
 1175ERGO    R516464   1.760   3.336   7.237 -0.0539 -0.3709 -0.1161
 1175ERGO    C116465   1.880   3.297   7.597  0.0538  0.1300 -0.0900
 1175ERGO    C216466   2.108   3.138   7.995  0.0469 -0.0921 -0.1936
 1176ERGO   ROH16467   7.215  16.340   6.844 -0.0785 -0.2927  0.0575
 1176ERGO    R116468   7.234  16.437   7.110 -0.1255 -0.1020 -0.0060
 1176ERGO    R216469   7.077  16.340   7.315 -0.0826 -0.0404  0.0655
 1176ERGO    R316470   7.317  16.300   7.436 -0.0599  0.1552  0.0859
 1176ERGO    R416471   7.119  16.249   7.646 -0.0350 -0.2286  0.0072
 1176ERGO    R516472   7.288  16.386   7.657 -0.2021 -0.0407  0.1402
 1176ERGO    C116473   7.370  16.157   7.951  0.0141 -0.1544 -0.0076
 1176ERGO    C216474   7.491  15.946   8.183  0.2168  0.0768  0.0115
 1177ERGO   ROH16475  14.874  12.093   6.356 -0.1454 -0.1766  0.0769
 1177ERGO    R116476  14.982  12.270   6.549 -0.0877 -0.1085 -0.0188
 1177ERGO    R216477  14.823  12.421   6.717 -0.0338 -0.1180  0.0296
 1177ERGO    R316478  14.973  12.304   6.911  0.1012 -0.0307 -0.0182
 1177ERGO    R416479  14.847  12.533   7.043 -0.3200 -0.3181  0.1251
 1177ERGO    R516480  15.060  12.487   7.038 -0.2313  0.0268  0.1482
 1177ERGO    C116481  15.002  12.488   7.415 -0.3598 -0.3526  0.1357
 1177ERGO    C216482  15.025  12.472   7.749 -0.0314 -0.3246  0.0099
 1178ERGO   ROH16483   1.071   2.695   6.335 -0.1004 -0.1777 -0.2025
 1178ERGO    R116484   0.898   2.653   6.555  0.1139 -0.1626 -0.0283
 1178ERGO    R216485   0.988   2.649   6.816  0.3260  0.1568 -0.0907
 1178ERGO    R316486   0.796   2.838   6.851  0.1600 -0.0045 -0.1112
 1178ERGO    R416487   0.865   2.750   7.123  0.5015  0.3448 -0.0796
 1178ERGO    R516488   0.666   2.756   7.035  0.4112  0.0459  0.0942
 1178ERGO    C116489   0.614   2.986   7.335  0.4478  0.3029 -0.0924
 1178ERGO    C216490   0.590   3.146   7.641  0.0015 -0.0147  0.1838
 1179ERGO   ROH16491   9.484   3.135   6.384 -0.0261 -0.0846  0.1139
 1179ERGO    R116492   9.424   3.232   6.643  0.2297  0.0294  0.1337
 1179ERGO    R216493   9.262   3.094   6.820 -0.0076  0.3405  0.1650
 1179ERGO    R316494   9.476   3.121   6.986  0.0945 -0.0919  0.1169
 1179ERGO    R416495   9.248   3.074   7.164 -0.0123  0.5218  0.1768
 1179ERGO    R516496   9.389   3.240   7.175  0.3938  0.2048  0.0816
 1179ERGO    C116497   9.440   3.087   7.521  0.0810  0.2215  0.1385
 1179ERGO    C216498   9.335   2.924   7.771  0.1867  0.0361  0.1331
 1180ERGO   ROH16499   1.897  14.977   6.389 -0.0014  0.0979 -0.2080
 1180ERGO    R116500   1.774  15.065   6.628  0.0980  0.0772 -0.1496
 1180ERGO    R216501   1.871  15.000   6.879  0.2390  0.1092 -0.1984
 1180ERGO    R316502   1.868  15.269   6.915  0.1925  0.1103 -0.2032
 1180ERGO    R416503   1.779  15.159   7.171  0.1270  0.1015 -0.2279
 1180ERGO    R516504   1.675  15.309   7.052  0.1434  0.0868 -0.2629
 1180ERGO    C116505   1.722  15.505   7.375  0.0180  0.0981 -0.2495
 1180ERGO    C216506   1.705  15.709   7.660 -0.0155  0.0790  0.2839
 1181ERGO   ROH16507  12.429  12.012   6.522  0.1222  0.2410 -0.1029
 1181ERGO    R116508  12.309  11.949   6.771  0.0009  0.0650 -0.2026
 1181ERGO    R216509  12.452  11.946   7.008 -0.1112 -0.1130 -0.1346
 1181ERGO    R316510  12.258  12.118   7.089 -0.1411 -0.1630 -0.1020
 1181ERGO    R416511  12.396  12.040   7.335 -0.2311 -0.3149 -0.0957
 1181ERGO    R516512  12.182  12.028   7.297 -0.2180 -0.2922 -0.1838
 1181ERGO    C116513  12.181  12.257   7.602 -0.3289 -0.4794 -0.0424
 1181ERGO    C216514  11.937  12.418   7.654 -0.1022 -0.1997 -0.2807
 1182ERGO   ROH16515   4.737  15.520   6.357 -0.1451 -0.0226 -0.1463
 1182ERGO    R116516   4.711  15.330   6.565 -0.4375  0.0456 -0.1182
 1182ERGO    R216517   4.904  15.296   6.760 -0.3432 -0.4190 -0.2945
 1182ERGO    R316518   4.695  15.336   6.929 -0.1060  0.1076 -0.0976
 1182ERGO    R416519   4.911  15.241   7.101 -0.1529 -0.4528 -0.3008
 1182ERGO    R516520   4.710  15.157   7.087 -0.3998  0.0424 -0.1239
 1182ERGO    C116521   4.719  15.246   7.458  0.1807  0.0220 -0.1197
 1182ERGO    C216522   4.710  15.197   7.860 -0.0323  0.1062  0.1737
 1183ERGO   ROH16523   9.177   6.349   6.117 -0.0976  0.0551 -0.0706
 1183ERGO    R116524   9.307   6.399   6.363  0.0454 -0.0849 -0.1172
 1183ERGO    R216525   9.198   6.560   6.559  0.3436  0.1372 -0.1324
 1183ERGO    R316526   9.239   6.341   6.715  0.0438  0.1109 -0.0824
 1183ERGO    R416527   9.173   6.555   6.904  0.2437  0.2359 -0.1370
 1183ERGO    R516528   9.349   6.426   6.910  0.0970  0.0234 -0.0683
 1183ERGO    C116529   9.197   6.346   7.251 -0.0958  0.2687 -0.0927
 1183ERGO    C216530   9.136   6.372   7.491 -0.0352 -0.1212  0.5499
 1184ERGO   ROH16531   0.550  13.286   6.261 -0.0530 -0.3609  0.2244
 1184ERGO    R116532   0.640  13.227   6.523  0.1119 -0.2848  0.1865
 1184ERGO    R216533   0.903  13.160   6.579  0.2211  0.0392  0.0889
 1184ERGO    R316534   0.883  13.365   6.756  0.0191 -0.0074  0.1215
 1184ERGO    R416535   1.110  13.207   6.851  0.0790  0.1181  0.1845
 1184ERGO    R516536   0.936  13.266   6.968 -0.0066 -0.0138  0.1239
 1184ERGO    C116537   1.213  13.426   7.176 -0.1935  0.1204  0.2709
 1184ERGO    C216538   1.193  13.440   7.555  0.2646  0.2626  0.1301
 1185ERGO   ROH16539   6.585   6.411   6.237  0.0210 -0.0305 -0.0224
 1185ERGO    R116540   6.729   6.366   6.476  0.0137 -0.0457 -0.0213
 1185ERGO    R216541   6.816   6.572   6.639  0.0792 -0.0539 -0.0489
 1185ERGO    R316542   6.681   6.435   6.830  0.0445  0.0093 -0.0273
 1185ERGO    R416543   6.882   6.586   6.978  0.0602  0.0126 -0.0475
 1185ERGO    R516544   6.848   6.372   6.989  0.0259  0.0187 -0.0022
 1185ERGO    C116545   6.794   6.466   7.355  0.0165  0.1107 -0.0265
 1185ERGO    C216546   6.876   6.518   7.715  0.1813 -0.1926  0.0167
 1186ERGO   ROH16547   5.907  16.124   6.736 -0.2134  0.1392  0.0567
 1186ERGO    R116548   5.838  15.912   6.911 -0.0602  0.0708  0.0361
 1186ERGO    R216549   5.873  15.928   7.185 -0.1425  0.1003  0.0451
 1186ERGO    R316550   5.609  15.864   7.190 -0.0865 -0.1466 -0.0215
 1186ERGO    R416551   5.701  15.822   7.465 -0.1261 -0.0120  0.0134
 1186ERGO    R516552   5.596  15.678   7.340  0.0445 -0.1341  0.0069
 1186ERGO    C116553   5.353  15.701   7.633 -0.0640 -0.3094 -0.0675
 1186ERGO    C216554   5.439  15.726   7.938  0.1594 -0.0440 -0.1828
 1187ERGO   ROH16555   9.816  13.667   6.439  0.0465  0.0179 -0.0521
 1187ERGO    R116556   9.733  13.506   6.656  0.0000  0.0357 -0.0560
 1187ERGO    R216557   9.884  13.476   6.886  0.0101 -0.0425 -0.0701
 1187ERGO    R316558   9.655  13.555   7.008  0.0529  0.0443 -0.0461
 1187ERGO    R416559   9.785  13.378   7.202 -0.0283 -0.0504 -0.0846
 1187ERGO    R516560   9.581  13.361   7.127 -0.0370  0.0608 -0.0784
 1187ERGO    C116561   9.512  13.395   7.501 -0.0104  0.0265 -0.0706
 1187ERGO    C216562   9.427  13.297   7.870 -0.0511  0.2923  0.0008
 1188ERGO   ROH16563  16.858   9.495   6.458 -0.1332 -0.0799  0.0523
 1188ERGO    R116564  16.884   9.487   6.740 -0.0528 -0.0361  0.0460
 1188ERGO    R216565  17.087   9.619   6.875 -0.0706  0.0619 -0.0265
 1188ERGO    R316566  16.879   9.728   7.013 -0.0766 -0.0062  0.0200
 1188ERGO    R416567  17.062   9.632   7.220  0.0844  0.1995 -0.0186
 1188ERGO    R516568  16.850   9.584   7.202  0.1021  0.0573  0.0998
 1188ERGO    C116569  16.852   9.741   7.549  0.1689  0.2156  0.0296
 1188ERGO    C216570  16.770   9.960   7.778 -0.1690 -0.1426  0.0804
 1189ERGO   ROH16571   5.154   9.730   6.321  0.0534 -0.0507  0.0170
 1189ERGO    R116572   5.206   9.762   6.598  0.0579  0.0490  0.0050
 1189ERGO    R216573   5.348   9.576   6.745 -0.1157  0.0010  0.1138
 1189ERGO    R316574   5.501   9.791   6.810  0.0674 -0.0963  0.0132
 1189ERGO    R416575   5.503   9.624   7.050 -0.1597  0.0570  0.1274
 1189ERGO    R516576   5.448   9.835   7.039  0.0391  0.1044 -0.0286
 1189ERGO    C116577   5.736   9.854   7.289 -0.0133 -0.0017  0.0409
 1189ERGO    C216578   6.036   9.934   7.411 -0.2381 -0.1040 -0.2469
 1190ERGO   ROH16579  18.018   9.884   6.173  0.2259 -0.0440 -0.0608
 1190ERGO    R116580  17.950   9.793   6.432  0.1710  0.0048 -0.0570
 1190ERGO    R216581  18.113   9.623   6.577  0.0938 -0.0517 -0.0294
 1190ERGO    R316582  18.092   9.817   6.766  0.1599 -0.0241 -0.0513
 1190ERGO    R416583  18.139   9.571   6.918 -0.0019 -0.0290 -0.0190
 1190ERGO    R516584  17.976   9.713   6.947  0.0701  0.0584 -0.0644
 1190ERGO    C116585  18.135   9.724   7.294  0.0044  0.0100 -0.0335
 1190ERGO    C216586  18.383   9.608   7.516  0.1245 -0.0989 -0.0729
 1191ERGO   ROH16587  14.642   6.098   6.119 -0.1334 -0.1280  0.0034
 1191ERGO    R116588  14.490   6.025   6.347 -0.1235  0.0403  0.0669
 1191ERGO    R216589  14.543   5.796   6.493 -0.3313 -0.0377  0.0327
 1191ERGO    R316590  14.555   5.971   6.701 -0.0264 -0.0558  0.0336
 1191ERGO    R416591  14.528   5.708   6.827 -0.0585 -0.0357  0.0468
 1191ERGO    R516592  14.402   5.882   6.862  0.0808  0.0325  0.1793
 1191ERGO    C116593  14.530   5.820   7.216  0.3866 -0.0515  0.0559
 1191ERGO    C216594  14.764   5.850   7.596 -0.0797 -0.1763  0.0041
 1192ERGO   ROH16595  17.157   2.062   6.444 -0.2429 -0.0543  0.1141
 1192ERGO    R116596  17.012   2.117   6.681 -0.1344  0.0246  0.1621
 1192ERGO    R216597  16.939   1.919   6.860 -0.1959  0.0665  0.1815
 1192ERGO    R316598  17.067   2.079   7.039 -0.0463 -0.0169  0.1426
 1192ERGO    R416599  16.845   1.962   7.190  0.0852 -0.0752  0.2840
 1192ERGO    R516600  16.891   2.174   7.171  0.0690 -0.0734  0.3368
 1192ERGO    C116601  16.910   2.137   7.550  0.3891 -0.2360  0.3072
 1192ERGO    C216602  17.020   1.964   7.809  0.1128 -0.0476 -0.1239
 1193ERGO   ROH16603   2.382   2.870   6.303 -0.0212 -0.0569  0.0192
 1193ERGO    R116604   2.464   3.045   6.509 -0.0026 -0.0748  0.0280
 1193ERGO    R216605   2.503   2.960   6.770 -0.0188 -0.0898  0.0285
 1193ERGO    R316606   2.748   3.073   6.735 -0.0039 -0.1221  0.0348
 1193ERGO    R416607   2.719   3.045   7.025 -0.0695  0.0051  0.0396
 1193ERGO    R516608   2.769   3.227   6.917 -0.0329 -0.0460 -0.0275
 1193ERGO    C116609   3.075   3.199   7.142 -0.0850  0.0300  0.0520
 1193ERGO    C216610   3.136   3.140   7.439 -0.3384 -0.1431  0.3843
 1194ERGO   ROH16611   5.234  14.300   6.184 -0.0517 -0.0001  0.0185
 1194ERGO    R116612   5.101  14.240   6.427 -0.0869  0.0830  0.0205
 1194ERGO    R216613   5.229  14.117   6.639 -0.1889 -0.1083 -0.0234
 1194ERGO    R316614   5.136  14.333   6.777  0.0604 -0.0376  0.0379
 1194ERGO    R416615   5.295  14.182   6.972  0.0403 -0.1697 -0.0555
 1194ERGO    R516616   5.089  14.247   6.996  0.1078 -0.0028  0.0591
 1194ERGO    C116617   5.247  14.422   7.295  0.4079 -0.1389 -0.0167
 1194ERGO    C216618   5.495  14.409   7.482  0.2256 -0.1099 -0.0200
 1195ERGO   ROH16619   9.288   4.865   6.330 -0.2460 -0.0667  0.1302
 1195ERGO    R116620   9.172   4.812   6.582 -0.1848 -0.2123  0.1285
 1195ERGO    R216621   9.243   4.593   6.735  0.0965 -0.1198  0.1358
 1195ERGO    R316622   9.288   4.781   6.926 -0.1525 -0.0533  0.1328
 1195ERGO    R416623   9.228   4.535   7.075  0.0894 -0.1177  0.1355
 1195ERGO    R516624   9.130   4.729   7.098 -0.1341 -0.2212  0.1027
 1195ERGO    C116625   9.261   4.678   7.453 -0.1486 -0.0542  0.1325
 1195ERGO    C216626   9.186   4.415   7.713 -0.2752  0.0894  0.3541
 1196ERGO   ROH16627  13.813   7.714   6.258 -0.1974  0.0186  0.0305
 1196ERGO    R116628  13.699   7.749   6.515 -0.1604 -0.0590  0.0568
 1196ERGO    R216629  13.581   7.542   6.655  0.0307 -0.1427  0.0908
 1196ERGO    R316630  13.756   7.617   6.849  0.0211 -0.0058  0.0491
 1196ERGO    R416631  13.550   7.464   6.990  0.1500 -0.1361  0.1047
 1196ERGO    R516632  13.618   7.665   7.039  0.0240 -0.0825  0.0732
 1196ERGO    C116633  13.696   7.488   7.368  0.2105 -0.0037  0.0736
 1196ERGO    C216634  13.858   7.568   7.681  0.0861  0.0095  0.3973
 1197ERGO   ROH16635  13.906  12.772   6.343  0.0476  0.1040 -0.1530
 1197ERGO    R116636  14.006  12.808   6.605  0.0856 -0.0432 -0.1456
 1197ERGO    R216637  14.116  13.047   6.691  0.0976 -0.0877 -0.0251
 1197ERGO    R316638  13.932  13.023   6.890  0.1243 -0.2024 -0.0145
 1197ERGO    R416639  14.128  13.214   6.993  0.0034 -0.0754 -0.0284
 1197ERGO    R516640  14.060  13.031   7.091  0.1270 -0.1156 -0.0221
 1197ERGO    C116641  13.963  13.288   7.356 -0.0265 -0.1759 -0.0203
 1197ERGO    C216642  13.911  13.441   7.571  0.0193 -0.1242  0.0525
 1198ERGO   ROH16643   9.535  11.389   5.808  0.0869  0.4335  0.2002
 1198ERGO    R116644   9.545  11.240   6.049  0.1831  0.3325  0.1354
 1198ERGO    R216645   9.579  11.358   6.295 -0.0217  0.2607  0.2033
 1198ERGO    R316646   9.352  11.222   6.357  0.1094 -0.0234  0.0728
 1198ERGO    R416647   9.498  11.242   6.611 -0.1401  0.3205  0.1951
 1198ERGO    R516648   9.422  11.059   6.518  0.1952  0.1611  0.2237
 1198ERGO    C116649   9.238  11.046   6.851 -0.0861  0.0887  0.0677
 1198ERGO    C216650   9.318  11.018   7.151  0.2109  0.3914  0.0662
 1199ERGO   ROH16651   5.178  17.534   6.482  0.0268 -0.1839 -0.0399
 1199ERGO    R116652   5.255  17.670   6.718  0.0039 -0.0507 -0.1079
 1199ERGO    R216653   5.083  17.836   6.857 -0.0677 -0.1154 -0.1191
 1199ERGO    R316654   5.148  17.676   7.066  0.0965 -0.0004 -0.0799
 1199ERGO    R416655   5.017  17.907   7.189 -0.2786 -0.1678 -0.1484
 1199ERGO    R516656   5.213  17.827   7.240 -0.1755  0.1173 -0.0754
 1199ERGO    C116657   5.040  17.798   7.578 -0.2472 -0.0906 -0.1287
 1199ERGO    C216658   4.965  17.911   7.971 -0.1895 -0.1033  0.1419
 1200ERGO   ROH16659  11.936   0.315   6.084 -0.1357 -0.0640 -0.0093
 1200ERGO    R116660  12.015   0.214   6.336 -0.0285 -0.0523 -0.0370
 1200ERGO    R216661  11.897   0.296   6.572  0.0724 -0.0390  0.0115
 1200ERGO    R316662  11.857   0.029   6.608  0.0844 -0.0367  0.0387
 1200ERGO    R416663  11.752   0.153   6.852  0.0878 -0.0220  0.0278
 1200ERGO    R516664  11.899  -0.007   6.841  0.0921 -0.0151  0.0388
 1200ERGO    C116665  11.630  -0.180   7.047  0.1080 -0.0099  0.0630
 1200ERGO    C216666  11.332  -0.490   7.072  0.0449  0.2466  0.0765
 1201ERGO   ROH16667  12.979  16.573   6.520  0.0588  0.0040 -0.0808
 1201ERGO    R116668  12.798  16.631   6.730 -0.0026 -0.0944 -0.1058
 1201ERGO    R216669  12.778  16.473   6.956  0.0790 -0.0850 -0.0901
 1201ERGO    R316670  12.821  16.709   7.084 -0.0910 -0.0410 -0.1120
 1201ERGO    R416671  12.731  16.526   7.294 -0.0963 -0.0432 -0.1201
 1201ERGO    R516672  12.647  16.721   7.248 -0.1685 -0.0931 -0.1920
 1201ERGO    C116673  12.744  16.778   7.612 -0.3579  0.0225 -0.1582
 1201ERGO    C216674  12.708  16.573   7.944 -0.0039  0.0405  0.2414
 1202ERGO   ROH16675  11.916  11.742   6.538 -0.0125  0.0150  0.1441
 1202ERGO    R116676  11.777  11.728   6.785 -0.0740 -0.0106  0.1072
 1202ERGO    R216677  11.889  11.617   7.012 -0.1040  0.0383  0.1392
 1202ERGO    R316678  11.823  11.857   7.122 -0.2063  0.0228  0.1148
 1202ERGO    R416679  11.906  11.690   7.349 -0.1904  0.0480  0.1421
 1202ERGO    R516680  11.718  11.800   7.330 -0.2296 -0.0121  0.0993
 1202ERGO    C116681  11.853  11.958   7.649 -0.3367  0.0390  0.1210
 1202ERGO    C216682  12.059  11.953   7.972  0.0163  0.4867  0.0797
 1203ERGO   ROH16683  13.051   9.742   6.390 -0.1850  0.3049  0.0262
 1203ERGO    R116684  13.120   9.601   6.625 -0.0312  0.3947  0.0366
 1203ERGO    R216685  13.189   9.729   6.860 -0.2716  0.4904  0.0600
 1203ERGO    R316686  12.991   9.573   6.964 -0.0736  0.1939  0.0047
 1203ERGO    R416687  13.140   9.671   7.198 -0.3595  0.5192  0.0522
 1203ERGO    R516688  13.094   9.463   7.151  0.0106  0.4245  0.0953
 1203ERGO    C116689  12.926   9.492   7.492 -0.2249  0.2575 -0.0041
 1203ERGO    C216690  12.843   9.350   7.758 -0.0398 -0.1290 -0.0222
 1204ERGO   ROH16691   4.276  13.837   6.426  0.2235 -0.0250 -0.0651
 1204ERGO    R116692   4.223  13.970   6.671  0.4203  0.0523 -0.0633
 1204ERGO    R216693   4.012  13.900   6.836  0.1896  0.4893 -0.1613
 1204ERGO    R316694   4.209  13.878   7.023  0.0760  0.0152 -0.0835
 1204ERGO    R416695   3.960  13.872   7.177 -0.0134  0.3248 -0.2034
 1204ERGO    R516696   4.129  14.005   7.209  0.2069  0.0188 -0.0267
 1204ERGO    C116697   4.113  13.836   7.550 -0.2382 -0.2161 -0.1549
 1204ERGO    C216698   4.193  13.900   7.916  0.2942  0.0048  0.1050
 1205ERGO   ROH16699  14.895   2.233   6.119  0.3493  0.0570  0.0288
 1205ERGO    R116700  14.842   2.281   6.393  0.2420 -0.2834  0.0714
 1205ERGO    R216701  14.969   2.143   6.595  0.5859 -0.1467 -0.0440
 1205ERGO    R316702  15.030   2.393   6.684 -0.0056 -0.0553  0.1470
 1205ERGO    R416703  15.087   2.216   6.912  0.6667 -0.1466 -0.0734
 1205ERGO    R516704  14.958   2.393   6.913  0.1830 -0.4778  0.2144
 1205ERGO    C116705  15.212   2.493   7.180  0.1584 -0.0607  0.0889
 1205ERGO    C216706  15.427   2.521   7.481 -0.1620 -0.1290  0.2473
 1206ERGO   ROH16707  15.014  10.289   6.680  0.1351 -0.1656  0.1761
 1206ERGO    R116708  15.069  10.177   6.934  0.0267 -0.2017  0.1837
 1206ERGO    R216709  15.036  10.317   7.170  0.0620 -0.1881  0.1796
 1206ERGO    R316710  14.881  10.104   7.237 -0.0691 -0.1044  0.1486
 1206ERGO    R416711  15.008  10.186   7.489 -0.0397 -0.2004  0.1661
 1206ERGO    R516712  15.010   9.986   7.402 -0.1500 -0.1951  0.1486
 1206ERGO    C116713  14.846   9.910   7.737 -0.2219 -0.1293  0.1292
 1206ERGO    C216714  14.756   9.838   7.984  0.0060  0.1135  0.0574
 1207ERGO   ROH16715  16.672  15.146   6.594  0.0405  0.0639 -0.0757
 1207ERGO    R116716  16.643  15.019   6.845  0.0611  0.0679 -0.0710
 1207ERGO    R216717  16.840  15.025   7.039  0.0785  0.0703 -0.0862
 1207ERGO    R316718  16.639  15.121   7.195  0.0912  0.0746 -0.0730
 1207ERGO    R416719  16.849  15.044   7.384  0.1001  0.0760 -0.0873
 1207ERGO    R516720  16.641  14.979   7.388  0.1017  0.0792 -0.0716
 1207ERGO    C116721  16.664  15.144   7.731  0.1245  0.0832 -0.0755
 1207ERGO    C216722  16.716  15.204   8.098 -0.2229 -0.0805 -0.1402
 1208ERGO   ROH16723  10.804  15.325   6.646 -0.0020 -0.1693 -0.1335
 1208ERGO    R116724  10.710  15.408   6.900  0.0956 -0.0590 -0.1335
 1208ERGO    R216725  10.608  15.230   7.085 -0.0040  0.0470 -0.0934
 1208ERGO    R316726  10.795  15.343   7.247  0.0990 -0.0617 -0.1334
 1208ERGO    R416727  10.619  15.193   7.429 -0.0885  0.2144 -0.0704
 1208ERGO    R516728  10.674  15.404   7.445  0.1336  0.1731 -0.1778
 1208ERGO    C116729  10.802  15.277   7.781 -0.0411  0.2098 -0.0946
 1208ERGO    C216730  11.020  15.180   8.052 -0.2065 -0.0902  0.1444
 1209ERGO   ROH16731  11.002  10.967   6.167 -0.0532 -0.1125  0.0907
 1209ERGO    R116732  10.896  10.767   6.338  0.0454 -0.1630  0.0924
 1209ERGO    R216733  11.000  10.717   6.590  0.0360 -0.0723  0.1117
 1209ERGO    R316734  10.742  10.756   6.668 -0.0024 -0.2307  0.0688
 1209ERGO    R416735  10.870  10.624   6.896  0.1046  0.0382  0.1752
 1209ERGO    R516736  10.688  10.560   6.794  0.1589 -0.1898  0.2089
 1209ERGO    C116737  10.553  10.606   7.148  0.1084 -0.0460  0.1719
 1209ERGO    C216738  10.654  10.780   7.392 -0.0318 -0.0917 -0.0067
 1210ERGO   ROH16739   1.329   6.407   6.442 -0.0257 -0.2853  0.1614
 1210ERGO    R116740   1.374   6.559   6.677  0.1306 -0.2818  0.1312
 1210ERGO    R216741   1.196   6.751   6.766  0.3458 -0.0441  0.0691
 1210ERGO    R316742   1.206   6.607   6.996  0.1490 -0.0083  0.1019
 1210ERGO    R416743   1.213   6.886   7.083  0.1730  0.0013  0.0595
 1210ERGO    R516744   1.355   6.731   7.137  0.0904 -0.0306  0.1816
 1210ERGO    C116745   1.233   6.830   7.484 -0.1124  0.0615  0.0847
 1210ERGO    C216746   1.308   6.756   7.783 -0.0397 -0.0515  0.0494
 1211ERGO   ROH16747   2.824   5.502   6.134  0.4104 -0.1743  0.0781
 1211ERGO    R116748   2.693   5.443   6.378  0.3532  0.1179  0.1228
 1211ERGO    R216749   2.686   5.189   6.486 -0.2862  0.0847  0.0612
 1211ERGO    R316750   2.787   5.314   6.705  0.1660 -0.2275  0.0426
 1211ERGO    R416751   2.663   5.069   6.809 -0.6439  0.1833  0.0756
 1211ERGO    R516752   2.625   5.273   6.877  0.0428  0.3277  0.0673
 1211ERGO    C116753   2.744   5.116   7.203 -0.4277 -0.0524  0.0665
 1211ERGO    C216754   2.900   4.762   7.479  0.1213 -0.1106 -0.2203
 1212ERGO   ROH16755   4.917   6.562   6.358  0.0465 -0.2304 -0.1121
 1212ERGO    R116756   5.002   6.484   6.617  0.1309  0.0905 -0.0389
 1212ERGO    R216757   4.944   6.236   6.724 -0.1278  0.3340  0.4214
 1212ERGO    R316758   5.214   6.225   6.759 -0.1102  0.0379  0.2337
 1212ERGO    R416759   5.106   6.022   6.941 -0.1867 -0.0010  0.1437
 1212ERGO    R516760   5.241   6.185   6.994  0.0113 -0.1745  0.1851
 1212ERGO    C116761   5.453   5.886   7.101 -0.2044 -0.4742 -0.1942
 1212ERGO    C216762   5.637   5.794   7.310 -0.1514  0.2118 -0.0242
 1213ERGO   ROH16763  15.087   6.102   6.209  0.1234  0.0549  0.1640
 1213ERGO    R116764  14.989   6.029   6.464  0.1581  0.1752  0.2118
 1213ERGO    R216765  14.999   5.770   6.559 -0.2272  0.1367  0.1498
 1213ERGO    R316766  15.126   5.885   6.770  0.1094 -0.1219  0.0992
 1213ERGO    R416767  14.991   5.650   6.883 -0.3996  0.1732  0.1605
 1213ERGO    R516768  14.974   5.856   6.953  0.0875  0.2349  0.1499
 1213ERGO    C116769  15.106   5.690   7.270 -0.1842 -0.0483  0.1194
 1213ERGO    C216770  15.171   5.344   7.475 -0.2503  0.2293 -0.1351
 1214ERGO   ROH16771   9.681  16.725   6.424 -0.1606 -0.0535 -0.0583
 1214ERGO    R116772   9.716  16.850   6.676 -0.1941  0.0381 -0.0985
 1214ERGO    R216773   9.521  16.849   6.871 -0.1377 -0.0858 -0.0403
 1214ERGO    R316774   9.720  16.746   7.024 -0.0001  0.1226 -0.0745
 1214ERGO    R416775   9.558  16.906   7.210 -0.1184 -0.0237 -0.0527
 1214ERGO    R516776   9.773  16.922   7.178 -0.1398  0.1876 -0.1002
 1214ERGO    C116777   9.766  16.842   7.551  0.0220  0.2082 -0.0919
 1214ERGO    C216778   9.768  16.701   7.776  0.1377 -0.0427  0.0699
 1215ERGO   ROH16779  16.235  16.785   6.630  0.1589 -0.2054  0.0233
 1215ERGO    R116780  16.107  16.815   6.881  0.0028 -0.1801 -0.0583
 1215ERGO    R216781  16.201  16.696   7.111 -0.0426 -0.0193  0.0452
 1215ERGO    R316782  16.193  16.950   7.208 -0.2618  0.0194 -0.0666
 1215ERGO    R416783  16.174  16.779   7.446  0.0533  0.1020  0.0237
 1215ERGO    R516784  16.037  16.939   7.389 -0.1526 -0.0679  0.0241
 1215ERGO    C116785  16.151  17.065   7.731 -0.0967  0.2090 -0.0938
 1215ERGO    C216786  16.153  17.026   7.966  0.1599 -0.3080 -0.0801
 1216ERGO   ROH16787  11.590  15.187   6.503 -0.1509 -0.0548 -0.0931
 1216ERGO    R116788  11.429  15.009   6.652 -0.0814 -0.0487 -0.0133
 1216ERGO    R216789  11.154  15.037   6.671 -0.0884 -0.1672 -0.0576
 1216ERGO    R316790  11.155  14.780   6.583  0.0312 -0.2196  0.0885
 1216ERGO    R416791  10.908  14.804   6.739 -0.2488 -0.0876 -0.3423
 1216ERGO    R516792  11.064  14.654   6.765 -0.3053 -0.0998  0.0158
 1216ERGO    C116793  10.766  14.427   6.695 -0.2298 -0.0903 -0.3708
 1216ERGO    C216794  10.464  14.312   6.608 -0.0016 -0.3483  0.1958
 1217ERGO   ROH16795   0.727   1.242   6.460 -0.0156  0.3470 -0.0235
 1217ERGO    R116796   0.703   1.368   6.713 -0.1373  0.2304  0.0267
 1217ERGO    R216797   0.505   1.302   6.894 -0.1260  0.0207 -0.0194
 1217ERGO    R316798   0.716   1.266   7.062 -0.1179  0.0908 -0.0172
 1217ERGO    R416799   0.487   1.311   7.239 -0.0972  0.1056 -0.0213
 1217ERGO    R516800   0.676   1.419   7.241 -0.1195  0.1238 -0.0560
 1217ERGO    C116801   0.675   1.282   7.597 -0.0729  0.2209 -0.0204
 1217ERGO    C216802   0.626   1.135   7.857  0.0279  0.1971 -0.4308
 1218ERGO   ROH16803  10.673  12.870   6.390  0.0227 -0.0065  0.0175
 1218ERGO    R116804  10.769  12.851   6.656  0.0484  0.0095  0.0101
 1218ERGO    R216805  10.685  13.021   6.857  0.0988  0.0496  0.0005
 1218ERGO    R316806  10.625  12.789   6.985  0.0721  0.0748  0.0323
 1218ERGO    R416807  10.701  12.974   7.199  0.2614  0.0429 -0.0077
 1218ERGO    R516808  10.785  12.776   7.163  0.1611  0.0097 -0.0525
 1218ERGO    C116809  10.654  12.728   7.518  0.3309  0.0627  0.0172
 1218ERGO    C216810  10.728  12.640   7.814 -0.2326 -0.0451  0.0414
 1219ERGO   ROH16811   0.631  11.095   6.460 -0.1962 -0.0863 -0.0381
 1219ERGO    R116812   0.723  11.000   6.711 -0.0667  0.2016  0.0288
 1219ERGO    R216813   0.712  11.153   6.941 -0.2707  0.3470 -0.0676
 1219ERGO    R316814   0.578  10.937   7.039  0.0126  0.2290  0.0675
 1219ERGO    R416815   0.639  11.101   7.275 -0.1172  0.4000 -0.0260
 1219ERGO    R516816   0.687  10.890   7.247  0.1251  0.4466  0.0564
 1219ERGO    C116817   0.471  10.869   7.561  0.2381  0.3201  0.1250
 1219ERGO    C216818   0.215  10.958   7.928  0.0703  0.0144  0.1751
 1220ERGO   ROH16819   2.746   3.588   6.514 -0.0320 -0.1136 -0.1124
 1220ERGO    R116820   2.836   3.700   6.758 -0.0886 -0.1040 -0.0973
 1220ERGO    R216821   2.676   3.715   6.983 -0.1269 -0.1349 -0.1305
 1220ERGO    R316822   2.885   3.585   7.099 -0.1221 -0.1020 -0.0887
 1220ERGO    R416823   2.711   3.660   7.323 -0.3513 -0.4007 -0.1454
 1220ERGO    R516824   2.923   3.704   7.303 -0.3534 -0.2414  0.0479
 1220ERGO    C116825   2.927   3.506   7.629 -0.4776 -0.5245 -0.1148
 1220ERGO    C216826   2.981   3.300   7.847  0.1976  0.1521 -0.0158
 1221ERGO   ROH16827   3.725   1.663   6.427  0.1057  0.1198  0.1449
 1221ERGO    R116828   3.854   1.793   6.642  0.3167  0.0198  0.0822
 1221ERGO    R216829   3.731   1.837   6.886  0.3464  0.4203  0.0363
 1221ERGO    R316830   3.949   1.708   6.983  0.0884  0.0574  0.1560
 1221ERGO    R416831   3.844   1.858   7.212  0.3323  0.4081  0.0412
 1221ERGO    R516832   4.048   1.865   7.136  0.3642 -0.0320  0.0721
 1221ERGO    C116833   4.115   1.750   7.493  0.0819  0.0604  0.1564
 1221ERGO    C216834   4.326   1.676   7.802  0.0538 -0.1210  0.1673
 1222ERGO   ROH16835  17.745   0.685   6.346  0.1229  0.0665 -0.0491
 1222ERGO    R116836  17.920   0.650   6.566  0.0824 -0.0490 -0.0344
 1222ERGO    R216837  17.831   0.652   6.828  0.0457 -0.1099 -0.0470
 1222ERGO    R316838  17.958   0.412   6.838 -0.0174 -0.1459 -0.1039
 1222ERGO    R416839  17.879   0.466   7.115  0.1845 -0.0842 -0.0530
 1222ERGO    R516840  18.079   0.417   7.044  0.1249 -0.1526 -0.1846
 1222ERGO    C116841  18.026   0.132   7.292  0.2060 -0.1030 -0.1099
 1222ERGO    C216842  18.019   0.063   7.654  0.0235 -0.2350 -0.1757
 1223ERGO   ROH16843   5.129   2.704   6.612  0.1822 -0.2314  0.1013
 1223ERGO    R116844   5.144   2.710   6.895 -0.0138 -0.2761  0.1144
 1223ERGO    R216845   5.146   2.946   7.038  0.2508 -0.2835  0.1261
 1223ERGO    R316846   4.937   2.830   7.169 -0.0319  0.0318 -0.0293
 1223ERGO    R416847   5.056   3.012   7.366  0.2101 -0.2676  0.1122
 1223ERGO    R516848   5.017   2.799   7.393 -0.1929 -0.2170 -0.0010
 1223ERGO    C116849   4.808   2.942   7.679 -0.0790  0.0376 -0.0416
 1223ERGO    C216850   4.805   2.901   8.019  0.0220 -0.0262  0.0062
 1224ERGO   ROH16851  12.718   8.223   7.756  0.2487 -0.0457 -0.0545
 1224ERGO    R116852  12.702   8.437   7.941  0.2676  0.0494 -0.1609
 1224ERGO    R216853  12.682   8.701   7.863 -0.0238 -0.0067 -0.2977
 1224ERGO    R316854  12.463   8.698   8.023  0.1381 -0.0967 -0.0731
 1224ERGO    R416855  12.520   8.983   7.980  0.0123 -0.0793 -0.0681
 1224ERGO    R516856  12.496   8.883   8.172  0.2350 -0.1235 -0.0669
 1224ERGO    C116857  12.219   9.144   8.199  0.1853 -0.2061  0.2764
 1224ERGO    C216858  12.028   9.385   8.130 -0.2514 -0.1543 -0.1331
 1225ERGO   ROH16859  16.158   1.147   6.117 -0.1486 -0.1448 -0.0339
 1225ERGO    R116860  16.119   1.275   6.366 -0.0608 -0.1375 -0.0238
 1225ERGO    R216861  15.981   1.157   6.574 -0.0212 -0.1152  0.0138
 1225ERGO    R316862  16.208   1.211   6.713  0.0246 -0.1483 -0.0471
 1225ERGO    R416863  16.010   1.142   6.918  0.0341 -0.0058  0.0144
 1225ERGO    R516864  16.131   1.323   6.911  0.0993 -0.0506 -0.0714
 1225ERGO    C116865  16.240   1.185   7.249  0.1094  0.0268 -0.0424
 1225ERGO    C216866  16.346   1.200   7.478  0.1409 -0.1711  0.2545
 1226ERGO   ROH16867   2.397   1.751   6.465 -0.1667 -0.1315  0.1970
 1226ERGO    R116868   2.221   1.907   6.621 -0.0989  0.2093 -0.0570
 1226ERGO    R216869   2.169   1.852   6.887 -0.5594  0.3212 -0.1206
 1226ERGO    R316870   2.244   2.111   6.922 -0.1310  0.1971 -0.0443
 1226ERGO    R416871   2.177   2.017   7.191 -0.2507  0.2055 -0.0609
 1226ERGO    R516872   2.097   2.193   7.092  0.0172  0.3783  0.0059
 1226ERGO    C116873   2.252   2.356   7.400  0.3311  0.0217  0.0454
 1226ERGO    C216874   2.387   2.445   7.729  0.1867 -0.0357  0.1850
 1227ERGO   ROH16875  17.356   1.521   6.374  0.3402 -0.0992 -0.0587
 1227ERGO    R116876  17.274   1.638   6.618  0.0665 -0.1386 -0.1286
 1227ERGO    R216877  17.128   1.499   6.808  0.2203 -0.3062 -0.1311
 1227ERGO    R316878  17.330   1.576   6.973  0.0441  0.0796 -0.0856
 1227ERGO    R416879  17.105   1.524   7.152  0.1094 -0.4086 -0.1307
 1227ERGO    R516880  17.223   1.707   7.142 -0.2539 -0.1602 -0.0812
 1227ERGO    C116881  17.281   1.611   7.507 -0.1202 -0.1060 -0.0878
 1227ERGO    C216882  17.236   1.476   7.891 -0.0289  0.2178 -0.0286
 1228ERGO   ROH16883  17.255  16.367   6.601 -0.2011 -0.0412 -0.1207
 1228ERGO    R116884  17.269  16.275   6.869 -0.1327 -0.0055 -0.1120
 1228ERGO    R216885  17.339  16.441   7.079 -0.0485  0.0143 -0.1568
 1228ERGO    R316886  17.104  16.354   7.183 -0.0283  0.0590 -0.0725
 1228ERGO    R416887  17.262  16.436   7.416  0.0191  0.1628 -0.1384
 1228ERGO    R516888  17.166  16.243   7.386  0.0133  0.1482 -0.0350
 1228ERGO    C116889  16.995  16.353   7.710  0.0774  0.2913 -0.0485
 1228ERGO    C216890  16.914  16.587   7.956 -0.2106  0.3320 -0.0070
 1229ERGO   ROH16891  17.195  12.216   6.247 -0.0325  0.1091 -0.0958
 1229ERGO    R116892  17.397  12.103   6.410 -0.0093  0.2248 -0.0468
 1229ERGO    R216893  17.410  12.146   6.682 -0.2446  0.0415 -0.0131
 1229ERGO    R316894  17.411  11.874   6.693  0.0711  0.0288 -0.2041
 1229ERGO    R416895  17.490  11.959   6.962 -0.4993 -0.0404  0.0109
 1229ERGO    R516896  17.599  11.821   6.833 -0.0936  0.1746  0.0909
 1229ERGO    C116897  17.539  11.596   7.135 -0.3514 -0.1000 -0.1544
 1229ERGO    C216898  17.544  11.456   7.571  0.2211  0.1628 -0.0870
 1230ERGO   ROH16899   1.290   9.223   6.440  0.1200 -0.1268 -0.0489
 1230ERGO    R116900   1.413   9.232   6.695  0.0109 -0.1141  0.0031
 1230ERGO    R216901   1.306   9.374   6.907 -0.1177 -0.1656 -0.0309
 1230ERGO    R316902   1.324   9.135   7.034 -0.1005 -0.1698 -0.0403
 1230ERGO    R416903   1.344   9.334   7.248 -0.0393 -0.1656 -0.0394
 1230ERGO    R516904   1.484   9.172   7.208 -0.0544 -0.1758 -0.0767
 1230ERGO    C116905   1.384   9.086   7.566  0.0224 -0.1694 -0.0531
 1230ERGO    C216906   1.423   9.259   7.872  0.0263  0.2120 -0.4317
 1231ERGO   ROH16907  10.215   9.329   6.062 -0.0349 -0.0103  0.1643
 1231ERGO    R116908  10.252   9.193   6.308  0.0403  0.0194  0.1710
 1231ERGO    R216909  10.394   9.302   6.518 -0.0074  0.1039  0.1665
 1231ERGO    R316910  10.166   9.251   6.657  0.0183 -0.0042  0.1680
 1231ERGO    R416911  10.362   9.327   6.861 -0.0724  0.2625  0.1484
 1231ERGO    R516912  10.241   9.146   6.858  0.0757  0.1668  0.2331
 1231ERGO    C116913  10.128   9.295   7.191 -0.0861  0.2535  0.1393
 1231ERGO    C216914  10.207   9.356   7.488  0.2432  0.1398 -0.0026
 1232ERGO   ROH16915  16.160  11.894   6.491 -0.1058  0.3554  0.0304
 1232ERGO    R116916  16.112  12.062   6.714 -0.1288  0.2323  0.1219
 1232ERGO    R216917  15.908  12.015   6.894 -0.1643  0.1422  0.0695
 1232ERGO    R316918  16.110  12.028   7.076 -0.1874  0.0200  0.1011
 1232ERGO    R416919  15.866  12.069   7.233 -0.1642  0.5068  0.0138
 1232ERGO    R516920  16.041  12.198   7.229  0.0192  0.2559 -0.0661
 1232ERGO    C116921  16.030  12.112   7.601 -0.1856  0.6046  0.0111
 1232ERGO    C216922  15.881  11.873   7.769  0.0571  0.2258 -0.1051
 1233ERGO   ROH16923  14.859   1.299   6.135 -0.1404 -0.0045  0.0809
 1233ERGO    R116924  14.861   1.318   6.418 -0.1211 -0.2576  0.0993
 1233ERGO    R216925  14.884   1.097   6.582  0.3551 -0.3693 -0.1089
 1233ERGO    R316926  15.092   1.236   6.687  0.1056 -0.0446 -0.0239
 1233ERGO    R416927  14.951   1.129   6.920  0.2804 -0.4566 -0.0844
 1233ERGO    R516928  15.003   1.337   6.884 -0.0968 -0.3242  0.0409
 1233ERGO    C116929  15.186   1.279   7.214  0.0027 -0.2026  0.0097
 1233ERGO    C216930  15.170   1.168   7.420  0.0917 -0.1418  0.1333
 1234ERGO   ROH16931   7.477   0.973   6.723  0.1883 -0.0335  0.1869
 1234ERGO    R116932   7.271   1.055   6.900  0.1197  0.0029  0.0929
 1234ERGO    R216933   7.173   0.892   7.100 -0.0314  0.0033  0.0283
 1234ERGO    R316934   7.235   1.104   7.259 -0.0461 -0.0326  0.0801
 1234ERGO    R416935   7.064   0.934   7.426 -0.0154 -0.0814  0.0441
 1234ERGO    R516936   7.036   1.146   7.383 -0.0371 -0.0799  0.1013
 1234ERGO    C116937   7.060   1.158   7.764 -0.0200 -0.1643  0.1019
 1234ERGO    C216938   7.004   1.123   8.110 -0.1379 -0.0029  0.0319
 1235ERGO   ROH16939  12.575  13.418   6.408 -0.0918 -0.0005  0.0510
 1235ERGO    R116940  12.527  13.421   6.687 -0.0444 -0.0309  0.0596
 1235ERGO    R216941  12.729  13.450   6.873 -0.0217  0.0252  0.0258
 1235ERGO    R316942  12.574  13.656   6.961 -0.0733 -0.0298  0.0638
 1235ERGO    R416943  12.772  13.614   7.174  0.1229  0.1731 -0.0734
 1235ERGO    R516944  12.555  13.618   7.197  0.1364  0.0536  0.0966
 1235ERGO    C116945  12.652  13.902   7.433  0.1585  0.2076 -0.0955
 1235ERGO    C216946  12.555  14.048   7.730  0.3396  0.2589 -0.1155
 1236ERGO   ROH16947  16.808   2.367   6.309 -0.0433 -0.2281  0.1073
 1236ERGO    R116948  16.846   2.537   6.532  0.0380 -0.1806  0.0576
 1236ERGO    R216949  16.688   2.522   6.758  0.0857 -0.0960  0.0953
 1236ERGO    R316950  16.928   2.495   6.884  0.1086 -0.1093  0.0502
 1236ERGO    R416951  16.741   2.578   7.095  0.1542 -0.0878  0.0836
 1236ERGO    R516952  16.931   2.673   7.045  0.1521 -0.1031  0.0435
 1236ERGO    C116953  16.997   2.585   7.410  0.2157 -0.0954  0.0344
 1236ERGO    C216954  17.139   2.588   7.637  0.2358  0.1438  0.2744
 1237ERGO   ROH16955   6.011   5.803   6.646 -0.2529  0.2681  0.0196
 1237ERGO    R116956   5.977   5.767   6.925 -0.1020  0.1945  0.0280
 1237ERGO    R216957   6.137   5.598   7.073 -0.0042  0.1819 -0.1021
 1237ERGO    R316958   6.176   5.821   7.224  0.0456  0.1458 -0.0583
 1237ERGO    R416959   6.227   5.597   7.407  0.1526  0.0893 -0.1421
 1237ERGO    R516960   6.089   5.763   7.440  0.1479  0.0722 -0.0309
 1237ERGO    C116961   6.316   5.806   7.743  0.2907  0.0015 -0.1244
 1237ERGO    C216962   6.306   5.815   8.061  0.1545  0.1178 -0.2990
 1238ERGO   ROH16963  16.566   8.533   6.340  0.1173  0.3470 -0.0813
 1238ERGO    R116964  16.631   8.440   6.599  0.1091  0.2151 -0.1258
 1238ERGO    R216965  16.881   8.478   6.712  0.0902  0.1989 -0.0810
 1238ERGO    R316966  16.736   8.589   6.914  0.0504  0.0602 -0.0316
 1238ERGO    R416967  16.978   8.485   7.044  0.1341  0.1743 -0.0930
 1238ERGO    R516968  16.772   8.442   7.100  0.1671  0.0336 -0.0733
 1238ERGO    C116969  16.899   8.593   7.427  0.1223  0.0297 -0.0535
 1238ERGO    C216970  17.024   8.834   7.642  0.0280  0.1042  0.2894
 1239ERGO   ROH16971   9.216  16.006   6.886  0.0477  0.0486 -0.0111
 1239ERGO    R116972   9.262  16.036   7.163  0.0539  0.0242 -0.0082
 1239ERGO    R216973   9.127  15.887   7.354 -0.0601  0.1195 -0.0067
 1239ERGO    R316974   9.378  15.824   7.436 -0.1063 -0.0510  0.0010
 1239ERGO    R416975   9.201  15.680   7.620 -0.2091  0.2100  0.1055
 1239ERGO    R516976   9.362  15.816   7.674 -0.0859  0.1015  0.0059
 1239ERGO    C116977   9.481  15.499   7.852 -0.3393  0.1027  0.1781
 1239ERGO    C216978   9.700  15.317   7.903 -0.2382  0.1874  0.1422
 1240ERGO   ROH16979  16.432   7.145   6.650 -0.1998  0.0637 -0.1860
 1240ERGO    R116980  16.330   7.068   6.903 -0.0431  0.0082 -0.1385
 1240ERGO    R216981  16.493   7.021   7.121  0.0861  0.0538 -0.2240
 1240ERGO    R316982  16.330   7.203   7.240  0.0782 -0.0147 -0.1289
 1240ERGO    R416983  16.520   7.124   7.449 -0.0963 -0.3283 -0.0824
 1240ERGO    R516984  16.303   7.121   7.464 -0.1090 -0.2581 -0.2372
 1240ERGO    C116985  16.384   7.356   7.753 -0.2102 -0.6150  0.0893
 1240ERGO    C216986  16.412   7.519   8.036 -0.3311  0.0552  0.2769
 1241ERGO   ROH16987   0.653  16.439   6.590 -0.0592  0.1045 -0.0224
 1241ERGO    R116988   0.620  16.444   6.871  0.0958  0.0677 -0.0040
 1241ERGO    R216989   0.487  16.245   7.008 -0.0182  0.1631  0.0124
 1241ERGO    R316990   0.717  16.234   7.152  0.0488 -0.0932 -0.1040
 1241ERGO    R416991   0.529  16.062   7.298 -0.0702  0.0873 -0.0258
 1241ERGO    R516992   0.643  16.229   7.381  0.1519 -0.0350 -0.0644
 1241ERGO    C116993   0.769  15.946   7.603 -0.0376 -0.1975 -0.1572
 1241ERGO    C216994   0.732  15.797   8.002  0.2438 -0.2381  0.0118
 1242ERGO   ROH16995   6.408   4.643   6.217 -0.0209  0.2474 -0.0258
 1242ERGO    R116996   6.235   4.694   6.436 -0.0150  0.0807  0.0196
 1242ERGO    R216997   6.012   4.539   6.489  0.0652 -0.0479 -0.0068
 1242ERGO    R316998   6.127   4.516   6.734  0.1132 -0.0877 -0.0330
 1242ERGO    R416999   5.857   4.409   6.768  0.1497 -0.1642 -0.0133
 1242ERGO    R517000   5.950   4.566   6.887  0.1300 -0.1753  0.0129
 1242ERGO    C117001   5.874   4.311   7.162  0.2439 -0.2691 -0.0415
 1242ERGO    C217002   5.919   4.248   7.568  0.0290 -0.2061  0.1012
 1243ERGO   ROH17003  17.682  14.686   6.435  0.1127 -0.1626 -0.0034
 1243ERGO    R117004  17.589  14.612   6.692  0.1322 -0.0850  0.0259
 1243ERGO    R217005  17.718  14.687   6.924  0.0858  0.0814 -0.0029
 1243ERGO    R317006  17.473  14.784   6.990  0.0382  0.0023 -0.0598
 1243ERGO    R417007  17.604  14.734   7.247 -0.0523 -0.0781 -0.0263
 1243ERGO    R517008  17.409  14.659   7.185 -0.0133 -0.0940 -0.1361
 1243ERGO    C117009  17.308  14.853   7.498 -0.1776 -0.2452 -0.0933
 1243ERGO    C217010  17.051  14.830   7.779 -0.0629  0.1050  0.2273
 1244ERGO   ROH17011   6.819  15.506   6.650  0.0540  0.0034 -0.0547
 1244ERGO    R117012   6.679  15.424   6.882  0.0132 -0.0289 -0.0912
 1244ERGO    R217013   6.802  15.392   7.127 -0.0281 -0.0766 -0.0791
 1244ERGO    R317014   6.608  15.563   7.211 -0.0334 -0.0826 -0.0778
 1244ERGO    R417015   6.735  15.467   7.458 -0.1258 -0.1994 -0.0704
 1244ERGO    R517016   6.522  15.461   7.410 -0.1134 -0.1520 -0.1450
 1244ERGO    C117017   6.513  15.670   7.729 -0.1877 -0.2765 -0.0642
 1244ERGO    C217018   6.491  15.740   8.055  0.1820  0.0434 -0.0181
 1245ERGO   ROH17019  13.446  15.646   6.560  0.0177 -0.0025  0.0558
 1245ERGO    R117020  13.451  15.507   6.807  0.0604 -0.1283 -0.0154
 1245ERGO    R217021  13.674  15.368   6.894  0.1221 -0.0590 -0.0624
 1245ERGO    R317022  13.644  15.523   7.115  0.0157 -0.1889  0.0162
 1245ERGO    R417023  13.768  15.277   7.214  0.2664 -0.1230 -0.1224
 1245ERGO    R517024  13.586  15.369   7.289  0.1910 -0.3280 -0.0445
 1245ERGO    C117025  13.795  15.370   7.607  0.2505 -0.2824 -0.0836
 1245ERGO    C217026  14.043  15.533   7.834  0.1582 -0.1494 -0.0501
 1246ERGO   ROH17027   8.604  15.991   6.540 -0.1103 -0.2009 -0.1772
 1246ERGO    R117028   8.587  16.029   6.820 -0.2691 -0.0955 -0.2005
 1246ERGO    R217029   8.809  16.073   6.979 -0.3408 -0.2125 -0.0663
 1246ERGO    R317030   8.671  16.293   7.056 -0.2270 -0.0801 -0.2326
 1246ERGO    R417031   8.887  16.269   7.252 -0.4069 -0.2106 -0.0485
 1246ERGO    R517032   8.674  16.285   7.295 -0.4314 -0.0272 -0.2267
 1246ERGO    C117033   8.802  16.591   7.484 -0.3386 -0.0852 -0.1941
 1246ERGO    C217034   8.936  16.669   7.755  0.4287 -0.4489  0.1159
 1247ERGO   ROH17035  14.294   6.902   6.399  0.0170 -0.2847  0.0237
 1247ERGO    R117036  14.455   6.837   6.622  0.0448 -0.1214  0.0529
 1247ERGO    R217037  14.556   7.029   6.794 -0.1103 -0.0103  0.0250
 1247ERGO    R317038  14.434   6.876   6.983 -0.0189 -0.0617  0.0422
 1247ERGO    R417039  14.633   7.032   7.131  0.1119 -0.1704 -0.0222
 1247ERGO    R517040  14.610   6.816   7.134  0.0659 -0.1649 -0.0982
 1247ERGO    C117041  14.563   6.891   7.505  0.3273 -0.3118 -0.0335
 1247ERGO    C217042  14.660   7.132   7.752  0.1079  0.0630 -0.0561
 1248ERGO   ROH17043   9.449  13.926   6.494 -0.2077  0.0580 -0.1279
 1248ERGO    R117044   9.463  13.941   6.776 -0.1452  0.2114 -0.1377
 1248ERGO    R217045   9.281  14.084   6.927 -0.2029  0.1695 -0.1648
 1248ERGO    R317046   9.250  13.847   7.057 -0.0135  0.2134 -0.0367
 1248ERGO    R417047   9.266  14.048   7.270  0.0958  0.3064 -0.1341
 1248ERGO    R517048   9.388  13.868   7.252  0.1419  0.3422 -0.1590
 1248ERGO    C117049   9.228  13.805   7.592  0.4476  0.4272  0.0040
 1248ERGO    C217050   9.022  13.905   7.896 -0.1811 -0.1837  0.1249
 1249ERGO   ROH17051  10.076  17.111   6.555 -0.1162 -0.2720  0.0103
 1249ERGO    R117052  10.125  17.273   6.781  0.0898 -0.1727 -0.1006
 1249ERGO    R217053   9.938  17.310   6.981  0.1473  0.1684 -0.0943
 1249ERGO    R317054  10.140  17.226   7.142  0.0765  0.0442 -0.0725
 1249ERGO    R417055   9.948  17.352   7.324  0.1509  0.1657 -0.0954
 1249ERGO    R517056  10.160  17.398   7.307  0.1751  0.0278 -0.0752
 1249ERGO    C117057  10.143  17.297   7.675  0.0865  0.0474 -0.0757
 1249ERGO    C217058  10.103  17.044   7.994  0.2529 -0.0227 -0.1460
 1250ERGO   ROH17059  11.060  11.982   6.464  0.0902  0.0549 -0.0321
 1250ERGO    R117060  10.962  11.950   6.728  0.1000  0.1167 -0.0212
 1250ERGO    R217061  10.854  11.712   6.819  0.0636  0.1521  0.0244
 1250ERGO    R317062  11.039  11.741   7.016  0.0792  0.1515  0.0103
 1250ERGO    R417063  10.826  11.583   7.139  0.0323  0.2494  0.0617
 1250ERGO    R517064  10.911  11.768   7.216  0.0914  0.2470  0.0074
 1250ERGO    C117065  10.984  11.535   7.509  0.0286  0.3054  0.0702
 1250ERGO    C217066  10.994  11.455   7.921 -0.2384  0.2357 -0.0984
 1251ERGO   ROH17067   5.346   3.191   6.352 -0.0836 -0.2318 -0.0986
 1251ERGO    R117068   5.331   3.132   6.628 -0.0264 -0.2406 -0.0967
 1251ERGO    R217069   5.554   3.069   6.779  0.0257 -0.1142 -0.1136
 1251ERGO    R317070   5.465   3.273   6.936 -0.0788 -0.1624 -0.1105
 1251ERGO    R417071   5.690   3.158   7.085 -0.0173 -0.0374 -0.1169
 1251ERGO    R517072   5.488   3.191   7.160 -0.0297 -0.1463 -0.1124
 1251ERGO    C117073   5.686   3.400   7.409 -0.1404 -0.0378 -0.1159
 1251ERGO    C217074   5.834   3.437   7.699  0.2876 -0.3235 -0.3464
 1252ERGO   ROH17075  14.933  11.659   6.227  0.2225  0.2732 -0.0653
 1252ERGO    R117076  14.874  11.654   6.504  0.0703  0.2293 -0.0974
 1252ERGO    R217077  15.071  11.639   6.698 -0.0433 -0.0099  0.0039
 1252ERGO    R317078  14.948  11.861   6.794  0.1001  0.0672  0.0128
 1252ERGO    R417079  15.094  11.754   7.023  0.0338 -0.0374  0.0083
 1252ERGO    R517080  14.882  11.802   7.016  0.0633  0.1000  0.0113
 1252ERGO    C117081  14.992  12.030   7.302  0.2132  0.0191  0.0191
 1252ERGO    C217082  15.057  11.978   7.639  0.2907  0.3719  0.1122
 1253ERGO   ROH17083   7.353   5.425   6.438 -0.0963 -0.1153  0.1076
 1253ERGO    R117084   7.426   5.445   6.711  0.0008 -0.1002  0.0816
 1253ERGO    R217085   7.676   5.528   6.793  0.0260 -0.0787 -0.0093
 1253ERGO    R317086   7.533   5.709   6.938  0.0638 -0.0847  0.0325
 1253ERGO    R417087   7.793   5.695   7.073  0.1605  0.0522 -0.1427
 1253ERGO    R517088   7.598   5.668   7.165  0.2356  0.0119  0.0009
 1253ERGO    C117089   7.727   5.962   7.370  0.2741  0.1226 -0.1811
 1253ERGO    C217090   7.706   6.230   7.628  0.1098  0.0153 -0.0222
 1254ERGO   ROH17091  13.899  10.614   6.507  0.0115 -0.0031 -0.1233
 1254ERGO    R117092  14.093  10.657   6.709  0.0494 -0.0598 -0.1484
 1254ERGO    R217093  14.262  10.875   6.708 -0.0090 -0.0155 -0.0760
 1254ERGO    R317094  14.163  10.914   6.958  0.0437 -0.1734 -0.0287
 1254ERGO    R417095  14.401  11.084   6.946 -0.2129  0.1864 -0.1297
 1254ERGO    R517096  14.357  10.933   7.097  0.0801  0.1115 -0.1140
 1254ERGO    C117097  14.388  11.242   7.319 -0.2822  0.1559 -0.1166
 1254ERGO    C217098  14.368  11.398   7.684  0.0787 -0.0247  0.1421
 1255ERGO   ROH17099  14.609  16.890   6.440 -0.0699  0.1516  0.0856
 1255ERGO    R117100  14.567  16.838   6.716 -0.1193  0.1549  0.0796
 1255ERGO    R217101  14.776  16.812   6.896 -0.1441  0.0151  0.0953
 1255ERGO    R317102  14.641  17.006   7.030 -0.0378  0.0873  0.0955
 1255ERGO    R417103  14.848  16.919   7.216 -0.0683  0.0060  0.0807
 1255ERGO    R517104  14.635  16.931   7.256 -0.0547  0.1103  0.0990
 1255ERGO    C117105  14.763  17.165   7.528  0.0757  0.0685  0.0723
 1255ERGO    C217106  14.812  17.465   7.693 -0.0452  0.2850  0.0073
 1256ERGO   ROH17107  13.766  17.670   6.341  0.2087  0.1001 -0.0096
 1256ERGO    R117108  13.740  17.609   6.616  0.1631  0.1028 -0.0140
 1256ERGO    R217109  13.958  17.562   6.780  0.1423  0.2530  0.0545
 1256ERGO    R317110  13.845  17.757   6.932 -0.0286  0.1919  0.0096
 1256ERGO    R417111  14.054  17.643   7.102  0.0338  0.3728  0.0588
 1256ERGO    R517112  13.844  17.667   7.154  0.0052  0.2223  0.0232
 1256ERGO    C117113  14.005  17.873   7.432 -0.1899  0.3851  0.0191
 1256ERGO    C217114  14.019  17.951   7.786  0.0027 -0.0043  0.1891
 1257ERGO   ROH17115   7.674  16.305   6.721  0.0754  0.0663 -0.0668
 1257ERGO    R117116   7.828  16.347   6.955  0.0457  0.0484 -0.0436
 1257ERGO    R217117   7.723  16.458   7.185  0.0296  0.0827 -0.0656
 1257ERGO    R317118   7.821  16.232   7.301 -0.0348  0.0686 -0.0388
 1257ERGO    R417119   7.728  16.396   7.525  0.0014  0.1149 -0.0595
 1257ERGO    R517120   7.926  16.309   7.501 -0.0218  0.0598 -0.0432
 1257ERGO    C117121   7.823  16.147   7.831 -0.0756  0.1200 -0.0308
 1257ERGO    C217122   7.868  16.201   8.023  0.3083  0.1653 -0.2187
 1258ERGO   ROH17123   9.492   9.820   6.129  0.0584 -0.1659  0.0216
 1258ERGO    R117124   9.307   9.771   6.338  0.0177 -0.1132 -0.0009
 1258ERGO    R217125   9.362   9.832   6.603  0.0150 -0.1559  0.0134
 1258ERGO    R317126   9.128   9.970   6.585  0.0709 -0.0638 -0.0039
 1258ERGO    R417127   9.192   9.970   6.870 -0.0751 -0.2848  0.0234
 1258ERGO    R517128   9.005   9.905   6.779 -0.0496 -0.1562 -0.1132
 1258ERGO    C117129   8.874  10.180   7.009 -0.0751 -0.2734  0.0130
 1258ERGO    C217130   8.862  10.290   7.327  0.2739  0.0428 -0.2724
 1259ERGO   ROH17131  11.922  14.144   6.505 -0.0890 -0.4762 -0.1816
 1259ERGO    R117132  11.744  14.153   6.725 -0.0796 -0.3369 -0.1779
 1259ERGO    R217133  11.750  13.967   6.930 -0.0710 -0.2099 -0.0580
 1259ERGO    R317134  11.771  14.188   7.086 -0.0619 -0.1087 -0.2007
 1259ERGO    R417135  11.684  13.976   7.269  0.0329 -0.0074 -0.0417
 1259ERGO    R517136  11.588  14.169   7.240 -0.0091 -0.0442 -0.1324
 1259ERGO    C117137  11.664  14.188   7.613  0.1020  0.2055 -0.1661
 1259ERGO    C217138  11.623  14.355   7.977 -0.3047 -0.1437  0.2717
 1260ERGO   ROH17139   1.625  18.146   6.353  0.1112  0.1579  0.0578
 1260ERGO    R117140   1.617  18.251   6.615 -0.0506  0.1284  0.0668
 1260ERGO    R217141   1.391  18.238   6.774 -0.0863 -0.0869  0.0119
 1260ERGO    R317142   1.562  18.121   6.951 -0.0232  0.0453  0.0372
 1260ERGO    R417143   1.309  18.140   7.096 -0.1216 -0.3877 -0.0865
 1260ERGO    R517144   1.502  18.214   7.163 -0.2619 -0.1624  0.0590
 1260ERGO    C117145   1.421  17.974   7.448 -0.0831 -0.4387 -0.1201
 1260ERGO    C217146   1.383  17.888   7.793 -0.0230 -0.1576  0.0043
 1261ERGO   ROH17147   6.565   2.778   6.387 -0.0157 -0.0408 -0.0243
 1261ERGO    R117148   6.508   2.954   6.601  0.0413  0.0079 -0.0484
 1261ERGO    R217149   6.488   2.868   6.863 -0.0251  0.0441 -0.0405
 1261ERGO    R317150   6.674   3.061   6.906  0.0582 -0.0357 -0.0424
 1261ERGO    R417151   6.623   2.947   7.171 -0.1083  0.0939 -0.0169
 1261ERGO    R517152   6.612   3.157   7.117  0.0231  0.0789 -0.1045
 1261ERGO    C117153   6.876   3.174   7.391 -0.0785  0.0481 -0.0049
 1261ERGO    C217154   6.883   3.255   7.708  0.0498 -0.0692 -0.2603
 1262ERGO   ROH17155   0.963   4.030   6.324 -0.1122  0.0493 -0.0751
 1262ERGO    R117156   0.943   4.102   6.597 -0.0846  0.0979 -0.0862
 1262ERGO    R217157   0.906   3.916   6.798 -0.1749  0.1450 -0.0617
 1262ERGO    R317158   1.128   4.032   6.903 -0.1234  0.0573 -0.0711
 1262ERGO    R417159   1.000   3.898   7.130 -0.0987 -0.0069 -0.0902
 1262ERGO    R517160   1.059   4.107   7.119 -0.0566 -0.0125 -0.0230
 1262ERGO    C117161   1.264   3.997   7.422 -0.0061 -0.1776 -0.1156
 1262ERGO    C217162   1.310   3.952   7.781  0.0415  0.2665  0.1662
 1263ERGO   ROH17163  17.869   5.462   6.090 -0.1749 -0.0637 -0.1785
 1263ERGO    R117164  17.853   5.339   6.344 -0.0294 -0.1227 -0.1969
 1263ERGO    R217165  18.044   5.162   6.436  0.1928  0.1007 -0.2171
 1263ERGO    R317166  18.054   5.332   6.648 -0.0275  0.0848 -0.1917
 1263ERGO    R417167  18.048   5.065   6.768  0.1283  0.0638 -0.2270
 1263ERGO    R517168  17.914   5.230   6.813 -0.0195 -0.0440 -0.2629
 1263ERGO    C117169  18.060   5.168   7.159 -0.1159  0.0274 -0.2087
 1263ERGO    C217170  18.143   5.140   7.456  0.0519  0.0062 -0.1719
 1264ERGO   ROH17171   8.677   0.553   6.659 -0.2660 -0.0840  0.0684
 1264ERGO    R117172   8.645   0.661   6.919 -0.1250 -0.0175  0.0584
 1264ERGO    R217173   8.533   0.517   7.127 -0.0046  0.0346  0.1560
 1264ERGO    R317174   8.765   0.582   7.254  0.0625  0.0751  0.0159
 1264ERGO    R417175   8.568   0.555   7.469  0.2209 -0.1089  0.1510
 1264ERGO    R517176   8.697   0.726   7.432  0.1240 -0.0330  0.1330
 1264ERGO    C117177   8.806   0.638   7.787  0.4151 -0.1544  0.0166
 1264ERGO    C217178   8.747   0.640   8.143  0.1115  0.0191 -0.0776
 1265ERGO   ROH17179   7.055   9.981   5.848 -0.0162  0.3155  0.0816
 1265ERGO    R117180   7.033   9.916   6.123 -0.1981  0.2961  0.0656
 1265ERGO    R217181   7.214   9.752   6.252 -0.4988 -0.0432  0.0888
 1265ERGO    R317182   7.236   9.963   6.422 -0.1893 -0.0998  0.1236
 1265ERGO    R417183   7.299   9.727   6.586 -0.5898 -0.2146  0.0992
 1265ERGO    R517184   7.149   9.880   6.630 -0.3513  0.0149  0.0963
 1265ERGO    C117185   7.368   9.911   6.941 -0.3523 -0.3675  0.1379
 1265ERGO    C217186   7.684  10.034   7.039 -0.1608  0.1840 -0.1050
 1266ERGO   ROH17187  11.939  17.733   6.316  0.2109 -0.0784 -0.0345
 1266ERGO    R117188  11.842  17.749   6.582  0.1003 -0.2150 -0.0649
 1266ERGO    R217189  11.813  17.527   6.744  0.2620 -0.2722 -0.1101
 1266ERGO    R317190  11.968  17.671   6.914  0.0627 -0.1441 -0.0342
 1266ERGO    R417191  11.881  17.438   7.071  0.2809 -0.2802 -0.1164
 1266ERGO    R517192  11.859  17.647   7.127  0.0360 -0.3176 -0.0667
 1266ERGO    C117193  12.066  17.521   7.421  0.1048 -0.1643 -0.0488
 1266ERGO    C217194  12.334  17.723   7.592  0.2227 -0.2559  0.0331
 1267ERGO   ROH17195  12.867  17.703   6.785 -0.0609  0.1837 -0.1622
 1267ERGO    R117196  12.906  17.752   7.061 -0.1080 -0.0910 -0.1037
 1267ERGO    R217197  12.996  17.995   7.157  0.2497 -0.3060  0.1240
 1267ERGO    R317198  12.772  17.981   7.310  0.1486 -0.0541  0.0050
 1267ERGO    R417199  12.927  18.201   7.426  0.3443 -0.2335  0.0938
 1267ERGO    R517200  12.848  18.027   7.532  0.0870 -0.1501  0.0478
 1267ERGO    C117201  12.676  18.307   7.726  0.3044  0.0451 -0.0356
 1267ERGO    C217202  12.735  18.612   7.807  0.0480 -0.1042  0.0431
 1268ERGO   ROH17203   2.595  10.129   6.678  0.0151  0.0326  0.0885
 1268ERGO    R117204   2.453  10.132   6.923 -0.0063  0.0926  0.0759
 1268ERGO    R217205   2.565  10.048   7.161 -0.0757  0.0084  0.0807
 1268ERGO    R317206   2.489  10.294   7.247  0.0568  0.0459  0.0923
 1268ERGO    R417207   2.605  10.166   7.484 -0.0317 -0.0362  0.0913
 1268ERGO    R517208   2.407  10.257   7.469  0.0205  0.0761  0.0838
 1268ERGO    C117209   2.555  10.465   7.752  0.1182 -0.0269  0.1084
 1268ERGO    C217210   2.747  10.394   8.017  0.0762 -0.1185  0.0878
 1269ERGO   ROH17211  12.904  15.535   6.355 -0.0854  0.1545  0.0222
 1269ERGO    R117212  12.863  15.438   6.617 -0.0395  0.0886  0.0051
 1269ERGO    R217213  13.072  15.379   6.788 -0.0077  0.1190 -0.0174
 1269ERGO    R317214  12.941  15.548   6.956 -0.0533  0.0476  0.0198
 1269ERGO    R417215  13.126  15.400   7.129  0.0448  0.1412 -0.0264
 1269ERGO    R517216  12.911  15.421   7.156  0.0478  0.0344  0.0209
 1269ERGO    C117217  13.034  15.572   7.484  0.0325  0.0871  0.0032
 1269ERGO    C217218  13.196  15.460   7.796  0.2453  0.0003 -0.3161
 1270ERGO   ROH17219   9.860  15.471   6.405  0.0559  0.1082  0.0914
 1270ERGO    R117220   9.752  15.373   6.648  0.0466  0.0605  0.0680
 1270ERGO    R217221   9.629  15.126   6.668 -0.0312  0.0937 -0.0051
 1270ERGO    R317222   9.810  15.088   6.867 -0.0256 -0.0334 -0.0333
 1270ERGO    R417223   9.629  14.859   6.887 -0.2140  0.1149  0.0219
 1270ERGO    R517224   9.682  14.996   7.047 -0.0717  0.0905 -0.0010
 1270ERGO    C117225   9.798  14.668   7.202 -0.3150  0.0079  0.0111
 1270ERGO    C217226   9.776  14.333   7.224 -0.1503  0.1332  0.0991
 1271ERGO   ROH17227   2.080   8.646   6.264  0.0451  0.3789  0.0409
 1271ERGO    R117228   2.106   8.568   6.535 -0.1614  0.2348  0.0227
 1271ERGO    R217229   2.350   8.513   6.652 -0.2799 -0.3119  0.0547
 1271ERGO    R317230   2.268   8.699   6.833  0.0651 -0.1903  0.0916
 1271ERGO    R417231   2.406   8.495   6.993 -0.0548 -0.3211  0.0173
 1271ERGO    R517232   2.204   8.570   7.025  0.0567 -0.0848  0.1555
 1271ERGO    C117233   2.362   8.658   7.361  0.4000 -0.2124  0.0301
 1271ERGO    C217234   2.334   8.745   7.660  0.1988  0.1411  0.3799
 1272ERGO   ROH17235  18.154   4.492   6.432  0.1229 -0.0359 -0.0391
 1272ERGO    R117236  18.128   4.643   6.670  0.0957 -0.0525 -0.0310
 1272ERGO    R217237  18.059   4.528   6.912  0.0387 -0.0653 -0.0513
 1272ERGO    R317238  18.287   4.649   6.998  0.0369 -0.0975 -0.0019
 1272ERGO    R417239  18.152   4.563   7.243 -0.0876  0.0342 -0.0256
 1272ERGO    R517240  18.222   4.764   7.197 -0.0127 -0.0040 -0.0726
 1272ERGO    C117241  18.420   4.696   7.516 -0.1631  0.0620  0.0357
 1272ERGO    C217242  18.260   4.668   7.821  0.1120  0.2942  0.1109
 1273ERGO   ROH17243   0.098  13.445   6.432 -0.0279 -0.0864  0.0749
 1273ERGO    R117244  -0.051  13.431   6.672 -0.1311  0.0266  0.0177
 1273ERGO    R217245   0.058  13.490   6.918 -0.1547 -0.1428  0.0670
 1273ERGO    R317246  -0.152  13.662   6.935  0.0234  0.0843  0.0282
 1273ERGO    R417247  -0.082  13.603   7.213 -0.1730 -0.1033  0.0440
 1273ERGO    R517248  -0.279  13.583   7.122 -0.1558  0.1479 -0.0617
 1273ERGO    C117249  -0.360  13.830   7.401 -0.0165  0.1330 -0.0058
 1273ERGO    C217250  -0.381  13.974   7.878  0.0902  0.0876  0.1825
 1274ERGO   ROH17251   7.695  13.818   6.341 -0.0693  0.0190  0.0941
 1274ERGO    R117252   7.726  13.714   6.603 -0.1139 -0.0339  0.0784
 1274ERGO    R217253   7.642  13.850   6.828 -0.1894 -0.0983  0.0881
 1274ERGO    R317254   7.507  13.619   6.878 -0.1628 -0.1321  0.0066
 1274ERGO    R417255   7.450  13.790   7.109 -0.1704 -0.2234  0.0753
 1274ERGO    R517256   7.530  13.587   7.114 -0.1480 -0.2183 -0.0052
 1274ERGO    C117257   7.212  13.539   7.320 -0.1343 -0.3280 -0.0086
 1274ERGO    C217258   6.971  13.696   7.613 -0.1011  0.0849  0.1369
 1275ERGO   ROH17259  16.941   7.710   6.317  0.1797 -0.0421  0.0607
 1275ERGO    R117260  17.059   7.464   6.391  0.0137 -0.0659  0.2539
 1275ERGO    R217261  17.332   7.430   6.410  0.0020 -0.2960  0.0574
 1275ERGO    R317262  17.272   7.344   6.661  0.1331  0.0617  0.2175
 1275ERGO    R417263  17.550   7.261   6.618 -0.0727 -0.5368 -0.0574
 1275ERGO    R517264  17.384   7.133   6.680 -0.2623 -0.1530  0.2701
 1275ERGO    C117265  17.621   7.081   6.974  0.0067 -0.3414  0.0260
 1275ERGO    C217266  17.805   6.947   7.091  0.0196 -0.1113 -0.0873
 1276ERGO   ROH17267  13.701   8.144   6.233  0.0775 -0.0502  0.0270
 1276ERGO    R117268  13.745   8.214   6.504 -0.0263 -0.0606  0.0468
 1276ERGO    R217269  13.538   8.252   6.684 -0.0885 -0.2995  0.0279
 1276ERGO    R317270  13.675   8.068   6.830  0.0742 -0.1964  0.0088
 1276ERGO    R417271  13.495   8.197   7.022  0.0134 -0.3222  0.0377
 1276ERGO    R517272  13.711   8.175   7.041  0.0347 -0.1632 -0.0006
 1276ERGO    C117273  13.599   7.992   7.356  0.2254 -0.2386  0.0254
 1276ERGO    C217274  13.479   7.857   7.582  0.1631  0.1001 -0.1762
 1277ERGO   ROH17275  12.557   8.500   6.244  0.0409 -0.1065  0.1810
 1277ERGO    R117276  12.468   8.496   6.513 -0.0381 -0.0576  0.1568
 1277ERGO    R217277  12.585   8.650   6.711  0.0460 -0.1807  0.2096
 1277ERGO    R317278  12.330   8.736   6.749  0.1103  0.0418  0.1424
 1277ERGO    R417279  12.456   8.754   7.014  0.0604 -0.0381  0.1664
 1277ERGO    R517280  12.270   8.650   6.965 -0.0159  0.1169  0.1355
 1277ERGO    C117281  12.141   8.896   7.227  0.1290  0.2538  0.0781
 1277ERGO    C217282  12.048   9.064   7.537 -0.1021  0.3247 -0.1010
 1278ERGO   ROH17283   3.794  15.061   6.245 -0.2042  0.0494 -0.0183
 1278ERGO    R117284   3.868  15.161   6.499 -0.0794 -0.1106  0.0087
 1278ERGO    R217285   3.754  15.387   6.609  0.0919 -0.0899  0.1346
 1278ERGO    R317286   3.703  15.221   6.818  0.0376 -0.1464  0.0786
 1278ERGO    R417287   3.796  15.470   6.942 -0.0108 -0.1629  0.1673
 1278ERGO    R517288   3.875  15.269   6.977 -0.0076 -0.1718  0.1420
 1278ERGO    C117289   3.772  15.361   7.332 -0.1214 -0.2585  0.1336
 1278ERGO    C217290   3.724  15.164   7.615  0.0702 -0.0866  0.1914
 1279ERGO   ROH17291  12.046  10.199   6.027 -0.2266 -0.0622  0.0204
 1279ERGO    R117292  11.994   9.944   6.138  0.0085 -0.1318 -0.0227
 1279ERGO    R217293  12.190   9.793   6.261  0.0883  0.1597  0.2241
 1279ERGO    R317294  12.012   9.791   6.467 -0.1610 -0.0737  0.0138
 1279ERGO    R417295  12.231   9.616   6.556 -0.0085  0.2554  0.2956
 1279ERGO    R517296  12.019   9.566   6.549  0.0686 -0.0558  0.0459
 1279ERGO    C117297  12.088   9.512   6.920 -0.2988  0.0922  0.1399
 1279ERGO    C217298  12.216   9.365   7.133  0.1303  0.2452 -0.1605
 1280ERGO   ROH17299  16.603   6.162   6.347  0.1102 -0.1474 -0.1804
 1280ERGO    R117300  16.625   5.962   6.546 -0.1369 -0.1479 -0.1515
 1280ERGO    R217301  16.788   5.990   6.768 -0.0166 -0.3596 -0.2149
 1280ERGO    R317302  16.559   5.936   6.903 -0.0603  0.0227 -0.1222
 1280ERGO    R417303  16.769   5.927   7.107  0.0475 -0.4671 -0.2304
 1280ERGO    R517304  16.622   5.772   7.065 -0.2828 -0.1773 -0.2259
 1280ERGO    C117305  16.543   5.841   7.432  0.0438 -0.1707 -0.1524
 1280ERGO    C217306  16.531   5.674   7.808 -0.1206  0.0896  0.2754
 1281ERGO   ROH17307   0.895   7.091   6.432 -0.0010 -0.0570  0.0538
 1281ERGO    R117308   1.003   7.141   6.689 -0.1277  0.1632  0.0656
 1281ERGO    R217309   0.946   7.370   6.833 -0.6581  0.0286  0.0818
 1281ERGO    R317310   0.872   7.193   7.025 -0.2737 -0.1613  0.0638
 1281ERGO    R417311   0.922   7.441   7.170 -0.5747 -0.1246  0.1217
 1281ERGO    R517312   1.010   7.247   7.213 -0.2435 -0.0121  0.0039
 1281ERGO    C117313   0.839   7.315   7.547 -0.1652 -0.3921  0.1282
 1281ERGO    C217314   0.675   7.501   7.766 -0.0131  0.1114  0.0931
 1282ERGO   ROH17315  15.710  16.223   6.585 -0.0052  0.0329  0.1077
 1282ERGO    R117316  15.585  16.142   6.826  0.0905  0.0221  0.1547
 1282ERGO    R217317  15.727  16.042   7.042  0.1919  0.1413  0.1467
 1282ERGO    R317318  15.598  16.240   7.176  0.1220  0.1073  0.1296
 1282ERGO    R417319  15.613  16.019   7.367  0.0039  0.0552  0.0757
 1282ERGO    R517320  15.433  16.126   7.307  0.0429  0.0779  0.0039
 1282ERGO    C117321  15.426  16.190   7.683 -0.1710 -0.0265  0.0184
 1282ERGO    C217322  15.608  16.182   7.950  0.2395  0.2792 -0.1407
 1283ERGO   ROH17323   8.229   8.894   6.388 -0.0164  0.0207  0.0042
 1283ERGO    R117324   8.389   8.892   6.621 -0.0007  0.1911 -0.0043
 1283ERGO    R217325   8.410   9.111   6.789 -0.3422  0.1682  0.0743
 1283ERGO    R317326   8.336   8.931   6.979 -0.0496 -0.0241  0.0131
 1283ERGO    R417327   8.422   9.167   7.130 -0.3868  0.0525  0.0957
 1283ERGO    R517328   8.494   8.963   7.156 -0.0731  0.1451  0.0055
 1283ERGO    C117329   8.360   9.032   7.507 -0.1379 -0.1954  0.0508
 1283ERGO    C217330   8.186   9.108   7.771 -0.1258 -0.0367 -0.1036
 1284ERGO   ROH17331  13.567   2.377   6.079  0.0176  0.1321 -0.0253
 1284ERGO    R117332  13.462   2.405   6.340  0.0338  0.0846 -0.0142
 1284ERGO    R217333  13.352   2.193   6.480  0.0875  0.0495 -0.0279
 1284ERGO    R317334  13.533   2.265   6.669  0.0877  0.0653 -0.0335
 1284ERGO    R417335  13.386   2.042   6.789 -0.0200  0.1760  0.0474
 1284ERGO    R517336  13.417   2.239   6.876  0.0442  0.2061 -0.0380
 1284ERGO    C117337  13.576   2.021   7.146 -0.0824  0.2645  0.0860
 1284ERGO    C217338  13.592   2.047   7.400 -0.2411 -0.1681  0.0510
 1285ERGO   ROH17339   3.642   4.029   6.141 -0.0597 -0.0145 -0.0331
 1285ERGO    R117340   3.507   4.057   6.388  0.1543 -0.1561  0.1037
 1285ERGO    R217341   3.629   4.004   6.631  0.5083  0.1302  0.0031
 1285ERGO    R317342   3.546   4.256   6.690  0.1480  0.0187 -0.0119
 1285ERGO    R417343   3.593   4.130   6.951  0.4648  0.1526 -0.0112
 1285ERGO    R517344   3.411   4.230   6.886  0.2817 -0.1428  0.0558
 1285ERGO    C117345   3.496   4.441   7.192  0.1011  0.0611 -0.0337
 1285ERGO    C217346   3.389   4.695   7.445  0.3064  0.2784 -0.1058
 1286ERGO   ROH17347   3.000  12.854   6.393  0.1875  0.1160 -0.0588
 1286ERGO    R117348   3.119  12.833   6.648  0.0412  0.0532  0.0059
 1286ERGO    R217349   2.997  12.925   6.878 -0.1054 -0.0329 -0.0355
 1286ERGO    R317350   3.040  12.671   6.965 -0.1241 -0.0542 -0.0890
 1286ERGO    R417351   2.959  12.819   7.205  0.5193  0.0581  0.0791
 1286ERGO    R517352   3.139  12.699   7.181  0.3777 -0.0953 -0.2993
 1286ERGO    C117353   2.977  12.519   7.476  0.8656  0.0911  0.0956
 1286ERGO    C217354   3.032  12.338   7.769 -0.3051 -0.0144  0.0388
 1287ERGO   ROH17355  15.398  10.099   6.641  0.0824  0.0414  0.0765
 1287ERGO    R117356  15.541  10.075   6.885  0.0257  0.0424  0.1104
 1287ERGO    R217357  15.517  10.259   7.090 -0.0396  0.0316  0.1145
 1287ERGO    R317358  15.458  10.039   7.237 -0.0573  0.0194  0.0885
 1287ERGO    R417359  15.469  10.258   7.432 -0.1020  0.0046  0.1055
 1287ERGO    R517360  15.579  10.070   7.441 -0.0966  0.0094  0.1125
 1287ERGO    C117361  15.386  10.050   7.770 -0.1549 -0.0226  0.0760
 1287ERGO    C217362  15.117  10.263   7.958 -0.1528 -0.0068 -0.0072
 1288ERGO   ROH17363  10.858  13.963   6.439 -0.2068 -0.0067 -0.0122
 1288ERGO    R117364  10.742  13.883   6.684 -0.3958 -0.0306 -0.1077
 1288ERGO    R217365  10.831  13.977   6.928 -0.2218 -0.4611  0.0067
 1288ERGO    R317366  10.570  14.046   6.960 -0.0946  0.0410  0.0401
 1288ERGO    R417367  10.675  14.027   7.233 -0.1521 -0.3775  0.0292
 1288ERGO    R517368  10.499  13.925   7.154 -0.3551  0.0332 -0.0600
 1288ERGO    C117369  10.340  14.122   7.440  0.0079  0.1425  0.0737
 1288ERGO    C217370  10.091  14.304   7.577  0.0046 -0.0377 -0.3757
 1289ERGO   ROH17371   8.746   8.164   6.201 -0.0086  0.1053 -0.2230
 1289ERGO    R117372   8.929   7.982   6.317 -0.0352  0.0082 -0.3309
 1289ERGO    R217373   9.189   7.952   6.225  0.0434  0.2127 -0.1871
 1289ERGO    R317374   9.252   8.002   6.485 -0.1607 -0.1074 -0.0712
 1289ERGO    R417375   9.495   7.884   6.371 -0.0391  0.1258 -0.0537
 1289ERGO    R517376   9.389   7.817   6.549 -0.1460 -0.1467 -0.2154
 1289ERGO    C117377   9.731   7.891   6.700 -0.2788 -0.2253  0.1329
 1289ERGO    C217378   9.902   8.002   6.910  0.0070 -0.0019 -0.0920
 1290ERGO   ROH17379   5.707   0.876   6.230  0.0889 -0.0107  0.0142
 1290ERGO    R117380   5.648   0.822   6.501  0.1708  0.0294  0.0402
 1290ERGO    R217381   5.607   0.566   6.597  0.0593  0.0557  0.0607
 1290ERGO    R317382   5.802   0.635   6.773  0.1749 -0.0567 -0.0202
 1290ERGO    R417383   5.589   0.520   6.939  0.1271  0.1591  0.0789
 1290ERGO    R517384   5.682   0.715   6.965  0.2979  0.0928 -0.0017
 1290ERGO    C117385   5.761   0.558   7.304  0.2750  0.1137  0.0135
 1290ERGO    C217386   5.618   0.500   7.571 -0.0515 -0.1538 -0.1361
 1291ERGO   ROH17387   0.911   5.123   6.488 -0.4325 -0.0850  0.0644
 1291ERGO    R117388   0.824   5.173   6.753 -0.0831 -0.1552  0.1975
 1291ERGO    R217389   1.000   5.191   6.966  0.2485  0.1919 -0.0911
 1291ERGO    R317390   0.878   5.431   7.004 -0.0902  0.0082  0.0335
 1291ERGO    R417391   0.950   5.343   7.273  0.4298  0.1558 -0.0422
 1291ERGO    R517392   0.752   5.404   7.205  0.2269 -0.1686  0.2171
 1291ERGO    C117393   0.806   5.656   7.487  0.2174 -0.0377  0.1032
 1291ERGO    C217394   0.962   5.954   7.699  0.1160  0.0420 -0.1553
 1292ERGO   ROH17395   4.016  16.938   6.357  0.1713 -0.0125 -0.0924
 1292ERGO    R117396   4.099  16.876   6.621  0.1082  0.1650 -0.0266
 1292ERGO    R217397   4.035  17.034   6.838 -0.0871  0.2308 -0.1148
 1292ERGO    R317398   3.937  16.801   6.938  0.0238  0.2091 -0.0627
 1292ERGO    R417399   3.944  16.983   7.167  0.0317  0.2110 -0.0867
 1292ERGO    R517400   4.033  16.785   7.156  0.0896  0.2503 -0.0978
 1292ERGO    C117401   3.799  16.735   7.453  0.2051  0.1791 -0.0214
 1292ERGO    C217402   3.566  16.703   7.761  0.3928  0.1485 -0.3914
 1293ERGO   ROH17403   2.207  10.890   6.301 -0.0272  0.0799 -0.0376
 1293ERGO    R117404   2.132  11.069   6.507 -0.0171 -0.0272  0.0594
 1293ERGO    R217405   2.068  10.984   6.762  0.2670 -0.1359  0.0951
 1293ERGO    R317406   2.260  11.163   6.835  0.1696  0.0201 -0.0245
 1293ERGO    R417407   2.108  11.111   7.081  0.2423  0.0371  0.0305
 1293ERGO    R517408   2.150  11.306   6.992  0.1042  0.0257 -0.0710
 1293ERGO    C117409   2.311  11.353   7.335  0.1364  0.2843 -0.1193
 1293ERGO    C217410   2.518  11.446   7.622  0.0808  0.0569  0.2302
 1294ERGO   ROH17411   3.846   4.513   6.245  0.1300  0.0828 -0.0223
 1294ERGO    R117412   3.920   4.427   6.504  0.0659  0.0590 -0.0112
 1294ERGO    R217413   4.064   4.586   6.679  0.0068  0.0512  0.0481
 1294ERGO    R317414   3.857   4.533   6.847 -0.0364  0.0160 -0.0170
 1294ERGO    R417415   4.075   4.617   7.023 -0.0768 -0.0469  0.0596
 1294ERGO    R517416   3.959   4.433   7.038 -0.0905 -0.0432 -0.0202
 1294ERGO    C117417   3.887   4.585   7.381 -0.1661 -0.1371  0.0052
 1294ERGO    C217418   4.181   4.680   7.606 -0.1380 -0.1123  0.2040
 1295ERGO   ROH17419  13.790  11.817   6.364 -0.1665 -0.0128  0.1190
 1295ERGO    R117420  13.800  11.938   6.619 -0.2711 -0.2724  0.2490
 1295ERGO    R217421  13.765  11.796   6.854  0.3280 -0.6504  0.1248
 1295ERGO    R317422  14.003  11.908   6.919  0.0987 -0.0640  0.0279
 1295ERGO    R417423  13.842  11.929   7.163  0.2092 -0.7095  0.1817
 1295ERGO    R517424  13.946  12.091   7.062 -0.2925 -0.3272  0.2326
 1295ERGO    C117425  14.112  12.111   7.405 -0.0752 -0.1935  0.1240
 1295ERGO    C217426  14.092  11.875   7.686 -0.2077 -0.4069  0.0116
 1296ERGO   ROH17427  11.854   3.743   6.226  0.1091 -0.1012  0.2497
 1296ERGO    R117428  11.754   3.583   6.438 -0.1126 -0.0293  0.2020
 1296ERGO    R217429  11.872   3.577   6.688 -0.1502 -0.2255  0.2187
 1296ERGO    R317430  11.621   3.641   6.772 -0.0892  0.0612  0.1947
 1296ERGO    R417431  11.762   3.558   7.015 -0.2332 -0.1519  0.1961
 1296ERGO    R517432  11.572   3.479   6.941 -0.3151  0.0910  0.1557
 1296ERGO    C117433  11.462   3.606   7.284 -0.2243  0.1601  0.1605
 1296ERGO    C217434  11.178   3.508   7.517 -0.2709 -0.1587  0.0971
 1297ERGO   ROH17435  15.367   7.738   6.570 -0.0001  0.0500 -0.0389
 1297ERGO    R117436  15.264   7.704   6.831  0.0266 -0.0529 -0.0410
 1297ERGO    R217437  15.399   7.566   7.028  0.0925 -0.0462 -0.0803
 1297ERGO    R317438  15.365   7.795   7.169  0.0084 -0.0923 -0.0251
 1297ERGO    R417439  15.432   7.594   7.371  0.1065 -0.1097 -0.0763
 1297ERGO    R517440  15.258   7.726   7.371  0.0527 -0.1816 -0.0328
 1297ERGO    C117441  15.418   7.827   7.703  0.0356 -0.1900 -0.0222
 1297ERGO    C217442  15.461   7.794   8.044 -0.0052 -0.1211  0.1055
 1298ERGO   ROH17443  13.311   3.509   6.160  0.1523  0.3232  0.2083
 1298ERGO    R117444  13.521   3.332   6.230 -0.0056  0.0976  0.1305
 1298ERGO    R217445  13.779   3.420   6.281  0.1008 -0.1700  0.0791
 1298ERGO    R317446  13.744   3.286   6.515  0.0232 -0.1671  0.0686
 1298ERGO    R417447  14.032   3.337   6.501  0.0514 -0.2849  0.0909
 1298ERGO    R517448  13.936   3.145   6.532 -0.0350 -0.2487  0.0736
 1298ERGO    C117449  14.146   3.164   6.849 -0.0504 -0.3492  0.0880
 1298ERGO    C217450  14.091   3.161   7.225  0.0210  0.2141 -0.0841
 1299ERGO   ROH17451   3.613  17.684   6.414 -0.1574  0.1124 -0.1154
 1299ERGO    R117452   3.741  17.819   6.628 -0.0527 -0.1114 -0.0340
 1299ERGO    R217453   3.635  18.045   6.745  0.2106  0.0093 -0.0249
 1299ERGO    R317454   3.663  17.900   6.974 -0.0763 -0.0844 -0.0450
 1299ERGO    R417455   3.675  18.180   7.061  0.3987 -0.1094  0.0034
 1299ERGO    R517456   3.822  18.024   7.103  0.1258 -0.3783  0.0004
 1299ERGO    C117457   3.725  18.123   7.459  0.2389 -0.2665  0.0009
 1299ERGO    C217458   3.772  18.156   7.827 -0.0287  0.2286  0.4051
 1300ERGO   ROH17459  15.620  12.706   6.131 -0.0708  0.0308 -0.0633
 1300ERGO    R117460  15.788  12.775   6.348  0.0152 -0.1686 -0.0686
 1300ERGO    R217461  16.057  12.709   6.354  0.0370 -0.0696 -0.2854
 1300ERGO    R317462  16.088  12.975   6.397 -0.0374 -0.1146  0.0288
 1300ERGO    R417463  16.357  12.863   6.427  0.0786 -0.0229 -0.5426
 1300ERGO    R517464  16.252  12.989   6.570  0.2317 -0.2731 -0.2045
 1300ERGO    C117465  16.562  13.203   6.508  0.0331 -0.0381 -0.3974
 1300ERGO    C217466  16.667  13.420   6.645  0.0256  0.1875  0.0286
 1301ERGO   ROH17467  11.657   7.744   6.468  0.0935  0.2749  0.0636
 1301ERGO    R117468  11.714   7.850   6.725  0.2196  0.0206  0.1429
 1301ERGO    R217469  11.533   7.838   6.933  0.1361  0.2336  0.0768
 1301ERGO    R317470  11.740   7.721   7.064 -0.1162 -0.2323  0.0805
 1301ERGO    R417471  11.557   7.809   7.277  0.2136  0.5321  0.1004
 1301ERGO    R517472  11.770   7.855   7.260  0.3661 -0.0875 -0.0702
 1301ERGO    C117473  11.766   7.681   7.600  0.0219  0.2686  0.1176
 1301ERGO    C217474  11.846   7.648   7.843  0.1384 -0.2165 -0.1546
 1302ERGO   ROH17475  10.691  16.401   6.704  0.1630 -0.0645  0.0446
 1302ERGO    R117476  10.583  16.394   6.966 -0.0044 -0.2266 -0.0252
 1302ERGO    R217477  10.659  16.206   7.153  0.1415 -0.1326  0.0232
 1302ERGO    R317478  10.710  16.425   7.305 -0.2678 -0.0560  0.0582
 1302ERGO    R417479  10.654  16.213   7.499  0.2518 -0.2172  0.0257
 1302ERGO    R517480  10.557  16.407   7.489 -0.1641 -0.4185  0.1083
 1302ERGO    C117481  10.699  16.423   7.843 -0.0682 -0.1949  0.0600
 1302ERGO    C217482  10.810  16.330   8.105  0.0041  0.0477 -0.1494
 1303ERGO   ROH17483  11.625  12.747   6.687 -0.2460  0.1886 -0.0069
 1303ERGO    R117484  11.714  12.750   6.955  0.0438  0.3839 -0.1017
 1303ERGO    R217485  11.685  12.970   7.120 -0.3280  0.3020 -0.0603
 1303ERGO    R317486  11.563  12.790   7.284  0.2908 -0.0250  0.0709
 1303ERGO    R417487  11.642  13.012   7.460 -0.5951  0.4951 -0.1136
 1303ERGO    R517488  11.691  12.801   7.487  0.2132  0.6700  0.1125
 1303ERGO    C117489  11.503  12.867   7.812 -0.1698  0.3006 -0.0213
 1303ERGO    C217490  11.292  12.838   8.020  0.3214  0.4270  0.1389
 1304ERGO   ROH17491   1.181  11.585   6.062  0.1905 -0.1609  0.0663
 1304ERGO    R117492   1.277  11.754   6.268  0.1670 -0.0778  0.0105
 1304ERGO    R217493   1.132  11.805   6.498  0.1432  0.0088 -0.0207
 1304ERGO    R317494   1.359  11.719   6.622  0.1335  0.0601  0.0317
 1304ERGO    R417495   1.191  11.826   6.838 -0.0396 -0.1985  0.0261
 1304ERGO    R517496   1.397  11.882   6.793 -0.0517 -0.0391  0.1693
 1304ERGO    C117497   1.438  11.759   7.152 -0.1551 -0.2709  0.1026
 1304ERGO    C217498   1.444  11.785   7.510  0.0159  0.1668  0.0029
 1305ERGO   ROH17499  15.963   8.585   6.490  0.0517  0.1573  0.0044
 1305ERGO    R117500  16.001   8.428   6.723 -0.0641  0.0763 -0.0306
 1305ERGO    R217501  16.229   8.278   6.765 -0.0565  0.1122  0.0601
 1305ERGO    R317502  16.237   8.417   6.999 -0.2409  0.0252  0.1204
 1305ERGO    R417503  16.401   8.179   7.048  0.0775  0.2169  0.0163
 1305ERGO    R517504  16.233   8.248   7.169 -0.0173 -0.0565  0.0477
 1305ERGO    C117505  16.510   8.251   7.432 -0.0175  0.1962  0.0474
 1305ERGO    C217506  16.722   8.261   7.808  0.0348 -0.0654  0.2849
 1306ERGO   ROH17507   7.589   1.474   6.813  0.1435 -0.1033 -0.1283
 1306ERGO    R117508   7.599   1.374   7.078  0.0004 -0.1261 -0.1310
 1306ERGO    R217509   7.674   1.531   7.293  0.0758 -0.1976 -0.1072
 1306ERGO    R317510   7.435   1.448   7.394 -0.0159 -0.0115 -0.1649
 1306ERGO    R417511   7.589   1.534   7.628  0.0271 -0.1931 -0.1191
 1306ERGO    R517512   7.493   1.341   7.601 -0.1396 -0.1065 -0.1764
 1306ERGO    C117513   7.317   1.459   7.918 -0.0874 -0.0157 -0.1803
 1306ERGO    C217514   7.171   1.662   8.099  0.0694 -0.0635  0.0145
 1307ERGO   ROH17515   5.373   6.607   6.364  0.1861 -0.2150  0.0017
 1307ERGO    R117516   5.466   6.561   6.627  0.2242  0.0430  0.0350
 1307ERGO    R217517   5.527   6.767   6.802 -0.2129  0.2189 -0.0146
 1307ERGO    R317518   5.352   6.637   6.964  0.0034 -0.0777 -0.0094
 1307ERGO    R417519   5.479   6.836   7.137 -0.3657  0.1976 -0.0304
 1307ERGO    R517520   5.465   6.622   7.175  0.0213  0.1669  0.0052
 1307ERGO    C117521   5.287   6.754   7.485 -0.2517 -0.0931 -0.0347
 1307ERGO    C217522   5.007   6.731   7.621  0.0311 -0.1280 -0.0688
 1308ERGO   ROH17523   4.397   0.143   6.200  0.2348 -0.1984 -0.0928
 1308ERGO    R117524   4.498  -0.002   6.421 -0.0117 -0.1622  0.0452
 1308ERGO    R217525   4.734   0.065   6.548 -0.0003 -0.3292  0.0932
 1308ERGO    R317526   4.577   0.067   6.770 -0.0848 -0.0230  0.0378
 1308ERGO    R417527   4.851   0.080   6.873 -0.0639 -0.5499  0.1298
 1308ERGO    R517528   4.698  -0.064   6.929 -0.3772 -0.2672  0.0812
 1308ERGO    C117529   4.771   0.091   7.270 -0.1805 -0.3910  0.0992
 1308ERGO    C217530   4.871   0.075   7.506  0.0195 -0.1480  0.0575
 1309ERGO   ROH17531  17.392  13.320   6.332 -0.0393  0.1111  0.0437
 1309ERGO    R117532  17.189  13.256   6.520  0.0422  0.0177  0.1010
 1309ERGO    R217533  17.234  13.091   6.739  0.2265  0.1787  0.1873
 1309ERGO    R317534  17.135  13.304   6.876  0.0380  0.1614  0.0814
 1309ERGO    R417535  17.134  13.085   7.069  0.1534  0.2376  0.1669
 1309ERGO    R517536  16.965  13.211   7.016  0.0731  0.0931  0.0777
 1309ERGO    C117537  16.982  13.280   7.390 -0.0662  0.2557  0.0555
 1309ERGO    C217538  17.079  13.134   7.578 -0.0845 -0.1211 -0.0525
 1310ERGO   ROH17539  14.436  15.813   6.503 -0.1361 -0.0062 -0.1313
 1310ERGO    R117540  14.559  15.789   6.757 -0.1026 -0.0366 -0.1519
 1310ERGO    R217541  14.524  15.975   6.958 -0.1232 -0.0959 -0.1107
 1310ERGO    R317542  14.448  15.758   7.103 -0.0524 -0.1441 -0.1426
 1310ERGO    R417543  14.504  15.965   7.303 -0.3222 -0.0711 -0.1192
 1310ERGO    R517544  14.589  15.764   7.297 -0.1657 -0.0183 -0.0550
 1310ERGO    C117545  14.421  15.755   7.639 -0.3715 -0.1020 -0.1542
 1310ERGO    C217546  14.444  15.748   8.007 -0.2622 -0.0519  0.0667
 1311ERGO   ROH17547   2.648   4.140   6.116  0.2475 -0.0135  0.1784
 1311ERGO    R117548   2.593   4.187   6.389  0.2038  0.0435  0.1606
 1311ERGO    R217549   2.341   4.153   6.498  0.1295  0.2849  0.0813
 1311ERGO    R317550   2.473   3.992   6.672 -0.0753  0.1569  0.1219
 1311ERGO    R417551   2.225   4.062   6.810 -0.1414  0.2055 -0.0402
 1311ERGO    R517552   2.427   4.085   6.887 -0.1938  0.0851  0.1240
 1311ERGO    C117553   2.281   3.857   7.155 -0.4915  0.0390 -0.0729
 1311ERGO    C217554   2.229   3.746   7.481 -0.2069 -0.2713  0.1751
 1312ERGO   ROH17555   2.265  13.503   6.137  0.1368  0.0588 -0.0685
 1312ERGO    R117556   2.121  13.479   6.379  0.0494  0.0425 -0.1216
 1312ERGO    R217557   2.232  13.372   6.609 -0.0358  0.0197 -0.0914
 1312ERGO    R317558   2.152  13.607   6.718 -0.0677  0.0124 -0.0988
 1312ERGO    R417559   2.215  13.437   6.948  0.0239  0.0497 -0.0940
 1312ERGO    R517560   2.029  13.544   6.913 -0.0101  0.0022 -0.0646
 1312ERGO    C117561   2.130  13.696   7.248  0.0287  0.0605 -0.1024
 1312ERGO    C217562   2.033  13.934   7.637  0.1081 -0.0503 -0.1063
 1313ERGO   ROH17563   7.543   5.887   6.218  0.0458 -0.0793  0.1578
 1313ERGO    R117564   7.545   5.944   6.495  0.1997 -0.1103  0.1633
 1313ERGO    R217565   7.778   5.958   6.642  0.3058  0.1612 -0.0267
 1313ERGO    R317566   7.684   6.203   6.710  0.0549  0.0387  0.0812
 1313ERGO    R417567   7.860   6.127   6.932  0.4044  0.2546 -0.1079
 1313ERGO    R517568   7.652   6.191   6.948  0.3289 -0.0167  0.1203
 1313ERGO    C117569   7.819   6.457   7.165  0.2263  0.1940 -0.0540
 1313ERGO    C217570   7.819   6.728   7.467  0.0505 -0.0471 -0.0108
 1314ERGO   ROH17571  17.084   4.173   6.102 -0.1813 -0.2883  0.0165
 1314ERGO    R117572  17.112   3.987   6.313  0.0700 -0.2561  0.0149
 1314ERGO    R217573  17.345   3.961   6.459  0.1227  0.0293 -0.0091
 1314ERGO    R317574  17.180   4.000   6.670  0.0934 -0.1702  0.0067
 1314ERGO    R417575  17.444   3.962   6.790  0.0829 -0.2146  0.0050
 1314ERGO    R517576  17.263   3.852   6.839  0.1003 -0.2877 -0.1009
 1314ERGO    C117577  17.346   3.999   7.181  0.0323 -0.5440  0.0280
 1314ERGO    C217578  17.507   3.905   7.531  0.2088  0.3296  0.2869
 1315ERGO   ROH17579  13.198   6.848   6.326  0.1399  0.0753  0.0647
 1315ERGO    R117580  13.269   6.620   6.477  0.1092  0.0727  0.0782
 1315ERGO    R217581  13.332   6.634   6.746  0.0822  0.0737  0.0925
 1315ERGO    R317582  13.138   6.445   6.768  0.0633  0.0925  0.0668
 1315ERGO    R417583  13.297   6.418   7.013  0.0403  0.0448  0.0621
 1315ERGO    R517584  13.248   6.259   6.872  0.0300  0.0705  0.0491
 1315ERGO    C117585  13.094   6.115   7.190 -0.0020  0.0455  0.0202
 1315ERGO    C217586  12.893   5.806   7.417 -0.2442  0.1041 -0.0171
 1316ERGO   ROH17587   0.087   3.207   6.375  0.0809 -0.1567 -0.0470
 1316ERGO    R117588  -0.109   3.197   6.578  0.0461  0.0673 -0.0675
 1316ERGO    R217589  -0.140   2.979   6.745 -0.2806  0.0594 -0.1315
 1316ERGO    R317590  -0.113   3.166   6.940 -0.0286 -0.0301 -0.0762
 1316ERGO    R417591  -0.223   2.932   7.077 -0.2939  0.0558 -0.1353
 1316ERGO    R517592  -0.304   3.134   7.081 -0.0518  0.1559 -0.0619
 1316ERGO    C117593  -0.246   3.080   7.454 -0.0650 -0.0305 -0.0855
 1316ERGO    C217594  -0.413   2.978   7.701  0.0935  0.0586  0.0598
 1317ERGO   ROH17595   5.143   7.561   6.502  0.3475  0.2654  0.1138
 1317ERGO    R117596   5.153   7.659   6.767  0.1252  0.1820  0.1553
 1317ERGO    R217597   4.930   7.757   6.898  0.0192  0.1713 -0.0116
 1317ERGO    R317598   5.000   7.574   7.087 -0.1721  0.1020 -0.0046
 1317ERGO    R417599   4.885   7.796   7.239 -0.0847  0.1549 -0.0229
 1317ERGO    R517600   5.081   7.706   7.270 -0.1570  0.0249  0.0424
 1317ERGO    C117601   4.925   7.648   7.614 -0.3248  0.0803 -0.0230
 1317ERGO    C217602   4.991   7.598   7.939 -0.1642 -0.0980  0.2051
 1318ERGO   ROH17603  10.815  10.085   5.917 -0.0531  0.1035  0.0649
 1318ERGO    R117604  10.993  10.103   6.137  0.1037 -0.2110 -0.0314
 1318ERGO    R217605  10.932  10.246   6.366  0.5313  0.0107 -0.0530
 1318ERGO    R317606  10.988  10.010   6.488  0.0725 -0.0785  0.0052
 1318ERGO    R417607  10.955  10.200   6.708  0.2904  0.0162 -0.0332
 1318ERGO    R517608  11.125  10.070   6.674  0.0928 -0.2851  0.0636
 1318ERGO    C117609  11.020   9.952   7.021 -0.2804 -0.0643  0.0328
 1318ERGO    C217610  10.994   9.954   7.357  0.0594 -0.2339  0.2089
 1319ERGO   ROH17611   6.475   8.249   6.339 -0.0713  0.0002 -0.1985
 1319ERGO    R117612   6.571   8.084   6.549  0.0608  0.1362 -0.1526
 1319ERGO    R217613   6.623   8.180   6.803 -0.1868  0.2132 -0.1393
 1319ERGO    R317614   6.454   7.981   6.878  0.0571 -0.0198 -0.2002
 1319ERGO    R417615   6.615   8.035   7.116 -0.3391  0.4764 -0.0156
 1319ERGO    R517616   6.586   7.841   7.021  0.1260  0.3312  0.1012
 1319ERGO    C117617   6.452   7.763   7.369 -0.1988  0.4110 -0.0008
 1319ERGO    C217618   6.392   7.825   7.777 -0.2511 -0.0177  0.3097
 1320ERGO   ROH17619   3.556   0.294   6.676 -0.2060 -0.4553  0.0009
 1320ERGO    R117620   3.513   0.453   6.906  0.1660 -0.1271 -0.1471
 1320ERGO    R217621   3.311   0.401   7.088  0.0486  0.5061 -0.0838
 1320ERGO    R317622   3.517   0.404   7.266  0.0668  0.2130 -0.0929
 1320ERGO    R417623   3.276   0.399   7.432  0.0524  0.4042 -0.0823
 1320ERGO    R517624   3.440   0.542   7.445  0.2153  0.2313 -0.0326
 1320ERGO    C117625   3.449   0.401   7.799  0.0716  0.0698 -0.0899
 1320ERGO    C217626   3.540   0.499   8.170 -0.1184  0.1283  0.0975
 1321ERGO   ROH17627  11.062   4.383   6.702  0.1025 -0.1204  0.1081
 1321ERGO    R117628  11.097   4.334   6.979  0.1220  0.0261  0.1325
 1321ERGO    R217629  11.269   4.482   7.136  0.0882  0.1470  0.0584
 1321ERGO    R317630  11.047   4.518   7.289  0.0850  0.1666  0.0419
 1321ERGO    R417631  11.262   4.652   7.437  0.1002  0.0561  0.1101
 1321ERGO    R517632  11.126   4.500   7.514  0.0489  0.0762  0.0444
 1321ERGO    C117633  11.049   4.785   7.755  0.1040  0.0216  0.1246
 1321ERGO    C217634  11.023   4.747   8.151 -0.0072 -0.3075 -0.1106
 1322ERGO   ROH17635   4.632   5.934   6.513  0.2089  0.0795 -0.0362
 1322ERGO    R117636   4.582   5.816   6.766 -0.1298 -0.0541 -0.1610
 1322ERGO    R217637   4.672   5.927   7.002 -0.0288 -0.4270 -0.0215
 1322ERGO    R317638   4.410   5.911   7.072 -0.1004 -0.0016 -0.1596
 1322ERGO    R417639   4.552   5.948   7.326 -0.1366 -0.4776 -0.0568
 1322ERGO    R517640   4.411   5.789   7.278 -0.4169 -0.1838 -0.2571
 1322ERGO    C117641   4.236   5.945   7.580 -0.2665 -0.1077 -0.2071
 1322ERGO    C217642   4.002   6.153   7.703 -0.2042  0.0965 -0.2729
 1323ERGO   ROH17643   6.162  16.487   6.781  0.0821  0.2482 -0.0639
 1323ERGO    R117644   6.105  16.549   7.051  0.0352  0.0962 -0.0384
 1323ERGO    R217645   6.216  16.767   7.180 -0.0339  0.0566  0.0850
 1323ERGO    R317646   5.956  16.827   7.233 -0.0545 -0.0329  0.0885
 1323ERGO    R417647   6.111  16.999   7.414 -0.1004  0.1822 -0.0665
 1323ERGO    R517648   5.951  16.862   7.470 -0.0236  0.1416  0.0668
 1323ERGO    C117649   5.805  17.190   7.600 -0.1586  0.1710 -0.1515
 1323ERGO    C217650   5.794  17.392   7.841  0.1117 -0.4266  0.0714
 1324ERGO   ROH17651  13.555   4.831   6.211 -0.1829 -0.1240  0.0919
 1324ERGO    R117652  13.671   4.736   6.450 -0.1369 -0.0871  0.0838
 1324ERGO    R217653  13.858   4.880   6.593 -0.1304 -0.0545  0.0381
 1324ERGO    R317654  13.684   4.841   6.798 -0.0933 -0.0499  0.0714
 1324ERGO    R417655  13.951   4.829   6.922 -0.0667 -0.1063  0.0130
 1324ERGO    R517656  13.793   4.679   6.938 -0.0883 -0.0840  0.0299
 1324ERGO    C117657  13.842   4.762   7.306  0.0053 -0.1322  0.0296
 1324ERGO    C217658  13.876   4.746   7.610 -0.1088 -0.0511  0.1362
 1325ERGO   ROH17659   1.369   3.872   6.142 -0.0280  0.2476  0.0831
 1325ERGO    R117660   1.294   3.720   6.369 -0.0535  0.2146  0.0532
 1325ERGO    R217661   1.478   3.590   6.529 -0.0749  0.1498  0.0271
 1325ERGO    R317662   1.358   3.732   6.727 -0.0496  0.1316  0.0551
 1325ERGO    R417663   1.468   3.496   6.861 -0.0247  0.1249  0.0214
 1325ERGO    R517664   1.262   3.565   6.870 -0.0247  0.1191  0.0565
 1325ERGO    C117665   1.349   3.574   7.241  0.0282  0.0933  0.0444
 1325ERGO    C217666   1.403   3.435   7.606 -0.0402 -0.0784 -0.1942
 1326ERGO   ROH17667   4.164   2.851   6.584 -0.3493 -0.1343 -0.2554
 1326ERGO    R117668   3.985   2.783   6.792 -0.1848 -0.0754 -0.0923
 1326ERGO    R217669   4.068   2.738   7.052  0.0137  0.0620 -0.1330
 1326ERGO    R317670   3.882   2.926   7.111  0.0159  0.0498 -0.0805
 1326ERGO    R417671   3.983   2.837   7.371 -0.1265 -0.1795 -0.0928
 1326ERGO    R517672   3.774   2.844   7.308 -0.0986 -0.0936 -0.1967
 1326ERGO    C117673   3.757   3.072   7.613 -0.2061 -0.3316 -0.0201
 1326ERGO    C217674   3.877   2.968   7.874 -0.1625 -0.0252  0.2371
 1327ERGO   ROH17675   8.988   5.310   6.333  0.4159 -0.0128 -0.2689
 1327ERGO    R117676   8.945   5.216   6.597  0.1704  0.0346 -0.2919
 1327ERGO    R217677   9.149   5.190   6.781  0.0074 -0.0103 -0.1302
 1327ERGO    R317678   8.987   5.346   6.934 -0.0629  0.0575 -0.2661
 1327ERGO    R417679   9.128   5.174   7.126 -0.0739  0.1756 -0.1237
 1327ERGO    R517680   8.913   5.200   7.109 -0.0856  0.1330 -0.2004
 1327ERGO    C117681   8.964   5.311   7.470 -0.1873  0.3475 -0.2474
 1327ERGO    C217682   9.018   5.424   7.849 -0.0831 -0.4005  0.3782
 1328ERGO   ROH17683   6.041  15.697   6.541 -0.1084 -0.1897 -0.1202
 1328ERGO    R117684   6.026  15.496   6.740 -0.0483 -0.0451  0.0308
 1328ERGO    R217685   6.156  15.518   6.983 -0.1602  0.2356  0.0645
 1328ERGO    R317686   5.908  15.473   7.083 -0.1691  0.1394  0.0044
 1328ERGO    R417687   6.089  15.421   7.308 -0.1663 -0.2476 -0.0719
 1328ERGO    R517688   5.936  15.287   7.231 -0.2034 -0.1003 -0.2773
 1328ERGO    C117689   5.816  15.323   7.591 -0.1783 -0.6193 -0.2077
 1328ERGO    C217690   5.800  15.264   7.938  0.2213 -0.1505  0.1448
 1329ERGO   ROH17691   0.917  12.017   5.996  0.1686  0.1642 -0.0899
 1329ERGO    R117692   0.885  12.146   6.246  0.1106  0.0641 -0.0453
 1329ERGO    R217693   0.637  12.196   6.356  0.0863 -0.0019 -0.0721
 1329ERGO    R317694   0.741  12.064   6.570  0.0582 -0.0751 -0.1029
 1329ERGO    R417695   0.584  12.283   6.687  0.1950 -0.0020 -0.0537
 1329ERGO    R517696   0.793  12.237   6.727  0.1797 -0.1155 -0.0976
 1329ERGO    C117697   0.650  12.209   7.080  0.2320 -0.0708 -0.0721
 1329ERGO    C217698   0.545  12.251   7.448  0.1360 -0.0106 -0.0716
 1330ERGO   ROH17699  17.615  10.935   6.509 -0.0473 -0.0567 -0.1307
 1330ERGO    R117700  17.606  10.718   6.690 -0.0244  0.0012 -0.0598
 1330ERGO    R217701  17.783  10.693   6.902  0.0956 -0.0051 -0.1575
 1330ERGO    R317702  17.554  10.675   7.048  0.1744  0.1317 -0.0147
 1330ERGO    R417703  17.757  10.539   7.210  0.2145  0.1215 -0.0829
 1330ERGO    R517704  17.565  10.458   7.148  0.1506  0.1680  0.0618
 1330ERGO    C117705  17.527  10.432   7.527  0.3578  0.3237  0.0946
 1330ERGO    C217706  17.480  10.399   7.893  0.3706 -0.0058 -0.2672
 1331ERGO   ROH17707   8.478  14.953   6.453  0.2623 -0.0741 -0.0722
 1331ERGO    R117708   8.326  14.848   6.667  0.1582  0.1872 -0.0131
 1331ERGO    R217709   8.296  14.576   6.709 -0.2095  0.2306  0.0607
 1331ERGO    R317710   8.389  14.637   6.957 -0.0687  0.1694  0.0234
 1331ERGO    R417711   8.254  14.381   6.991 -0.1678  0.2379  0.0717
 1331ERGO    R517712   8.218  14.562   7.106 -0.0305  0.2422  0.0984
 1331ERGO    C117713   8.316  14.325   7.388 -0.0113  0.1846  0.0432
 1331ERGO    C217714   8.309  14.066   7.630  0.2035  0.0948  0.0489
 1332ERGO   ROH17715  10.170   4.689   6.394  0.0006 -0.2066  0.0551
 1332ERGO    R117716  10.201   4.695   6.675  0.0731 -0.0398  0.0442
 1332ERGO    R217717  10.283   4.921   6.811 -0.1606  0.1207 -0.0850
 1332ERGO    R317718  10.055   4.877   6.954 -0.0693 -0.0862  0.0027
 1332ERGO    R417719  10.221   5.046   7.127 -0.1385  0.0574 -0.0549
 1332ERGO    R517720  10.131   4.854   7.180  0.0472 -0.0306 -0.0255
 1332ERGO    C117721   9.971   5.077   7.446 -0.0399 -0.1738  0.0450
 1332ERGO    C217722  10.006   5.229   7.829 -0.1267  0.3614  0.1411
 1333ERGO   ROH17723  13.130  12.609   6.515  0.1770 -0.1453  0.0481
 1333ERGO    R117724  13.026  12.605   6.779 -0.1113  0.0354 -0.0571
 1333ERGO    R217725  13.172  12.511   6.995 -0.5277 -0.3202  0.0900
 1333ERGO    R317726  13.112  12.755   7.099 -0.1103 -0.1951  0.0517
 1333ERGO    R417727  13.170  12.589   7.332 -0.4806 -0.2797  0.0803
 1333ERGO    R517728  12.991  12.707   7.299 -0.2559  0.0481  0.0217
 1333ERGO    C117729  13.114  12.863   7.625 -0.0613 -0.1387  0.0387
 1333ERGO    C217730  13.106  12.897   7.970 -0.0981 -0.1381  0.1799
 1334ERGO   ROH17731  11.418  11.688   6.452 -0.0502 -0.2557 -0.1093
 1334ERGO    R117732  11.313  11.597   6.698  0.0010  0.0116  0.0139
 1334ERGO    R217733  11.423  11.386   6.838 -0.1230 -0.0012  0.0906
 1334ERGO    R317734  11.432  11.567   7.041  0.1673  0.1297 -0.0317
 1334ERGO    R417735  11.488  11.308   7.169 -0.2587  0.1152  0.1461
 1334ERGO    R517736  11.334  11.451   7.227 -0.0309  0.4128  0.0473
 1334ERGO    C117737  11.534  11.433   7.552 -0.0652  0.3058  0.0637
 1334ERGO    C217738  11.839  11.458   7.790  0.1833  0.1566 -0.0582
 1335ERGO   ROH17739  11.796   4.589   6.652 -0.0515 -0.0005 -0.0617
 1335ERGO    R117740  11.761   4.729   6.896  0.1476  0.0562 -0.0640
 1335ERGO    R217741  11.661   4.609   7.123 -0.1589  0.2313 -0.1015
 1335ERGO    R317742  11.889   4.705   7.236  0.0036 -0.2182 -0.0259
 1335ERGO    R417743  11.719   4.631   7.463 -0.3381  0.3394 -0.0763
 1335ERGO    R517744  11.814   4.824   7.429  0.1445  0.1055 -0.1617
 1335ERGO    C117745  11.968   4.733   7.767 -0.2901 -0.0196  0.0093
 1335ERGO    C217746  12.066   4.701   8.016  0.2855 -0.1177  0.3225
 1336ERGO   ROH17747   5.919   1.888   9.547 -0.2493 -0.1134  0.1924
 1336ERGO    R117748   6.060   1.746   9.347 -0.3193  0.1656 -0.0612
 1336ERGO    R217749   6.063   1.470   9.335  0.2153  0.1666 -0.0441
 1336ERGO    R317750   5.977   1.513   9.080 -0.3396 -0.0134  0.0968
 1336ERGO    R417751   6.095   1.243   9.076  0.4438  0.2906 -0.1286
 1336ERGO    R517752   6.145   1.410   8.944 -0.2446  0.4853 -0.1982
 1336ERGO    C117753   6.033   1.151   8.687  0.0559  0.1938 -0.0454
 1336ERGO    C217754   5.983   0.982   8.450 -0.0538  0.1226  0.0045
 1337ERGO   ROH17755  11.661  16.594   6.612  0.3475 -0.2904 -0.1326
 1337ERGO    R117756  11.542  16.625   6.867  0.2400 -0.2890 -0.1836
 1337ERGO    R217757  11.586  16.448   7.075  0.3086 -0.1765 -0.1099
 1337ERGO    R317758  11.658  16.674   7.209  0.0881 -0.0738 -0.1586
 1337ERGO    R417759  11.597  16.479   7.419  0.3712 -0.1374 -0.1144
 1337ERGO    R517760  11.512  16.679   7.399  0.1291 -0.2279 -0.1146
 1337ERGO    C117761  11.670  16.709   7.745  0.2006 -0.0183 -0.1627
 1337ERGO    C217762  11.787  16.714   8.056 -0.0640 -0.1770 -0.1408
 1338ERGO   ROH17763   1.604   4.713   6.132 -0.1344  0.0004  0.0403
 1338ERGO    R117764   1.814   4.671   6.317 -0.1371  0.1396  0.0740
 1338ERGO    R217765   1.795   4.744   6.582 -0.3266 -0.0960  0.1214
 1338ERGO    R317766   1.862   4.484   6.626  0.0191 -0.0444 -0.0560
 1338ERGO    R417767   1.922   4.620   6.879 -0.1857 -0.1185  0.0533
 1338ERGO    R517768   2.059   4.495   6.762  0.0009  0.1366 -0.0297
 1338ERGO    C117769   2.059   4.304   7.092  0.2209 -0.0832 -0.1529
 1338ERGO    C217770   2.251   4.254   7.527 -0.2452  0.1010 -0.2776
 1339ERGO   ROH17771  15.151   7.332   6.528  0.1211  0.2907  0.0700
 1339ERGO    R117772  14.955   7.345   6.732  0.0883  0.1092  0.0522
 1339ERGO    R217773  14.993   7.234   6.982  0.1171  0.0352  0.0150
 1339ERGO    R317774  14.932   7.484   7.068 -0.0278 -0.0288  0.1027
 1339ERGO    R417775  14.901   7.315   7.305  0.2588 -0.1066  0.0923
 1339ERGO    R517776  14.753   7.453   7.223  0.0947 -0.2052  0.2134
 1339ERGO    C117777  14.790   7.598   7.573  0.2053 -0.2492  0.2198
 1339ERGO    C217778  14.772   7.736   7.968 -0.0973 -0.0748  0.1963
 1340ERGO   ROH17779  14.928  15.432   6.161  0.1767 -0.0284 -0.1033
 1340ERGO    R117780  14.873  15.532   6.420  0.1990 -0.0902 -0.0750
 1340ERGO    R217781  14.708  15.401   6.599  0.1523 -0.0931 -0.1227
 1340ERGO    R317782  14.923  15.421   6.763  0.1524 -0.2104 -0.1064
 1340ERGO    R417783  14.696  15.377   6.943  0.1090 -0.0560 -0.1208
 1340ERGO    R517784  14.841  15.539   6.954  0.2081 -0.1423 -0.1233
 1340ERGO    C117785  14.892  15.382   7.298  0.0838 -0.1443 -0.1045
 1340ERGO    C217786  14.982  14.988   7.357  0.1823  0.0439  0.0448
 1341ERGO   ROH17787   8.774  14.652   6.391  0.2401 -0.2579  0.0973
 1341ERGO    R117788   8.711  14.513   6.629  0.2848 -0.3448  0.0588
 1341ERGO    R217789   8.880  14.325   6.742  0.5477 -0.0073  0.2367
 1341ERGO    R317790   8.854  14.482   6.963  0.0456 -0.0195  0.2000
 1341ERGO    R417791   8.876  14.208   7.067  0.4522  0.0083  0.2416
 1341ERGO    R517792   8.718  14.352   7.111  0.1311 -0.2658  0.0782
 1341ERGO    C117793   8.850  14.286   7.463 -0.0747  0.0058  0.2098
 1341ERGO    C217794   9.033  14.357   7.686 -0.1344 -0.0861  0.1439
 1342ERGO   ROH17795  11.653   2.571   6.382 -0.3772  0.1193  0.1122
 1342ERGO    R117796  11.586   2.633   6.650 -0.3065 -0.1964  0.2081
 1342ERGO    R217797  11.612   2.451   6.856  0.3396 -0.2616  0.0963
 1342ERGO    R317798  11.760   2.648   6.969 -0.0520  0.0651  0.0604
 1342ERGO    R417799  11.619   2.524   7.194  0.2092 -0.1845  0.0823
 1342ERGO    R517800  11.620   2.736   7.143 -0.2227 -0.1854  0.0489
 1342ERGO    C117801  11.762   2.751   7.497 -0.2343  0.1671  0.0405
 1342ERGO    C217802  11.857   2.841   7.744 -0.1763  0.2118  0.0045
 1343ERGO   ROH17803   8.478   4.263   6.268 -0.0599 -0.0545 -0.1562
 1343ERGO    R117804   8.330   4.278   6.509 -0.1225 -0.0733 -0.1922
 1343ERGO    R217805   8.315   4.067   6.687 -0.0743 -0.0504 -0.1544
 1343ERGO    R317806   8.402   4.253   6.865 -0.1916  0.0213 -0.1726
 1343ERGO    R417807   8.346   4.016   7.028 -0.2089  0.0659 -0.1243
 1343ERGO    R517808   8.267   4.216   7.060 -0.2644  0.0556 -0.2197
 1343ERGO    C117809   8.445   4.160   7.393 -0.3975  0.2009 -0.1240
 1343ERGO    C217810   8.568   4.276   7.706 -0.1136  0.1936  0.0865
 1344ERGO   ROH17811   3.610  12.136   6.315 -0.1951  0.0403 -0.0714
 1344ERGO    R117812   3.668  11.984   6.547 -0.0948  0.0151 -0.1131
 1344ERGO    R217813   3.523  12.009   6.781  0.0169 -0.0004 -0.0458
 1344ERGO    R317814   3.494  11.740   6.753 -0.0096  0.0025 -0.0533
 1344ERGO    R417815   3.555  11.779   7.037 -0.0772  0.0028 -0.0303
 1344ERGO    R517816   3.660  11.647   6.899 -0.0548 -0.0137 -0.0058
 1344ERGO    C117817   3.547  11.394   7.160 -0.1569  0.0074 -0.0282
 1344ERGO    C217818   3.536  11.228   7.447  0.0290 -0.0537 -0.0371
 1345W        W17819  11.416   0.948   0.933  0.0550 -0.0808 -0.0681
 1346W        W17820  16.766   2.179   0.289 -0.0413  0.0976 -0.0399
 1347W        W17821   9.755   1.759   0.604 -0.2823  0.0171 -0.2833
 1348W        W17822   1.386  14.252  14.823 -0.2461  0.0482 -0.1108
 1349W        W17823   1.905  12.113   5.004  0.1250  0.0162  0.0170
 1350W        W17824   2.493  13.089  10.834 -0.2229 -0.0326  0.0391
 1351W        W17825   2.570   4.175   0.368  0.1475 -0.0385 -0.1895
 1352W        W17826   7.665  11.154   4.615  0.0128 -0.0545  0.0351
 1353W        W17827   8.116   0.904   4.235  0.0160  0.2685  0.2279
 1354W        W17828  17.689   2.113   2.519 -0.5493  0.2393 -0.2053
 1355W        W17829   1.618   2.240   2.629 -0.0239  0.1295  0.0678
 1356W        W17830   3.431   8.972  16.029  0.4031  0.0210 -0.3526
 1357W        W17831  11.586   5.255   3.763 -0.0875 -0.0739  0.3357
 1358W        W17832  16.748   7.299   1.505 -0.1731 -0.1722  0.1885
 1359W        W17833   4.856  17.389   1.089 -0.0005  0.3129  0.0185
 1360W        W17834   7.341  13.957   3.068  0.3897 -0.0502 -0.0993
 1361W        W17835   3.389   0.139   4.762  0.2110 -0.2410  0.4111
 1362W        W17836  14.785   3.056   1.479 -0.2042 -0.2942  0.3017
 1363W        W17837  15.890  16.425   1.169 -0.1924 -0.3830 -0.2579
 1364W        W17838  13.275   2.363   4.339 -0.1172 -0.1835 -0.1388
 1365W        W17839  14.866  14.548   3.378 -0.1682  0.0228  0.3684
 1366W        W17840   0.303  12.642  14.728 -0.0123 -0.1094 -0.0334
 1367W        W17841  13.794   1.423  14.182 -0.0916 -0.1315  0.1378
 1368W        W17842   0.720   6.076  15.146  0.0917  0.1864  0.3454
 1369W        W17843   1.201  16.590   3.967 -0.0105 -0.0314 -0.1289
 1370W        W17844  12.583  14.116  12.688  0.1045 -0.0206  0.0172
 1371W        W17845   3.958  10.469   1.252 -0.0595  0.1804 -0.2116
 1372W        W17846  13.224   2.777   5.318 -0.2591  0.3539 -0.2907
 1373W        W17847   3.319  12.130   5.433  0.2861 -0.2336 -0.0208
 1374W        W17848  17.179   1.812   3.384  0.1808 -0.2412 -0.1655
 1375W        W17849   2.500   1.056   3.022  0.0006  0.0461 -0.1407
 1376W        W17850  18.065  11.802   4.974  0.2149 -0.1117  0.0062
 1377W        W17851  13.515   5.279   5.047 -0.2067  0.1231 -0.2910
 1378W        W17852  17.991  16.606   4.713 -0.0317 -0.1799 -0.2712
 1379W        W17853  14.669   9.042  15.616  0.0473  0.0544  0.1673
 1380W        W17854   4.207   5.850   5.035  0.1072 -0.1493 -0.1763
 1381W        W17855  10.674  14.213  11.214  0.0453 -0.0323  0.0788
 1382W        W17856   7.844  15.527   1.916 -0.1496  0.1577  0.1817
 1383W        W17857  15.742   7.419   2.977 -0.0775  0.1678  0.0211
 1384W        W17858  14.540   1.910   0.772  0.0216  0.0821  0.1372
 1385W        W17859   9.320   5.496   2.724  0.0701 -0.1505  0.0246
 1386W        W17860   7.588   5.165  12.250  0.1485  0.0683  0.1419
 1387W        W17861   4.260   4.394   1.424  0.7376 -0.1132  0.3571
 1388W        W17862  12.892  15.901   3.961  0.1109  0.0400 -0.0073
 1389W        W17863  15.932   3.295  12.194 -0.1877  0.2891 -0.2366
 1390W        W17864  16.534  10.680   4.412  0.1610  0.0946  0.1551
 1391W        W17865  13.510   2.610  12.752 -0.0300  0.0045  0.3309
 1392W        W17866  16.976   7.368   2.570 -0.1362 -0.0026  0.1703
 1393W        W17867  16.988   6.301   0.155  0.0696  0.0549  0.2211
 1394W        W17868  10.578   7.215  11.766  0.2330 -0.0493 -0.0623
 1395W        W17869  13.203  17.958   1.205  0.1434  0.1687 -0.2509
 1396W        W17870  13.522  13.533  12.852  0.0390 -0.4078 -0.1731
 1397W        W17871   7.782   4.592  15.112 -0.2112 -0.0183  0.2864
 1398W        W17872   4.897   4.615  13.144  0.1143  0.1466 -0.0217
 1399W        W17873  10.176  13.000   1.605 -0.0467 -0.3283 -0.0824
 1400W        W17874   5.435   8.297  11.692  0.1858  0.0764  0.1967
 1401W        W17875   8.728   6.734   2.356  0.2559  0.1958 -0.0213
 1402W        W17876   6.383  11.723   1.998 -0.3593  0.1981  0.1249
 1403W        W17877  12.361  16.199  12.956  0.1242 -0.1346  0.0439
 1404W        W17878   4.538  15.734   0.412 -0.0183  0.1160  0.0523
 1405W        W17879  11.132  12.943   2.300  0.0120 -0.0814 -0.1142
 1406W        W17880   3.387   1.152   5.079 -0.0766 -0.2815  0.4560
 1407W        W17881  13.712  18.062   1.108  0.0052  0.0431 -0.0909
 1408W        W17882   0.861   9.933   0.637  0.2330 -0.0422  0.0424
 1409W        W17883  15.043   9.752   4.626 -0.0258  0.0015 -0.1429
 1410W        W17884   9.948  17.355   2.065 -0.2764  0.3754  0.0466
 1411W        W17885   6.882   4.223   0.792 -0.0828  0.0589  0.2106
 1412W        W17886   8.818   8.461  16.107 -0.1013  0.0023  0.0836
 1413W        W17887   8.854  17.062   4.399  0.2844  0.0510  0.2608
 1414W        W17888   7.239   2.335  13.113 -0.3429  0.0498 -0.0136
 1415W        W17889  10.679  10.040  15.745 -0.4124 -0.0657 -0.1611
 1416W        W17890   9.801   4.830  16.003 -0.0430  0.3223  0.2075
 1417W        W17891  13.876  11.005  11.979 -0.2695  0.1201  0.1879
 1418W        W17892  10.606  13.348   1.013  0.1918  0.1308 -0.0479
 1419W        W17893  12.708  14.569   2.978 -0.1344  0.1603 -0.0816
 1420W        W17894   0.278   8.205   1.826 -0.0755 -0.0646  0.0681
 1421W        W17895   3.817   8.286   2.002  0.1651 -0.0230  0.0733
 1422W        W17896   7.514  12.211   1.734  0.0818  0.0811 -0.0690
 1423W        W17897  13.583  16.854  15.101  0.2281  0.0155  0.3159
 1424W        W17898   8.821  11.230  14.470 -0.1331 -0.1431  0.3094
 1425W        W17899   7.885   4.714  13.487  0.4844  0.0822  0.2533
 1426W        W17900  10.311  10.436  15.010  0.0373 -0.0788 -0.0547
 1427W        W17901  10.247   2.235   1.558 -0.0685 -0.2258 -0.1075
 1428W        W17902   7.363  16.886  12.907  0.1561 -0.2428 -0.1579
 1429W        W17903  16.589  17.756  15.978 -0.0537 -0.2119  0.1372
 1430W        W17904   9.224   6.917  11.854  0.0476  0.0822 -0.1220
 1431W        W17905   4.487   7.699   4.421  0.1164 -0.0904 -0.1145
 1432W        W17906  12.849   0.921   2.848 -0.2391 -0.1360 -0.1405
 1433W        W17907  11.843   8.880  15.232  0.0768 -0.0645  0.3370
 1434W        W17908  14.940  17.776  12.718 -0.2639 -0.1396  0.0895
 1435W        W17909   8.770   9.102   2.356 -0.0348  0.0031  0.0037
 1436W        W17910  17.157  14.757  13.150 -0.0910 -0.0847  0.1512
 1437W        W17911   9.383   3.589  16.083  0.2410 -0.3755  0.2835
 1438W        W17912  11.243   2.413   1.750  0.0991  0.1353  0.0354
 1439W        W17913   0.811   2.450   0.913 -0.0890 -0.4289  0.2887
 1440W        W17914  16.960   8.337  14.543 -0.1033  0.0974  0.0759
 1441W        W17915  18.173  13.300   1.025  0.0181  0.0920 -0.3788
 1442W        W17916   6.840   3.555  15.975 -0.3809 -0.0788  0.1411
 1443W        W17917   7.882  12.438   1.959 -0.1244  0.0630 -0.0299
 1444W        W17918   7.878   3.941   3.208  0.1485 -0.4291  0.3159
 1445W        W17919  11.756   8.106   3.099  0.0018 -0.0787 -0.3610
 1446W        W17920  11.435  17.670   1.888 -0.0315  0.0923  0.1032
 1447W        W17921   9.030  16.516   4.162 -0.4397 -0.1702 -0.0926
 1448W        W17922   8.823   0.850  16.068 -0.0323 -0.0402  0.0515
 1449W        W17923   8.142   8.488  11.174 -0.0568  0.0382  0.1591
 1450W        W17924   4.704  17.443  13.195 -0.2448  0.0031 -0.0484
 1451W        W17925  15.954  12.364   1.970  0.1608  0.0898 -0.0263
 1452W        W17926   4.554  16.030   3.825  0.1779  0.0925 -0.1848
 1453W        W17927   0.422  11.180   0.641  0.0133 -0.4551 -0.1156
 1454W        W17928  15.257  10.001  13.547 -0.1206  0.0683 -0.0383
 1455W        W17929  14.525   3.302   5.194 -0.0773 -0.1915  0.1226
 1456W        W17930   0.955   4.658  14.591  0.0405 -0.2318 -0.1299
 1457W        W17931   4.261   1.279   1.628  0.2597 -0.2496 -0.0946
 1458W        W17932  10.734  16.180   2.400 -0.1092  0.2228 -0.0115
 1459W        W17933   9.258   9.675   2.133  0.1637  0.0150 -0.0390
 1460W        W17934  14.332  14.252  13.811 -0.1206 -0.0041 -0.0305
 1461W        W17935   1.495   6.079  13.399 -0.2558  0.0568 -0.0599
 1462W        W17936  12.080  12.729   4.568  0.1214  0.1001 -0.0822
 1463W        W17937   9.488   1.288   0.319  0.0535 -0.1546 -0.0492
 1464W        W17938  15.402   8.064   6.081 -0.0556  0.0641  0.0527
 1465W        W17939  14.970   6.890   4.687  0.0369 -0.0207  0.0234
 1466W        W17940  16.359   9.754   5.091  0.0393 -0.2539  0.0470
 1467W        W17941  13.394   1.159  15.045  0.1053  0.2086  0.2534
 1468W        W17942   6.314  10.452   4.507  0.2535  0.0199  0.0997
 1469W        W17943  11.111   6.942  13.430 -0.0636  0.2232 -0.0001
 1470W        W17944   7.293   9.364  11.378 -0.2157 -0.2089  0.0437
 1471W        W17945  17.190   3.116  13.378 -0.2261  0.0014  0.0984
 1472W        W17946  13.920  14.542   0.445 -0.0361  0.0426  0.2175
 1473W        W17947   5.124   1.377  12.106 -0.0648 -0.2583  0.1280
 1474W        W17948   6.222  13.799   0.274 -0.0483 -0.2223  0.1773
 1475W        W17949   0.250   9.742  15.247 -0.0583 -0.2045 -0.1644
 1476W        W17950   8.725  14.181  13.163  0.0544  0.0944 -0.0769
 1477W        W17951   0.788   0.169  15.962 -0.1707 -0.1024  0.1475
 1478W        W17952   7.877  12.721   4.271  0.1314 -0.2147  0.0668
 1479W        W17953  10.502  12.904  15.299 -0.0475 -0.2939 -0.3723
 1480W        W17954   3.631   4.237  15.792 -0.1737 -0.0351  0.2148
 1481W        W17955   8.715  14.091  11.619  0.0429 -0.0574  0.3052
 1482W        W17956  15.633  14.086   2.932  0.1023  0.3372 -0.1344
 1483W        W17957  13.223  11.750   5.210  0.0028  0.0918  0.0472
 1484W        W17958   7.679  17.872   5.444 -0.2372 -0.2216 -0.3698
 1485W        W17959   2.102   9.482   6.250 -0.3065  0.0104  0.0278
 1486W        W17960   0.799   8.916   2.145 -0.0441 -0.1958 -0.2007
 1487W        W17961  16.505   0.183  15.118 -0.2117  0.0647 -0.2055
 1488W        W17962  12.296  13.490  13.244  0.0773  0.2407  0.1650
 1489W        W17963   8.561  10.112  14.924  0.1429 -0.1829 -0.4017
 1490W        W17964   0.791  11.210   2.349  0.3243 -0.0344  0.0733
 1491W        W17965  13.396   6.301  11.323  0.1818 -0.1779  0.0415
 1492W        W17966  11.626   2.932   4.039  0.1308 -0.0200 -0.0642
 1493W        W17967   2.859   2.878  11.645 -0.1520  0.1138  0.1083
 1494W        W17968   1.820  12.950  16.137  0.0417 -0.3883 -0.0478
 1495W        W17969  13.609  16.867  12.067 -0.0422 -0.0357 -0.1762
 1496W        W17970  10.775  17.334  14.476  0.3579 -0.1107  0.1082
 1497W        W17971   8.582   4.071   5.817  0.0368  0.4921 -0.0549
 1498W        W17972  13.002   3.819   3.748  0.1325  0.0390 -0.1818
 1499W        W17973   5.173  10.623   1.774  0.1857 -0.2867  0.1474
 1500W        W17974   2.963   4.399   4.050  0.1223 -0.0047  0.0986
 1501W        W17975  14.286  17.365  11.213  0.1020  0.0540 -0.0841
 1502W        W17976  17.410   6.973  12.090  0.3237 -0.1989 -0.2355
 1503W        W17977  10.983  16.616   2.662 -0.1326 -0.1667  0.0461
 1504W        W17978   9.914   6.062   4.852  0.0251 -0.0167 -0.0964
 1505W        W17979   0.847  12.999   1.947 -0.0594 -0.1450 -0.0079
 1506W        W17980   5.677   0.252  13.489  0.0925  0.0713 -0.0489
 1507W        W17981   0.409   5.675  12.489 -0.3590  0.0431 -0.3508
 1508W        W17982  10.313  14.104  15.041  0.1709  0.0858 -0.1780
 1509W        W17983   3.488   4.728   2.104  0.2283 -0.3878  0.2444
 1510W        W17984  16.575  12.933   5.582 -0.1871  0.2935 -0.0274
 1511W        W17985   6.134   1.212  13.737  0.2583 -0.1301  0.0776
 1512W        W17986   4.996  11.479  16.144  0.2718 -0.1963 -0.1808
 1513W        W17987   6.059   2.372  12.487 -0.1032 -0.1913 -0.1370
 1514W        W17988  17.268   7.554  11.968  0.0873  0.1184 -0.0229
 1515W        W17989  13.461   3.589   1.064  0.2102  0.0547 -0.0431
 1516W        W17990   0.432   0.570  15.799 -0.1612 -0.0550  0.0354
 1517W        W17991   9.195   5.025  12.608 -0.1667 -0.0329  0.0370
 1518W        W17992  12.786   2.117  12.246 -0.0229  0.0556 -0.1872
 1519W        W17993   6.106  13.068  14.869 -0.1440 -0.0211  0.0316
 1520W        W17994   4.930  16.366  12.070  0.4268  0.1691  0.2781
 1521W        W17995   6.250  10.300  12.214  0.1727 -0.2448 -0.0417
 1522W        W17996  11.524   9.892  15.785  0.3805  0.3195  0.0620
 1523W        W17997   2.977   1.910   1.882 -0.2888  0.0766 -0.0658
 1524W        W17998   6.983  17.390  15.581  0.0592  0.2208  0.2463
 1525W        W17999   8.538  17.945   0.535 -0.1172  0.0836  0.1879
 1526W        W18000   5.457  10.269   2.786 -0.0246  0.1891  0.0426
 1527W        W18001   9.588   7.510  12.412  0.1375  0.1787 -0.0742
 1528W        W18002  12.229   9.824   0.736 -0.0557  0.3109 -0.0650
 1529W        W18003  16.250  11.278   5.035 -0.1101 -0.2324 -0.2029
 1530W        W18004   9.824  18.172  14.457 -0.2509  0.0628 -0.0310
 1531W        W18005  13.538  14.389   1.662  0.2069  0.1318 -0.1426
 1532W        W18006   2.792  16.227  12.612  0.0837  0.0360  0.0368
 1533W        W18007   8.650  13.365   0.559  0.1353  0.0273  0.2249
 1534W        W18008  17.093   6.740  15.340 -0.1110  0.1175 -0.1563
 1535W        W18009   0.950   2.184  12.151 -0.0305  0.1772 -0.2285
 1536W        W18010  10.010   6.577   1.032  0.0380 -0.3034  0.1645
 1537W        W18011   2.640   3.742  16.362  0.1035 -0.0989 -0.3039
 1538W        W18012   6.202   8.920   1.431 -0.0694  0.1226  0.0071
 1539W        W18013  15.038   1.572   1.496 -0.0448 -0.1833  0.0488
 1540W        W18014  17.423   6.501   4.830  0.1136  0.1075  0.2558
 1541W        W18015   3.407   8.380   0.159  0.0334 -0.0691 -0.1218
 1542W        W18016   8.177   9.612   3.554 -0.0129  0.1995 -0.0065
 1543W        W18017  16.394   6.747   4.138 -0.1611  0.0619  0.1579
 1544W        W18018   0.921   5.977  13.943 -0.2070 -0.0133  0.2561
 1545W        W18019  10.699   0.134   5.684  0.1407  0.3801 -0.3825
 1546W        W18020   7.647   3.216   1.403 -0.1510  0.2344 -0.0465
 1547W        W18021   6.035   7.823  15.906  0.0438  0.1922  0.3132
 1548W        W18022   3.728   2.853  12.815 -0.2460  0.0877 -0.1015
 1549W        W18023   8.965   1.804   2.189  0.0447  0.1138 -0.2623
 1550W        W18024   2.249  12.636   5.685 -0.1650  0.2460  0.3712
 1551W        W18025   7.560   6.227   0.535 -0.3405 -0.4024 -0.4010
 1552W        W18026   1.697   7.012   4.142  0.1385 -0.1309  0.1094
 1553W        W18027  14.089  11.098   0.422 -0.2335  0.0374 -0.0945
 1554W        W18028  17.290   7.566  13.408 -0.1323  0.3988 -0.3162
 1555W        W18029   8.719  11.431   2.392  0.0733 -0.1967 -0.1647
 1556W        W18030   2.258  11.552  14.898 -0.0545 -0.0716 -0.1843
 1557W        W18031  15.565  10.718  12.743  0.0133  0.0105 -0.1994
 1558W        W18032  18.166   6.551  11.623 -0.1704  0.0115  0.0846
 1559W        W18033  15.581   2.546  15.245  0.3110 -0.1141  0.2526
 1560W        W18034   5.804   8.029   4.460  0.1533  0.4094  0.0083
 1561W        W18035  11.445   2.866  12.004  0.0431  0.0609  0.0834
 1562W        W18036   0.240   3.675   1.925  0.2433 -0.1542 -0.1382
 1563W        W18037   1.849  14.264   4.219  0.0427  0.0925  0.0397
 1564W        W18038  17.946   3.214  15.179 -0.1300  0.0661 -0.3137
 1565W        W18039   7.021   0.297   1.963  0.0749 -0.1124 -0.1246
 1566W        W18040  10.625  11.806  11.294  0.1039 -0.1184 -0.0754
 1567W        W18041   6.679   7.126   1.955  0.2513  0.0431 -0.2576
 1568W        W18042   4.366   7.838  12.543  0.0183  0.2551 -0.1990
 1569W        W18043  17.925   7.727   2.119  0.0578 -0.1688 -0.0423
 1570W        W18044  14.359   4.258  12.744 -0.1784  0.1886 -0.0436
 1571W        W18045  15.585   6.992  11.662  0.2429  0.0749 -0.0319
 1572W        W18046   1.943   8.709  14.528  0.1002  0.0746  0.0289
 1573W        W18047   4.555  13.773  16.210  0.1532  0.1003  0.3060
 1574W        W18048   3.510  12.836  14.151 -0.1936 -0.1789  0.0005
 1575W        W18049   0.077  17.492   4.826 -0.1016  0.0456 -0.2139
 1576W        W18050  14.247   3.905   3.694 -0.0064  0.0535 -0.0209
 1577W        W18051  17.062  13.511  15.695  0.0328 -0.1327 -0.2466
 1578W        W18052   8.271  15.330   4.696 -0.0312 -0.1973  0.0287
 1579W        W18053  14.284   1.360   5.491  0.2313 -0.1587 -0.2982
 1580W        W18054   8.092  12.126   4.780  0.1663  0.1135  0.0341
 1581W        W18055   4.135   6.236   4.713  0.1188  0.1402 -0.1349
 1582W        W18056   3.162   8.509   3.578 -0.0470  0.2411  0.0828
 1583W        W18057   6.305  14.996   0.740  0.0822  0.1731 -0.0384
 1584W        W18058   7.882   2.913  13.399  0.4387  0.2808  0.0048
 1585W        W18059  10.880   2.075  11.962  0.0326 -0.0219 -0.2092
 1586W        W18060   2.973  12.826   2.176 -0.3632  0.1473 -0.0878
 1587W        W18061   5.363  17.790  13.569 -0.1244 -0.0790  0.1913
 1588W        W18062  11.333   8.247  13.681 -0.1918 -0.0726 -0.1455
 1589W        W18063   9.896  11.223  11.760 -0.2478 -0.3125  0.0922
 1590W        W18064  12.383   2.126  13.692  0.2614  0.0117 -0.0687
 1591W        W18065  14.049   1.266   5.027  0.0275  0.1671 -0.0506
 1592W        W18066  12.649  11.242  11.227  0.0453 -0.0777 -0.0417
 1593W        W18067   9.358   4.591  14.528  0.1683 -0.1032  0.2110
 1594W        W18068   0.429   8.772  12.076  0.4038  0.0292  0.1603
 1595W        W18069   2.904  17.923  15.711  0.1178  0.0312  0.1538
 1596W        W18070  10.816   9.773  15.066  0.1170  0.1821 -0.1580
 1597W        W18071   1.578   2.483  15.965 -0.1008 -0.0874  0.2048
 1598W        W18072   4.433  15.240   2.403 -0.1505 -0.0297  0.1497
 1599W        W18073  10.572  12.528  11.844  0.1918 -0.0286  0.2813
 1600W        W18074   0.884   1.707   3.897  0.2816  0.0295 -0.1403
 1601W        W18075   3.932   7.956  14.206  0.1046 -0.1343 -0.0667
 1602W        W18076  16.697  17.101  12.536 -0.1122  0.0711 -0.1262
 1603W        W18077   1.198   4.974   3.159  0.1300 -0.0365  0.0106
 1604W        W18078  13.435   8.409   5.129  0.1118 -0.0555 -0.0733
 1605W        W18079  11.126  10.468   1.225 -0.0396 -0.2294 -0.0844
 1606W        W18080   3.620  15.107  15.749 -0.0431 -0.1042 -0.3568
 1607W        W18081  14.791   4.999   1.343  0.2740 -0.1328 -0.1192
 1608W        W18082  16.494   4.494   5.367  0.0519 -0.0713  0.1448
 1609W        W18083   0.710  10.533  12.774  0.2036 -0.0970 -0.0249
 1610W        W18084   4.209  13.869   1.718 -0.0581  0.2957  0.0484
 1611W        W18085   9.136  13.994  11.160 -0.0524  0.2214 -0.2039
 1612W        W18086  14.547   9.410  12.565 -0.0786  0.1751  0.2384
 1613W        W18087  13.318  17.905   2.644 -0.0356  0.2815  0.1157
 1614W        W18088   9.796   8.463  11.943 -0.1771 -0.2639  0.1771
 1615W        W18089  12.363   9.026   2.102 -0.4231  0.0460 -0.1194
 1616W        W18090   4.571  15.266  13.618 -0.2263  0.1935  0.1830
 1617W        W18091   9.489   1.236  12.531  0.0959 -0.2093 -0.2105
 1618W        W18092  14.050   3.073   0.444  0.4410 -0.0670 -0.2185
 1619W        W18093  13.597  14.209   4.411 -0.1453  0.2005  0.0738
 1620W        W18094   4.737   9.816   2.767 -0.1214  0.0429  0.0547
 1621W        W18095   9.929   1.226   3.342 -0.2539 -0.1003  0.1790
 1622W        W18096   1.869  10.368  16.238  0.1805  0.1717 -0.0097
 1623W        W18097   2.232  17.083   2.856 -0.3684 -0.0944  0.1723
 1624W        W18098  15.313   6.854   2.474 -0.4544 -0.4001  0.2357
 1625W        W18099  12.461   7.197   1.960 -0.2421  0.3006  0.3168
 1626W        W18100  12.169   6.810  13.557 -0.1167  0.1384 -0.1022
 1627W        W18101   1.243   5.840  12.836  0.2654  0.0133  0.2505
 1628W        W18102  11.411   0.492  13.236 -0.1469 -0.0577 -0.2672
 1629W        W18103  15.865   1.370   3.398 -0.0970  0.0790 -0.2466
 1630W        W18104   4.335  13.587  13.270  0.2313  0.0253 -0.1409
 1631W        W18105   6.330   5.353   2.888 -0.0802  0.1507 -0.2019
 1632W        W18106  15.513   9.225   1.471  0.0036  0.0505 -0.0503
 1633W        W18107   3.450  17.929  15.814 -0.2280 -0.1670 -0.0580
 1634W        W18108  15.037   4.788  13.737  0.0841 -0.0314 -0.0311
 1635W        W18109  13.127   0.137   2.419  0.2072  0.0791  0.0509
 1636W        W18110  17.097  14.570  14.038  0.1059 -0.0788 -0.1029
 1637W        W18111  12.444   2.169  12.721 -0.1616  0.0274  0.2953
 1638W        W18112   2.571  12.053  13.818  0.0690  0.0763  0.1375
 1639W        W18113   0.432  16.612  15.010  0.0636  0.1749  0.1131
 1640W        W18114   1.265   4.393  14.897 -0.4541 -0.1738  0.0484
 1641W        W18115  15.715  17.645   4.349 -0.0127 -0.0455 -0.2526
 1642W        W18116  16.160  13.690  14.938  0.1145 -0.1771 -0.1892
 1643W        W18117  15.585   7.504   4.886 -0.0611  0.1826  0.2396
 1644W        W18118   9.646  10.114  12.637 -0.1349 -0.1141  0.2357
 1645W        W18119  13.040   5.642  16.201  0.0666 -0.2619 -0.0380
 1646W        W18120   4.843   8.736   5.001  0.2575  0.1987  0.0356
 1647W        W18121  13.364  11.833  14.015  0.1143  0.1689  0.1912
 1648W        W18122   5.457  12.040  15.984 -0.0729 -0.0716  0.0478
 1649W        W18123  17.978  10.991   4.392 -0.1751 -0.2296  0.2646
 1650W        W18124   3.109   4.172   1.295  0.0415 -0.3280 -0.1353
 1651W        W18125   0.653   9.341  12.085  0.3043 -0.2130  0.0125
 1652W        W18126   6.781  10.679  16.209  0.2322  0.4449 -0.4193
 1653W        W18127   4.682   5.730   3.970  0.0052 -0.1959 -0.3431
 1654W        W18128  11.844  14.064  13.374  0.1484  0.0216 -0.0444
 1655W        W18129   3.542   0.199   3.714  0.0202 -0.1025  0.2551
 1656W        W18130  14.090   1.214   4.495 -0.3720 -0.2384  0.0426
 1657W        W18131  13.802  14.247  11.780  0.0867 -0.0672 -0.3158
 1658W        W18132  15.030   3.695  12.029 -0.1284  0.1674  0.1917
 1659W        W18133   1.362  16.885  14.039 -0.2399 -0.0039 -0.0283
 1660W        W18134   2.313   4.490   0.731 -0.1813 -0.0343  0.0176
 1661W        W18135   7.203  13.394  13.887 -0.2300 -0.0680 -0.1042
 1662W        W18136  17.531  13.700  14.465  0.0472  0.0846  0.3002
 1663W        W18137  17.003  17.070   5.554  0.0907  0.0923  0.1882
 1664W        W18138  10.270   8.946  14.378  0.2778 -0.2079  0.3384
 1665W        W18139  15.044  16.579   1.490 -0.0122  0.0216 -0.0728
 1666W        W18140   6.853   1.491   1.547  0.1011  0.0452 -0.2102
 1667W        W18141  11.344   1.671   2.981  0.2153 -0.0714 -0.0302
 1668W        W18142  11.619   8.009  15.664  0.2405 -0.0641  0.3920
 1669W        W18143  13.708   9.211  12.675 -0.0506  0.1753  0.2108
 1670W        W18144   8.605   8.840   3.098 -0.1110  0.0544  0.1490
 1671W        W18145   3.545   2.151   4.373  0.2338  0.0881 -0.2625
 1672W        W18146  12.879  14.968   3.211  0.2778  0.0906 -0.1894
 1673W        W18147   0.755  10.939  15.664 -0.0433  0.1337  0.1804
 1674W        W18148   3.008   6.051   0.444 -0.0117 -0.0208  0.2708
 1675W        W18149  17.576   9.208   1.362 -0.1661  0.1038  0.0816
 1676W        W18150   6.198  17.711  14.647 -0.3832  0.1650 -0.5232
 1677W        W18151   7.037   7.440  12.508 -0.2836  0.1041 -0.1439
 1678W        W18152   6.565   4.636  13.230  0.3811 -0.2076  0.0110
 1679W        W18153  12.039   6.441  14.976  0.2591 -0.0226 -0.1678
 1680W        W18154   9.943   8.758  12.334  0.2245 -0.0479 -0.1840
 1681W        W18155   8.280  14.771   4.769  0.0748  0.1084  0.0514
 1682W        W18156   8.561   8.901  14.603  0.0503 -0.3497  0.2635
 1683W        W18157   4.281   3.176   0.600  0.0814 -0.1255  0.2266
 1684W        W18158  13.564   0.568   3.254  0.3279  0.2351  0.1919
 1685W        W18159   3.347   8.504  15.877 -0.4270 -0.1852 -0.0070
 1686W        W18160   3.791  16.059   3.556 -0.5241 -0.0718 -0.4951
 1687W        W18161  10.259  13.197   2.661 -0.0914 -0.0633  0.2009
 1688W        W18162   8.315   0.048   0.870  0.1884  0.0734  0.2672
 1689W        W18163   0.205   3.704   0.782 -0.0270 -0.1644 -0.0733
 1690W        W18164   5.042  10.556   2.379 -0.0168 -0.0222  0.2001
 1691W        W18165  17.763  15.294  15.587 -0.0612 -0.1044  0.0235
 1692W        W18166  14.439  17.037   5.135 -0.1199 -0.0705 -0.2436
 1693W        W18167   7.956   8.495  15.267 -0.1599  0.0419  0.0021
 1694W        W18168   0.957   3.413   5.584  0.2370  0.0447 -0.1320
 1695W        W18169   4.577  16.514  12.506  0.1560 -0.0316  0.1351
 1696W        W18170  18.085   7.823  12.934 -0.1271  0.1069  0.0065
 1697W        W18171  13.539   8.593   3.218  0.0819  0.0342 -0.1692
 1698W        W18172  10.466   2.815  14.876  0.0655  0.3564 -0.2719
 1699W        W18173   9.994  17.801  14.174  0.2645 -0.0072  0.3067
 1700W        W18174   5.605   2.517  13.933  0.1905 -0.0285  0.0464
 1701W        W18175   1.136  11.364  14.887  0.3588 -0.0054  0.0517
 1702W        W18176  16.647  17.382   1.005  0.2946  0.4643  0.1050
 1703W        W18177  17.075  15.329  14.234  0.1499  0.0399 -0.0079
 1704W        W18178  17.030   0.353   0.507 -0.2326 -0.1551  0.0199
 1705W        W18179   0.881  11.707   2.434  0.2067 -0.1852  0.0505
 1706W        W18180   4.065   8.882  13.940 -0.0450  0.0170 -0.0091
 1707W        W18181  15.217   8.869  12.756  0.1424  0.0770  0.1564
 1708W        W18182   0.903  10.423  14.794  0.0801  0.1977  0.0700
 1709W        W18183   8.685  15.043   1.898  0.0026  0.3068  0.0252
 1710W        W18184   2.482  10.533  14.634  0.5726  0.0214  0.1112
 1711W        W18185  14.759  17.189  11.237 -0.0470  0.1844  0.1590
 1712W        W18186  10.587  11.336   1.381  0.0939  0.0159 -0.0923
 1713W        W18187   0.232  16.537  12.010  0.2547 -0.2667  0.2296
 1714W        W18188  15.853  13.560  11.564 -0.1491  0.2200  0.0862
 1715W        W18189   7.842  17.330   3.355 -0.1468  0.1798  0.0407
 1716W        W18190  11.453   7.428  13.836  0.1163  0.0781 -0.2427
 1717W        W18191  12.626   1.914  15.153 -0.0179  0.0573 -0.2355
 1718W        W18192  17.971   3.684   1.603 -0.2443 -0.0156 -0.0409
 1719W        W18193  17.794   4.362   0.435  0.1814 -0.0824  0.0941
 1720W        W18194   2.014   0.160   1.760 -0.2988 -0.1469  0.1873
 1721W        W18195   7.275  14.486   3.127  0.1631 -0.3478 -0.1019
 1722W        W18196   5.014  12.060   3.650 -0.1299 -0.0549 -0.1082
 1723W        W18197   7.862  15.054   1.781  0.1611 -0.0999 -0.2472
 1724W        W18198   4.956   2.190   3.554  0.1105 -0.3169 -0.5229
 1725W        W18199  13.979  12.825   1.904  0.1439 -0.1522  0.0944
 1726W        W18200   9.241  12.647   5.551 -0.0440 -0.1371  0.0194
 1727W        W18201   6.392   0.559  14.193  0.0163 -0.0114  0.1496
 1728W        W18202   2.214   9.672   0.830 -0.0726 -0.1515 -0.1067
 1729W        W18203  10.920   1.254  14.346  0.0873  0.1205 -0.1827
 1730W        W18204   2.423  13.995   5.998  0.1724  0.0749 -0.3411
 1731W        W18205  17.724  15.309   4.272 -0.1257  0.0517  0.1049
 1732W        W18206   1.861   7.714   2.756 -0.2024  0.0402 -0.2144
 1733W        W18207   3.269  12.214  11.568 -0.1220  0.1270 -0.1260
 1734W        W18208   9.111   3.389   3.845  0.0638  0.0088  0.1297
 1735W        W18209  17.060   7.737  14.412  0.0563  0.0604 -0.0905
 1736W        W18210   8.668  10.902  11.170 -0.3410  0.1316  0.2178
 1737W        W18211   8.954   8.711  11.910  0.1015  0.1598  0.0149
 1738W        W18212   1.032  14.430  15.716  0.1553 -0.2825  0.0229
 1739W        W18213  13.293  13.196   5.410 -0.1036 -0.0368 -0.0872
 1740W        W18214   4.743   0.206  15.671 -0.0609  0.2079  0.1199
 1741W        W18215  10.558  17.706   3.719 -0.3276  0.1341  0.1401
 1742W        W18216   9.732   6.447   4.429  0.0813  0.1369  0.0012
 1743W        W18217  17.341   4.612   0.585  0.0524  0.3072  0.1758
 1744W        W18218   7.474   1.404   4.028 -0.3701 -0.0451 -0.1559
 1745W        W18219  10.559   4.716  14.079 -0.1121  0.1080  0.3091
 1746W        W18220  17.776  10.142  13.085 -0.1320 -0.1304 -0.1871
 1747W        W18221   3.366   3.850  16.015 -0.2201  0.0077  0.0668
 1748W        W18222   8.925   0.665   5.467  0.0744  0.0077  0.0828
 1749W        W18223   1.489  17.787   3.551 -0.2015  0.0166  0.1986
 1750W        W18224  14.564   2.916   3.013 -0.2014  0.1860 -0.1389
 1751W        W18225  11.663  17.596   2.869  0.2275 -0.2053  0.0395
 1752W        W18226  18.169  11.421   2.428 -0.2276 -0.2055 -0.2405
 1753W        W18227   0.916   6.086   0.731 -0.4168  0.2855 -0.0081
 1754W        W18228  15.017  10.104  16.036 -0.0276  0.2438  0.3501
 1755W        W18229   7.214  11.103  15.009 -0.1867  0.0314  0.1689
 1756W        W18230   6.371   2.199  16.156  0.3224  0.0069 -0.0968
 1757W        W18231   4.643  12.351  11.678 -0.0064 -0.0425 -0.2979
 1758W        W18232   9.120  10.031  12.254 -0.3160  0.1257  0.1987
 1759W        W18233   3.225   7.325   2.696  0.0968 -0.2098  0.0033
 1760W        W18234  16.066  10.501   1.104 -0.1484  0.0773 -0.1331
 1761W        W18235   6.065   3.282  15.322  0.6089 -0.0836  0.0738
 1762W        W18236   9.666  15.447  15.656 -0.1939  0.1428 -0.2409
 1763W        W18237  14.477   7.330   2.479  0.2629 -0.4272  0.0516
 1764W        W18238   7.049  12.123  15.156 -0.0601 -0.0849  0.0957
 1765W        W18239   4.213   0.002   2.628  0.2037  0.1107  0.1577
 1766W        W18240  11.340   1.834   5.728  0.0598  0.0277  0.0091
 1767W        W18241  16.968   5.283  13.970  0.1928 -0.0474 -0.1343
 1768W        W18242   8.727  12.547  15.325 -0.3429  0.1392  0.2127
 1769W        W18243   3.252   0.669  14.079  0.1588  0.0611  0.1041
 1770W        W18244   7.105  15.054  14.347 -0.0537  0.0106  0.1968
 1771W        W18245   0.566   6.240   3.990  0.0702 -0.1700  0.2602
 1772W        W18246  15.837  17.100   2.560 -0.0359  0.1820 -0.1026
 1773W        W18247  16.602  13.419   4.710 -0.0294  0.1511 -0.0974
 1774W        W18248  12.443  11.885  16.061 -0.2067  0.2458  0.0006
 1775W        W18249   1.266  17.134   1.400 -0.0191  0.0849  0.1222
 1776W        W18250   1.783  10.286   2.538  0.2322 -0.0767 -0.0861
 1777W        W18251   0.597  16.730  13.512  0.0678 -0.0689  0.0835
 1778W        W18252  15.962   0.303   5.500 -0.1585 -0.4554  0.2851
 1779W        W18253  16.872  13.775   4.475 -0.0265 -0.1441 -0.1221
 1780W        W18254   4.475   8.280   2.150 -0.0120 -0.0392  0.1758
 1781W        W18255   4.934  12.243  14.279 -0.0552 -0.0416 -0.1179
 1782W        W18256  12.634  15.398  11.206  0.0965 -0.2281  0.0957
 1783W        W18257  13.176   0.511  10.820  0.1065  0.2287  0.0164
 1784W        W18258  15.302   3.515   2.968 -0.1758  0.2124  0.2304
 1785W        W18259  16.479   4.414  14.654 -0.0655 -0.2010 -0.0340
 1786W        W18260   2.999  13.116  14.957  0.0260 -0.2766 -0.0265
 1787W        W18261   3.522  12.583  15.074 -0.0959 -0.2290 -0.1901
 1788W        W18262   7.729   8.937  11.419  0.0048 -0.1747 -0.0357
 1789W        W18263   5.858   0.253   3.201 -0.0505  0.0108  0.3683
 1790W        W18264   2.524  11.468  15.785 -0.1197  0.1428 -0.0235
 1791W        W18265   2.923  13.388  10.784  0.2991  0.1549 -0.3071
 1792W        W18266  17.672  16.121   0.080  0.2836 -0.1774 -0.0674
 1793W        W18267  12.187   7.329   3.842 -0.0845  0.0637  0.1354
 1794W        W18268   5.485   3.114  11.293 -0.2171 -0.0954 -0.0701
 1795W        W18269   2.600  16.559   2.112  0.1104  0.0063 -0.2529
 1796W        W18270   2.584  10.483   3.685 -0.1296  0.4179  0.2474
 1797W        W18271  10.631  10.652   2.134  0.1715  0.0167  0.2847
 1798W        W18272  11.391  16.343   0.991  0.0647  0.1934 -0.1167
 1799W        W18273   1.517  10.207  13.087  0.1110 -0.0543  0.0075
 1800W        W18274   7.960   0.352   4.900 -0.1051  0.0976  0.0240
 1801W        W18275   0.941   8.177  13.736  0.0237  0.2260  0.2694
 1802W        W18276  11.031   1.618   4.672  0.2387 -0.0341  0.0124
 1803W        W18277   7.243   6.601   0.430 -0.0623  0.0975 -0.2978
 1804W        W18278  15.513  15.518  15.825  0.0197  0.0775  0.1070
 1805W        W18279   5.322   0.535  13.334  0.0299 -0.0491 -0.0635
 1806W        W18280  13.273   4.992   3.437  0.0392 -0.0855 -0.2437
 1807W        W18281   2.881  16.289   0.742  0.4176 -0.0849  0.4311
 1808W        W18282   3.304   9.030  12.933 -0.2306  0.0301 -0.1036
 1809W        W18283   6.862   7.145   3.999  0.1939  0.0011  0.2272
 1810W        W18284  12.032   3.646  11.760 -0.1985  0.0347 -0.2219
 1811W        W18285  17.043  12.419  12.455  0.2544 -0.4182 -0.3776
 1812W        W18286  15.671   3.829   0.255 -0.1417  0.0588 -0.1095
 1813W        W18287  15.159  15.603  13.327  0.1689 -0.1099  0.0456
 1814W        W18288  14.236   3.753   0.997 -0.1589 -0.1382 -0.2103
 1815W        W18289  11.615  17.534  14.278 -0.3582 -0.0616 -0.1321
 1816W        W18290   9.896   3.448   2.224  0.0819  0.1997 -0.1037
 1817W        W18291  14.158  17.110   3.013 -0.0724  0.1255 -0.2399
 1818W        W18292   0.350   0.084  13.466  0.1342 -0.0393 -0.0999
 1819W        W18293   3.446   0.897   3.211  0.2838 -0.0186  0.0570
 1820W        W18294  17.728  16.508   4.226  0.1607 -0.1170  0.1605
 1821W        W18295   6.197   2.263  14.768  0.1470 -0.1055 -0.0986
 1822W        W18296  15.792  12.764  14.028 -0.1460 -0.2770 -0.1148
 1823W        W18297   7.915  12.086  15.137  0.1904  0.0367 -0.0831
 1824W        W18298   5.749   2.997   2.845  0.1853 -0.2503  0.2268
 1825W        W18299   1.353  15.735   5.460 -0.1458 -0.0747 -0.3976
 1826W        W18300  15.846  14.752   3.312 -0.1814 -0.1053 -0.3304
 1827W        W18301  11.820   1.072   4.332 -0.0993  0.0514  0.3024
 1828W        W18302   1.556  17.137  10.697  0.1747  0.1006 -0.0921
 1829W        W18303   1.950  11.534   4.825  0.2496 -0.1306 -0.2786
 1830W        W18304  12.088   6.222  11.787  0.0312  0.0354  0.0082
 1831W        W18305  15.051   8.361   4.809 -0.2569 -0.0339  0.0989
 1832W        W18306  16.021  18.028   5.205  0.3299 -0.1555  0.2010
 1833W        W18307   1.799   5.112  16.023  0.2109  0.2686 -0.2357
 1834W        W18308  12.870   1.955  12.961  0.0183 -0.0539 -0.1898
 1835W        W18309  11.018  11.059  13.086 -0.2163 -0.0795  0.0139
 1836W        W18310  10.157   5.816   2.550  0.2407  0.0285  0.0694
 1837W        W18311   8.925  12.635   0.620 -0.0281 -0.0010 -0.2393
 1838W        W18312  15.091  12.062  13.684  0.0467  0.0676 -0.1173
 1839W        W18313   9.051  16.797  16.308  0.1982  0.1251 -0.0756
 1840W        W18314  12.183  15.018  13.681  0.1191  0.2181  0.1155
 1841W        W18315  14.409  18.085  15.005  0.3568  0.1263  0.0215
 1842W        W18316   5.917  15.571   6.083 -0.3518  0.1718 -0.2037
 1843W        W18317   9.109  13.731   3.347 -0.0851  0.0039 -0.4072
 1844W        W18318  12.069  11.577  14.589 -0.1551 -0.2592 -0.1386
 1845W        W18319  15.553   8.363  14.392  0.0677 -0.0514 -0.2514
 1846W        W18320   9.624  17.410   0.712 -0.3948 -0.1784 -0.3603
 1847W        W18321   0.859  10.502   1.174 -0.0831  0.1728 -0.2154
 1848W        W18322   5.756   8.085  13.878  0.0327  0.0552 -0.0823
 1849W        W18323  16.049  15.499   5.968  0.3914 -0.0141 -0.3218
 1850W        W18324  12.015   3.880   3.631 -0.0936  0.1626  0.0134
 1851W        W18325   7.538   9.605   2.673  0.0602 -0.3111  0.0086
 1852W        W18326   7.214   2.903   2.795  0.1339  0.1313  0.1303
 1853W        W18327  11.790   6.640   3.576 -0.3824 -0.2835  0.2124
 1854W        W18328   7.635  17.902   2.644  0.1142 -0.0251  0.0344
 1855W        W18329   3.373   9.712  15.339  0.0050 -0.1314 -0.0045
 1856W        W18330  11.629   4.973   4.174  0.3120 -0.0149 -0.1719
 1857W        W18331   2.805   9.382  15.232  0.2441  0.0544  0.2222
 1858W        W18332   8.672   9.892   1.632 -0.3816  0.4476  0.1200
 1859W        W18333   3.634  12.358  11.901 -0.0760 -0.1231  0.1548
 1860W        W18334   2.076  13.391  12.552 -0.0445  0.0892  0.1335
 1861W        W18335   4.998   4.411   0.789 -0.1412  0.0791  0.1143
 1862W        W18336   8.016   8.367  10.298  0.1572 -0.2071 -0.2061
 1863W        W18337  17.873  14.357   3.273 -0.1877 -0.0856  0.0552
 1864W        W18338   5.558   1.105   4.022  0.0583 -0.2482 -0.1141
 1865W        W18339  10.063   0.865   4.065  0.1261 -0.0208  0.2375
 1866W        W18340   0.338  13.274   3.324  0.0087  0.2946 -0.1882
 1867W        W18341  14.052  15.140  10.541 -0.2321  0.1005 -0.1237
 1868W        W18342   2.671   5.846  14.945 -0.1691  0.0665  0.1147
 1869W        W18343   1.654  12.501  10.887 -0.3636  0.0768 -0.0242
 1870W        W18344   2.135   1.911   1.466 -0.1195  0.1503  0.0123
 1871W        W18345  16.813  14.903   1.451  0.1707 -0.1184  0.3189
 1872W        W18346  11.765   9.446   2.927  0.2350  0.0452 -0.1746
 1873W        W18347   2.228  17.035   1.572  0.1545 -0.1725  0.0342
 1874W        W18348   7.931  10.476   4.724  0.0446 -0.0354  0.1488
 1875W        W18349   5.529  16.341  14.654  0.2012 -0.0058  0.2398
 1876W        W18350  13.860   4.482  14.520  0.1811  0.1630 -0.0472
 1877W        W18351  16.531   9.728   3.988 -0.2561 -0.0840  0.1412
 1878W        W18352   8.639  15.842   2.337  0.2286 -0.1217 -0.3345
 1879W        W18353   2.438  10.018  15.422 -0.1898 -0.0855  0.0261
 1880W        W18354   2.545  12.295  14.602 -0.1257 -0.1337  0.1263
 1881W        W18355  16.864  13.363  11.572  0.2087  0.2222 -0.2808
 1882W        W18356   5.797   0.855  11.321 -0.3238  0.2763 -0.1280
 1883W        W18357   7.282   3.458   1.707  0.2347  0.2415  0.0332
 1884W        W18358  14.769   5.866  13.860  0.1342  0.0773  0.0943
 1885W        W18359   9.854   5.847   0.286 -0.2673 -0.3584  0.0699
 1886W        W18360   8.035  13.634  13.535  0.0366  0.0182  0.1652
 1887W        W18361   2.086  13.847   2.619  0.1391  0.3300 -0.0635
 1888W        W18362   3.806   8.608   3.898 -0.1787  0.0051 -0.1467
 1889W        W18363  12.200   0.614  12.155  0.0386  0.1436  0.0851
 1890W        W18364   9.156  10.294  13.361  0.2157 -0.1102 -0.0263
 1891W        W18365  11.536  10.799  15.690  0.1635 -0.1431 -0.4094
 1892W        W18366  16.475  13.664   1.107  0.2302 -0.1856  0.1860
 1893W        W18367   0.825   9.806  14.392 -0.0032  0.2531 -0.2196
 1894W        W18368   1.388  10.706  11.506 -0.2176  0.1837  0.0612
 1895W        W18369   5.826  10.400  13.531 -0.0963  0.0210  0.0332
 1896W        W18370  13.588  10.611   1.847 -0.0058  0.0670 -0.2362
 1897W        W18371  17.207   7.837   0.347 -0.1382  0.1948  0.3727
 1898W        W18372  10.826   0.044   3.899 -0.2115 -0.0937 -0.1160
 1899W        W18373  15.175  11.290  11.893  0.3253 -0.0554 -0.0911
 1900W        W18374   7.752   5.520   2.997  0.0074  0.0616 -0.2669
 1901W        W18375  14.526  15.333   1.449  0.0908 -0.1966  0.0436
 1902W        W18376   5.122  12.553  13.413  0.0858  0.1914  0.1363
 1903W        W18377   0.905  11.483  13.847 -0.0460  0.1992 -0.0421
 1904W        W18378   9.798   8.772   4.024  0.0261 -0.2333 -0.0147
 1905W        W18379   7.955  16.676   1.997 -0.3001 -0.0825  0.1280
 1906W        W18380  11.077   2.356   2.333  0.2740  0.0907 -0.0823
 1907W        W18381  15.748  15.019  12.853 -0.2949 -0.1201  0.1070
 1908W        W18382   3.256   3.203   3.603  0.0172 -0.1318 -0.1385
 1909W        W18383  16.614   4.500   2.595 -0.2143 -0.1075 -0.0966
 1910W        W18384   8.204   2.596   5.630  0.1786 -0.3008 -0.0280
 1911W        W18385  17.492  14.026   1.076 -0.1612 -0.2079 -0.1625
 1912W        W18386  15.164   3.626   4.701 -0.0213 -0.0013  0.1169
 1913W        W18387   5.045   3.392   3.905 -0.2941  0.2834  0.3376
 1914W        W18388   6.847   2.371  13.441 -0.0624  0.0866 -0.1512
 1915W        W18389  17.153   9.720   0.525 -0.2694  0.0675 -0.0276
 1916W        W18390   5.238   8.689   1.100  0.0863  0.0104 -0.1142
 1917W        W18391   4.657   3.048  12.874  0.0369  0.2776  0.0707
 1918W        W18392  10.412   8.597  13.588 -0.0360 -0.2348  0.2003
 1919W        W18393  12.452  13.601  15.313 -0.0746  0.0071 -0.0627
 1920W        W18394  11.794  17.289   4.952 -0.2058  0.1307 -0.3171
 1921W        W18395   4.666  14.280   4.064  0.1867 -0.1020 -0.1261
 1922W        W18396  10.709  16.408   5.464 -0.0691  0.2204  0.0042
 1923W        W18397   6.735  14.800   0.431 -0.0091  0.1489  0.1200
 1924W        W18398   0.232  10.443  12.006 -0.0851 -0.3680 -0.0591
 1925W        W18399   3.240  14.116  14.741  0.3503 -0.2205 -0.0682
 1926W        W18400   3.692  13.836   3.264 -0.3566 -0.0266  0.0829
 1927W        W18401  17.838   6.019  12.328 -0.2583 -0.1237 -0.0911
 1928W        W18402  14.981   4.547   3.563  0.2188  0.0796 -0.0933
 1929W        W18403  15.875  12.247   1.418 -0.0264  0.0637 -0.0660
 1930W        W18404   9.891   9.660  16.089  0.0885  0.1754 -0.0244
 1931W        W18405  12.511   6.308  14.649  0.1182 -0.0100 -0.1738
 1932W        W18406   8.553  16.701  11.880  0.0607 -0.4000 -0.2719
 1933W        W18407   1.558   2.276  12.950 -0.0110 -0.0227  0.0604
 1934W        W18408   8.447   0.472  12.953 -0.1556  0.3911  0.0286
 1935W        W18409   6.630  15.957   3.864  0.1420 -0.0173 -0.2765
 1936W        W18410   2.315  11.033  14.707 -0.1198 -0.0121 -0.0793
 1937W        W18411   2.430  12.065   5.593  0.1307 -0.0839 -0.3241
 1938W        W18412   4.702  12.392   0.024 -0.0442 -0.2614  0.0030
 1939W        W18413   3.775   0.152  15.699  0.0359  0.2439 -0.1076
 1940W        W18414   6.821  12.004  13.461  0.0840  0.1035 -0.1794
 1941W        W18415   0.729  10.426  12.197 -0.0909  0.1027  0.1582
 1942W        W18416   2.488   4.731   2.263 -0.2493 -0.4218 -0.2130
 1943W        W18417   0.493   9.333  13.466 -0.2708 -0.0720  0.2482
 1944W        W18418  16.394  14.089  14.487 -0.1918  0.0648  0.2143
 1945W        W18419   7.330  12.946   2.410  0.1131  0.0354 -0.1991
 1946W        W18420   7.315  13.405   0.010 -0.1958 -0.0786  0.1622
 1947W        W18421  15.699  13.515  16.307 -0.2928  0.0883  0.0830
 1948W        W18422  10.847   4.970   1.734 -0.1547 -0.0991  0.3283
 1949W        W18423   5.195   7.672  16.152 -0.1380 -0.0100  0.2630
 1950W        W18424  12.892  11.656   4.150  0.0329  0.2441  0.1723
 1951W        W18425  17.331   4.203  12.631  0.1992  0.0490  0.1835
 1952W        W18426   4.099  12.636   5.143 -0.0142  0.1051  0.1995
 1953W        W18427  17.373   3.547   0.761 -0.0749 -0.2043 -0.1397
 1954W        W18428   8.246  15.261  13.423 -0.1019 -0.1242 -0.0440
 1955W        W18429   2.942   8.046  16.303  0.0689 -0.1702  0.0906
 1956W        W18430  11.550   3.168  11.149  0.0914 -0.0566 -0.3368
 1957W        W18431  16.306  14.971   3.279 -0.0466  0.0579 -0.0281
 1958W        W18432  11.408   0.786   4.150  0.1692  0.0949  0.0283
 1959W        W18433   3.988  12.400   1.977 -0.2841 -0.0818  0.1147
 1960W        W18434  17.716   0.685   2.198  0.1312 -0.1044  0.0922
 1961W        W18435  10.482   1.472   6.016 -0.0134  0.2435  0.0460
 1962W        W18436   8.477  10.877  14.528 -0.2990  0.1324 -0.1928
 1963W        W18437  18.171   8.485  13.240  0.0937  0.0516 -0.0384
 1964W        W18438  12.461  17.587  13.646  0.1093  0.1027 -0.1348
 1965W        W18439  12.236  10.375   3.716 -0.0919 -0.0055  0.0002
 1966W        W18440   5.844   8.834   0.471  0.0725  0.0509  0.0577
 1967W        W18441   1.760  15.927   4.771  0.0257  0.0519 -0.2025
 1968W        W18442  11.021   5.304   2.440  0.0335 -0.0443 -0.0870
 1969W        W18443   4.010   9.638   2.029 -0.0657  0.3915  0.1385
 1970W        W18444   1.703   4.081  15.152 -0.0153 -0.1954  0.1094
 1971W        W18445   8.209  12.871  10.959 -0.3026 -0.0478 -0.0941
 1972W        W18446  17.802   2.437  11.258 -0.0393 -0.1187  0.1305
 1973W        W18447  16.100   0.628   0.289 -0.1587  0.1768 -0.1237
 1974W        W18448   3.211   7.154   4.455 -0.0243 -0.1078 -0.1888
 1975W        W18449   5.966  13.668   2.200 -0.0225  0.0229  0.2092
 1976W        W18450  15.554   9.269  14.043 -0.2643  0.1175  0.0880
 1977W        W18451   4.281   4.651   3.738  0.0150  0.0999  0.0634
 1978W        W18452   5.900   7.972  14.874 -0.0247  0.2573 -0.2635
 1979W        W18453  11.424   9.683   5.628 -0.0247 -0.2908  0.1460
 1980W        W18454  10.911  16.099  15.241  0.0445 -0.0201  0.1710
 1981W        W18455  11.762   6.897   1.433  0.1143  0.1402 -0.1376
 1982W        W18456  10.360  17.321  10.766  0.0231  0.1697  0.2726
 1983W        W18457   8.853  11.740   3.973 -0.1551 -0.2146  0.3180
 1984W        W18458  11.263  10.344   4.712 -0.2943 -0.0484  0.1136
 1985W        W18459  17.808  13.601  14.099  0.0519  0.0326 -0.1060
 1986W        W18460  12.848   0.209   0.092  0.0154  0.1200  0.2076
 1987W        W18461   9.940  14.207   3.417  0.3123 -0.4190  0.0602
 1988W        W18462  14.492   2.349   4.552 -0.1528 -0.2393  0.2274
 1989W        W18463   6.252   1.764  15.471 -0.0682 -0.1304  0.0449
 1990W        W18464  12.497  16.802  13.035 -0.1304  0.2508  0.1541
 1991W        W18465  14.901   0.427   0.908 -0.0228 -0.3229 -0.1993
 1992W        W18466   0.777   6.186  11.639 -0.0573 -0.0400  0.1150
 1993W        W18467   8.716  15.868   3.410 -0.0744  0.0681  0.4856
 1994W        W18468  17.304   3.272  13.834 -0.0860  0.0314  0.0128
 1995W        W18469  11.097   6.035  14.690 -0.0191  0.1313 -0.2212
 1996W        W18470   9.395  15.794  13.104 -0.3872 -0.2909 -0.2401
 1997W        W18471  12.664   9.764  14.472 -0.0460  0.0146  0.0379
 1998W        W18472   3.307   8.950  12.430 -0.1321 -0.1245  0.1769
 1999W        W18473  10.531   2.396   3.152  0.0305 -0.0556  0.0289
 2000W        W18474  14.106  10.008  13.019 -0.2224 -0.2000  0.0762
 2001W        W18475   2.788  13.403   5.245  0.4071 -0.1592  0.0138
 2002W        W18476  17.384  14.880   2.442  0.0582 -0.1107 -0.0736
 2003W        W18477   9.231   3.923   5.412  0.1435  0.2840  0.1180
 2004W        W18478  14.396   6.861   0.237  0.1334  0.1054  0.1158
 2005W        W18479   3.926  10.121   1.708  0.1419 -0.1217 -0.1278
 2006W        W18480  10.110  16.903   1.975 -0.0564  0.1804  0.0067
 2007W        W18481  15.779   9.770  15.980  0.1308 -0.2293  0.1168
 2008W        W18482   6.348   1.172  12.453 -0.1166 -0.0157 -0.0351
 2009W        W18483   0.299   9.180   1.009  0.0555 -0.0244  0.2186
 2010W        W18484   1.723   9.937   1.534 -0.1106 -0.0354 -0.0449
 2011W        W18485   4.045  16.868  12.328  0.1429 -0.2660 -0.2296
 2012W        W18486   2.750  15.984   5.820 -0.1077  0.0422 -0.0293
 2013W        W18487  11.984   0.051  11.412  0.0819 -0.1259 -0.1449
 2014W        W18488   1.168  16.633   2.162  0.2696  0.1442 -0.0255
 2015W        W18489   5.894  11.703   4.664  0.2285 -0.1640 -0.1024
 2016W        W18490  17.757  14.980   0.439 -0.1103  0.0990  0.0359
 2017W        W18491   2.492  12.058  15.490 -0.1436  0.2049  0.1807
 2018W        W18492  17.653  10.510   0.549 -0.0457  0.0870  0.2022
 2019W        W18493  11.779  12.879  15.391  0.2165  0.0537  0.1667
 2020W        W18494   4.952  16.536   2.745  0.2923 -0.2698 -0.2330
 2021W        W18495   1.330   8.185  15.658 -0.1561  0.0021  0.1953
 2022W        W18496   2.613  15.722   5.375  0.0668 -0.3017  0.0245
 2023W        W18497  17.558  10.975   3.071  0.1572  0.0398  0.0568
 2024W        W18498   0.565   0.531  14.584  0.0039 -0.1132 -0.0189
 2025W        W18499  16.023   2.204   2.762  0.1341  0.1043  0.0573
 2026W        W18500   7.166   5.932  13.749 -0.0698  0.0374 -0.1438
 2027W        W18501   2.055  17.489   1.084 -0.0154  0.1834 -0.1650
 2028W        W18502   5.053   9.861  15.712  0.1489  0.1525 -0.2264
 2029W        W18503   3.671   0.311   5.194  0.1773  0.1586 -0.3028
 2030W        W18504  11.749  11.834  12.090 -0.0025  0.1720  0.0559
 2031W        W18505   0.690   5.831  14.355  0.1472 -0.0878  0.2940
 2032W        W18506   0.627   3.846  13.681  0.2220 -0.1626 -0.1299
 2033W        W18507   0.591  17.871   4.875  0.0622  0.0749  0.0935
 2034W        W18508   8.844   1.346  15.968  0.1914 -0.1873  0.0467
 2035W        W18509  17.756   0.032  12.363 -0.1899  0.3186 -0.1447
 2036W        W18510   5.163  15.176  15.333 -0.1269 -0.0385  0.1928
 2037W        W18511  15.476   1.649   1.780  0.0908 -0.1546 -0.1455
 2038W        W18512  15.814   6.064   2.004  0.0225  0.2424  0.1720
 2039W        W18513  14.679   6.709   4.269 -0.2086 -0.1588 -0.1322
 2040W        W18514   7.009  11.210   3.561  0.1031  0.3621  0.1332
 2041W        W18515   4.154   9.279  13.016  0.0780  0.2882  0.0404
 2042W        W18516   1.860   6.452   2.279  0.1233  0.0203  0.3320
 2043W        W18517   6.008   9.487   2.307 -0.2960  0.4084  0.1901
 2044W        W18518   0.173   2.720   0.470 -0.2637 -0.0750 -0.1507
 2045W        W18519   2.016  15.305   2.133 -0.0268  0.1093 -0.1933
 2046W        W18520  12.049  12.697   5.128 -0.1384  0.1048  0.2541
 2047W        W18521   6.892   5.191   2.823  0.1413  0.0013  0.3137
 2048W        W18522  13.862  10.498  12.240  0.2234 -0.0509  0.1747
 2049W        W18523   5.741   4.643  14.461 -0.0838  0.0201  0.1365
 2050W        W18524  14.667  17.552  15.842 -0.3446 -0.0738  0.0163
 2051W        W18525   5.530  10.408  13.927  0.0124 -0.2608  0.0703
 2052W        W18526  12.379  14.040   4.384  0.0873  0.0603  0.1448
 2053W        W18527  11.724  14.336  12.021 -0.1389  0.0194  0.2474
 2054W        W18528  12.395   8.548  15.886  0.0690  0.0031  0.0399
 2055W        W18529  12.147   5.587   4.515 -0.0970  0.2709 -0.2026
 2056W        W18530   8.148   4.246  15.298  0.1210 -0.2142 -0.0870
 2057W        W18531  10.431  15.707   6.130 -0.0789 -0.1638 -0.1053
 2058W        W18532   2.161   5.325   3.487  0.2366  0.1780  0.2054
 2059W        W18533   6.584   9.099   2.967  0.0672  0.0599 -0.1025
 2060W        W18534   2.700   0.579   4.868  0.2550 -0.1476 -0.2028
 2061W        W18535  17.899  16.899  11.891  0.0544  0.2064 -0.1731
 2062W        W18536   8.385   2.548   1.382  0.0042  0.0352  0.1384
 2063W        W18537   7.978  14.901   4.388 -0.1435  0.0203 -0.0767
 2064W        W18538  16.024   5.083  13.106 -0.0492  0.0371 -0.3052
 2065W        W18539   4.786  14.304   4.654  0.1745  0.3141 -0.1657
 2066W        W18540   6.129  12.635  15.125  0.1261 -0.3692  0.2892
 2067W        W18541  17.050   2.583   4.200 -0.0450  0.3143 -0.0384
 2068W        W18542   9.058  17.984   0.445  0.1002  0.3144 -0.1642
 2069W        W18543   1.768   1.456  14.984  0.0204 -0.2089  0.1008
 2070W        W18544  11.649   3.584   1.809 -0.1603 -0.0864 -0.0568
 2071W        W18545   1.086  11.121  12.954  0.0867  0.1369 -0.2269
 2072W        W18546  15.424   3.382  14.535 -0.2704 -0.0834  0.0127
 2073W        W18547   3.248   9.336   3.875  0.0451 -0.2285  0.2075
 2074W        W18548  15.122   4.338  15.608  0.0641 -0.2058  0.1054
 2075W        W18549   1.734   3.399   5.243  0.2717 -0.0971  0.1449
 2076W        W18550   1.331  17.640  14.859 -0.2557 -0.0660 -0.0800
 2077W        W18551  17.972  10.580  15.663  0.1565  0.0487  0.1922
 2078W        W18552  10.636   4.156  12.032  0.0996 -0.0812  0.1184
 2079W        W18553   7.195  14.565  14.490 -0.0126  0.0947  0.0625
 2080W        W18554  15.561   6.234   4.564  0.1212  0.1699 -0.0474
 2081W        W18555   0.095  13.571  10.983  0.2397 -0.0036 -0.0460
 2082W        W18556  13.669  14.035   4.894  0.2757 -0.0092 -0.0224
 2083W        W18557  11.368  17.006  13.486  0.0355 -0.0340 -0.0536
 2084W        W18558   6.163  16.940  15.884 -0.3337 -0.0812  0.2027
 2085W        W18559   1.653   7.545  13.551 -0.1417  0.3343  0.0260
 2086W        W18560   1.363   1.583   3.882 -0.0405  0.2647  0.1872
 2087W        W18561   1.505   8.808  15.000 -0.2180 -0.3666  0.0284
 2088W        W18562   0.250   8.991   4.559  0.0706 -0.1842 -0.0907
 2089W        W18563   6.855   8.720   0.506  0.2636  0.0695  0.0022
 2090W        W18564  12.566  17.548  16.189 -0.0529 -0.1687 -0.2855
 2091W        W18565   8.821  13.779   0.804  0.2293 -0.3637 -0.2757
 2092W        W18566  13.891   4.185   1.649 -0.5135 -0.0517  0.0773
 2093W        W18567   4.638  11.682  15.794  0.1306 -0.2269 -0.1581
 2094W        W18568   1.490   7.861   3.197  0.1282  0.0055 -0.1055
 2095W        W18569   0.219   3.964  13.934  0.0068 -0.0945  0.2131
 2096W        W18570   6.751  14.842   1.683 -0.0620  0.2182  0.0639
 2097W        W18571  13.836  13.071   4.613 -0.0916 -0.1316 -0.0167
 2098W        W18572   6.182   0.636  13.393  0.1114  0.1170  0.0019
 2099W        W18573   6.818   1.350   3.797 -0.0559 -0.2678  0.2486
 2100W        W18574   5.350   4.821  15.373 -0.3472  0.0327  0.1899
 2101W        W18575  16.176  16.243  13.898 -0.1922 -0.2406  0.0597
 2102W        W18576   2.454   7.178   2.982  0.2369  0.1676 -0.4672
 2103W        W18577   8.935   0.080  13.864 -0.1496  0.2527  0.0045
 2104W        W18578   0.143   5.297   0.644  0.1011  0.1701 -0.0683
 2105W        W18579   7.732  11.878   0.534 -0.1420 -0.0668  0.1160
 2106W        W18580   9.859   8.612  11.048  0.2370  0.2101 -0.1245
 2107W        W18581  15.705   1.204   4.014 -0.4443 -0.2108  0.1587
 2108W        W18582  11.442   9.030   2.868  0.0365  0.0544 -0.0613
 2109W        W18583  14.173   8.315   1.988  0.2338  0.0102 -0.0582
 2110W        W18584   6.350  10.450   2.523  0.0579 -0.0313 -0.0419
 2111W        W18585  15.213   0.615  12.819  0.1741 -0.0098  0.0055
 2112W        W18586   8.693  14.497   1.961 -0.1993 -0.0077 -0.0136
 2113W        W18587   7.334  12.120  13.191  0.0586  0.1762 -0.3649
 2114W        W18588   8.916   3.435  12.214  0.1805  0.1782  0.0059
 2115W        W18589  14.678  11.128   1.087  0.1107  0.0099 -0.1039
 2116W        W18590   2.959   2.266   2.657  0.0826  0.0965 -0.1805
 2117W        W18591   4.835   9.427   6.111  0.0405 -0.0306 -0.2369
 2118W        W18592  14.426  17.834  13.677 -0.2331  0.3771 -0.1003
 2119W        W18593   1.915  15.999   2.673  0.3329 -0.1068 -0.0019
 2120W        W18594  13.561   8.357   1.208 -0.1258 -0.0499  0.0920
 2121W        W18595  13.445   9.706   2.115 -0.2455 -0.1073 -0.4088
 2122W        W18596  10.989   5.785  15.155 -0.1985  0.1345  0.2021
 2123W        W18597   7.688  15.229   0.813 -0.1716 -0.0671 -0.0913
 2124W        W18598  15.312   3.451   2.358 -0.0003 -0.1344  0.1271
 2125W        W18599  15.820  16.722  10.803  0.0091  0.0208 -0.2787
 2126W        W18600   0.672   7.690  16.332  0.0469  0.3574 -0.3727
 2127W        W18601  14.035  12.755   5.023 -0.1948  0.1559 -0.0827
 2128W        W18602   0.355  10.645  16.333 -0.0638 -0.0941 -0.1609
 2129W        W18603  14.300   6.086  10.968  0.0452 -0.1087 -0.0657
 2130W        W18604   7.154   4.581  15.159  0.1052 -0.3203  0.0993
 2131W        W18605   9.243  15.493  12.298  0.0635  0.2271  0.1876
 2132W        W18606   8.957  16.503  15.492 -0.0714 -0.1181 -0.0367
 2133W        W18607   7.147   9.484  12.724 -0.0960  0.1789 -0.0632
 2134W        W18608  13.053   3.488  13.902  0.1272 -0.1602  0.0017
 2135W        W18609   5.550  11.360   5.062  0.0080  0.2535  0.1541
 2136W        W18610  15.987  12.139  11.515  0.2911 -0.0304 -0.1970
 2137W        W18611   3.032   4.813   5.125  0.0117 -0.0893  0.1249
 2138W        W18612  17.413   6.166  16.300  0.0619  0.2349  0.2323
 2139W        W18613  14.968  18.125   1.137 -0.1463 -0.0920 -0.0042
 2140W        W18614   6.561  15.649   2.874 -0.2437 -0.1220  0.0519
 2141W        W18615  14.306   8.704  14.691 -0.0427 -0.1432  0.2368
 2142W        W18616  13.074   4.424  13.652 -0.0401  0.0599 -0.3876
 2143W        W18617  12.805  18.030   0.850 -0.0357  0.0993 -0.2828
 2144W        W18618  11.242   8.608   1.977  0.1136 -0.0943 -0.1258
 2145W        W18619   3.243  10.962   2.744  0.1640 -0.1520  0.2981
 2146W        W18620   2.841   4.362  13.282  0.2250  0.1453 -0.1694
 2147W        W18621  12.607  17.457  14.138 -0.3716  0.2643 -0.0982
 2148W        W18622  13.179   7.169  14.761 -0.1517  0.2882  0.1628
 2149W        W18623   2.549   3.703  12.661  0.3311  0.2195  0.0547
 2150W        W18624   2.883  14.591   2.499  0.0060 -0.0286 -0.1369
 2151W        W18625  11.979   8.857  16.270  0.0415 -0.2647  0.2468
 2152W        W18626   1.934   4.426  14.929 -0.2896 -0.0273 -0.2728
 2153W        W18627   4.416   9.925  13.263  0.1360  0.2401  0.0151
 2154W        W18628   7.918   1.359  16.143 -0.1389 -0.0224 -0.1863
 2155W        W18629  15.471   1.056  15.528  0.1232 -0.1674 -0.0338
 2156W        W18630  14.699   8.074   1.121  0.1326 -0.2539 -0.0876
 2157W        W18631   7.859  15.620   3.657  0.0779 -0.2137 -0.2710
 2158W        W18632  15.394   2.575  12.302 -0.0194  0.1464  0.1184
 2159W        W18633   9.504  15.716   1.803  0.2039  0.5852  0.1882
 2160W        W18634  16.094   5.919   1.137 -0.0666  0.0397 -0.4495
 2161W        W18635  12.507   8.935   0.548 -0.1432 -0.2053  0.2001
 2162W        W18636   2.979  14.710   4.670  0.1455  0.0494 -0.0189
 2163W        W18637   2.455   6.984  13.823 -0.0936  0.1718  0.2732
 2164W        W18638   7.317  16.340  16.069 -0.1463 -0.1690 -0.1363
 2165W        W18639  15.936   8.059   1.343  0.3112  0.0781 -0.1217
 2166W        W18640   5.974  14.708  13.724  0.0733 -0.1864 -0.0167
 2167W        W18641  11.175  14.712  15.026 -0.0443  0.1858  0.0918
 2168W        W18642  10.272   7.801  14.207 -0.0307 -0.1400 -0.1806
 2169W        W18643   5.042  16.989   5.310  0.1356 -0.0813 -0.1158
 2170W        W18644   8.181   8.050   3.631  0.0397  0.2295  0.2393
 2171W        W18645  11.458   8.630  11.915 -0.2417 -0.1731 -0.0828
 2172W        W18646   2.879   8.010   5.851 -0.0456 -0.2829 -0.0556
 2173W        W18647  15.938  11.488   3.649 -0.0119 -0.1163  0.3022
 2174W        W18648   7.862   4.679   5.000  0.0997 -0.1641 -0.0321
 2175W        W18649  14.985  17.134  15.825  0.2998  0.0376  0.0479
 2176W        W18650   6.983   4.414  13.281 -0.0032  0.2539  0.0029
 2177W        W18651  14.384   7.403   3.057 -0.1547 -0.0014  0.0943
 2178W        W18652   7.673   3.514  11.717 -0.1839  0.3064 -0.1219
 2179W        W18653  11.809   6.327   4.880 -0.1924 -0.3036 -0.3091
 2180W        W18654   9.786  13.609   1.237 -0.1721 -0.0700  0.0637
 2181W        W18655  10.200  12.863   3.581 -0.1572  0.0245  0.3608
 2182W        W18656   2.375   7.083   2.040  0.1122  0.1791 -0.3196
 2183W        W18657   0.296   0.574   2.463  0.1980 -0.0828  0.2232
 2184W        W18658   9.612   3.722  14.542  0.0988 -0.2514 -0.2787
 2185W        W18659  16.262   8.727  14.259  0.0686 -0.5541  0.0089
 2186W        W18660   2.745   2.409  12.023 -0.1376 -0.0147  0.1022
 2187W        W18661   8.680  13.644  12.472  0.1140 -0.1353  0.0613
 2188W        W18662  12.895   6.496  15.633  0.2689 -0.0603 -0.0437
 2189W        W18663   9.147  14.340   6.369 -0.1029  0.2706  0.3201
 2190W        W18664  12.208  13.469   0.781 -0.2206  0.1629 -0.4114
 2191W        W18665   6.619   1.239   5.677 -0.0152 -0.1864 -0.0373
 2192W        W18666   2.593   0.128   0.467  0.0148 -0.0464 -0.1785
 2193W        W18667   4.160   6.294  14.242  0.2102  0.0522 -0.1065
 2194W        W18668  17.033   1.159  13.511  0.0120 -0.3525  0.2175
 2195W        W18669  14.011  17.582   4.448 -0.3914  0.0319  0.0568
 2196W        W18670   2.681   2.364  14.944  0.2075  0.1066  0.2411
 2197W        W18671   6.714   6.633  13.713 -0.1238 -0.0913  0.0267
 2198W        W18672   4.484   3.383   4.070  0.0918  0.0595  0.3408
 2199W        W18673  10.700  18.133   5.199 -0.0058 -0.2465 -0.1440
 2200W        W18674   6.710   3.958  14.722  0.2842 -0.3812  0.2807
 2201W        W18675  10.938   0.060   0.203 -0.0470 -0.2201 -0.4365
 2202W        W18676   6.273   7.575   1.982  0.0995  0.2149  0.2378
 2203W        W18677   7.199   8.344   0.776  0.1478 -0.3571 -0.1120
 2204W        W18678   4.678  10.866  13.957  0.1384 -0.0068 -0.3068
 2205W        W18679  10.539   4.561  11.622 -0.0536 -0.0925  0.1055
 2206W        W18680   4.795  13.374   2.843  0.1364  0.2006 -0.0301
 2207W        W18681  15.802  14.947   5.071  0.3652  0.0477 -0.2412
 2208W        W18682  12.982   1.703  15.778 -0.0294 -0.1610  0.3632
 2209W        W18683   1.915   3.687   1.641 -0.1201 -0.1062 -0.0425
 2210W        W18684  13.694  12.921   3.156  0.1849  0.2286  0.1606
 2211W        W18685   6.189   8.741   1.998 -0.0396 -0.0729  0.1875
 2212W        W18686   2.565   3.278   0.460  0.0194 -0.2084 -0.1075
 2213W        W18687  15.806   2.307   3.263  0.0755  0.0345  0.0031
 2214W        W18688   6.072  16.805  15.405  0.4691  0.1002  0.1987
 2215W        W18689  16.684   7.215   6.216 -0.1844 -0.4620  0.1233
 2216W        W18690   4.353   1.134   0.061  0.3033 -0.2471  0.1198
 2217W        W18691   8.982  11.172   0.702 -0.2049 -0.0720  0.1840
 2218W        W18692   6.225   1.121  13.255  0.0538 -0.1531 -0.1461
 2219W        W18693  16.585  12.874  16.322 -0.1404  0.2015  0.0058
 2220W        W18694   2.510   1.747   4.673  0.1623  0.2038 -0.1434
 2221W        W18695  15.870  12.021   4.733 -0.2227  0.0271  0.1909
 2222W        W18696   4.235   7.057   5.793  0.0204 -0.3081 -0.1154
 2223W        W18697   2.334   0.173  12.236 -0.2090 -0.1089 -0.0142
 2224W        W18698  13.531   6.064   0.374  0.1485 -0.0247  0.2640
 2225W        W18699  16.966   2.631   2.823  0.0303 -0.0109 -0.0288
 2226W        W18700   3.012   1.363  15.944  0.2905  0.0220 -0.2730
 2227W        W18701  15.645   2.174  12.129  0.0505 -0.1204 -0.0033
 2228W        W18702   5.779  13.395   3.816  0.2781  0.0047 -0.0492
 2229W        W18703  10.267  14.534  14.805  0.0699 -0.0117  0.0600
 2230W        W18704   8.355   7.187  12.328 -0.0653  0.2114  0.0077
 2231W        W18705  17.202   7.755   3.277 -0.0796 -0.0987  0.3055
 2232W        W18706  10.904   4.455   1.839  0.1533  0.0528 -0.3539
 2233W        W18707  11.389   4.016   3.020  0.0531  0.2293  0.2902
 2234W        W18708  12.297   1.486   2.877  0.2081  0.0344  0.3828
 2235W        W18709   3.108   0.992   2.661 -0.1054 -0.3815  0.0423
 2236W        W18710   4.718  14.860  15.172 -0.1786  0.0106 -0.2884
 2237W        W18711   6.319  15.563   5.693 -0.2188  0.0342  0.2454
 2238W        W18712  14.755  11.722   3.175 -0.2280  0.0658  0.1657
 2239W        W18713  15.139   0.689  11.174  0.0673 -0.1460  0.0346
 2240W        W18714   3.807   2.031  12.045  0.0931 -0.5511  0.1226
 2241W        W18715  13.785   4.253   4.753 -0.2643 -0.0891 -0.1353
 2242W        W18716   6.772  11.816  13.953  0.1272  0.0458  0.2772
 2243W        W18717   2.542   8.430  15.967  0.3006  0.3182 -0.1839
 2244W        W18718  11.069   9.009   3.361 -0.0320  0.0477  0.0155
 2245W        W18719  10.878  17.822  14.615  0.3214 -0.1831 -0.1570
 2246W        W18720  10.281  10.129  11.505  0.2850  0.1910 -0.3094
 2247W        W18721  12.851   1.692   4.339  0.1810  0.1030 -0.0386
 2248W        W18722   6.254  15.859   4.388 -0.1603 -0.4677  0.1166
 2249W        W18723   4.194  17.825   0.946 -0.0414 -0.1010 -0.1389
 2250W        W18724   1.396  16.508  11.831  0.0692 -0.1343 -0.0097
 2251W        W18725  13.323   5.990   4.371  0.1611 -0.1896 -0.2308
 2252W        W18726  13.173   1.294   4.363 -0.0854  0.2122 -0.0782
 2253W        W18727   0.643  16.045   3.593 -0.0693 -0.1350  0.0029
 2254W        W18728  11.363  13.165   0.753 -0.0417  0.0663 -0.0516
 2255W        W18729  11.311  10.880   0.908  0.1293 -0.1634  0.1798
 2256W        W18730  12.966   1.977  16.158 -0.0748 -0.0497  0.0518
 2257W        W18731  13.158   0.516  13.648  0.1444 -0.1070  0.1765
 2258W        W18732  17.527  15.663  14.948 -0.1570 -0.0235 -0.1347
 2259W        W18733   2.031  17.106   0.123 -0.0583 -0.0999 -0.0150
 2260W        W18734  15.810  13.907  14.639 -0.3432 -0.0390 -0.1135
 2261W        W18735  17.052  11.223  14.530  0.0221 -0.3131  0.2170
 2262W        W18736   8.136  10.182  15.738 -0.1287  0.1216 -0.0437
 2263W        W18737  15.103   2.586   0.855  0.0354  0.1349  0.0090
 2264W        W18738   6.533  16.840   4.465 -0.1099 -0.0646 -0.1746
 2265W        W18739   5.220  10.722   2.817 -0.0992 -0.0691 -0.0988
 2266W        W18740  12.920  14.982  14.298 -0.3852 -0.2326 -0.0881
 2267W        W18741   7.451  17.522  13.641  0.1416 -0.2048  0.0109
 2268W        W18742   8.521  10.065  15.460 -0.0262  0.1512 -0.1789
 2269W        W18743   2.874  17.737  14.778 -0.0513 -0.2119  0.1167
 2270W        W18744   7.068   6.912  14.643  0.2484  0.1284 -0.2480
 2271W        W18745   8.706   4.991   4.651  0.0169  0.1399 -0.0770
 2272W        W18746   4.548  12.217  12.207  0.1122 -0.2987  0.3088
 2273W        W18747  11.316  15.235  14.130 -0.1415  0.1769 -0.3624
 2274W        W18748  12.227   2.950   3.333 -0.2356 -0.0302  0.1564
 2275W        W18749   9.796   9.134   0.579  0.1754  0.0455 -0.0027
 2276W        W18750   5.074  10.400   4.742  0.0238 -0.2513  0.2878
 2277W        W18751   8.190  15.949  10.908 -0.0117  0.2070 -0.2219
 2278W        W18752   9.094   0.290  11.133  0.1023  0.2428 -0.0061
 2279W        W18753  18.087  17.743  12.825 -0.1326 -0.1274 -0.0928
 2280W        W18754  13.127   1.246  15.920  0.0441  0.0738 -0.0164
 2281W        W18755  12.888   1.535  13.918  0.1260  0.5117 -0.0437
 2282W        W18756   2.520  11.601  15.296 -0.2305  0.0870  0.3744
 2283W        W18757   2.645   4.528  14.280 -0.1297  0.0450 -0.0457
 2284W        W18758   7.486  13.217   5.411 -0.2056  0.0428 -0.4594
 2285W        W18759  11.007  17.659  14.147 -0.3263 -0.2069  0.1125
 2286W        W18760   0.522   7.180  13.798 -0.0447  0.1481 -0.0655
 2287W        W18761   1.337  14.536   3.589  0.1608 -0.1274  0.2774
 2288W        W18762   0.702  10.020   0.077  0.0442 -0.1761  0.3798
 2289W        W18763   0.595  11.768   1.383 -0.2173  0.0191 -0.1368
 2290W        W18764   6.918  14.748  12.395  0.2426 -0.1296  0.4228
 2291W        W18765   6.029   0.350   0.183  0.1710  0.0082  0.1855
 2292W        W18766   8.235  14.535   3.132  0.1624  0.3276 -0.2200
 2293W        W18767   5.076  17.131  12.965 -0.2337 -0.0300 -0.0003
 2294W        W18768   6.104  17.547  15.981 -0.2111 -0.2203 -0.0235
 2295W        W18769  17.822   9.695   1.513  0.2093  0.2264 -0.0547
 2296W        W18770  15.688   9.917   2.124  0.0529 -0.0882  0.0556
 2297W        W18771   7.103   2.920  12.149  0.1961 -0.2114 -0.1478
 2298W        W18772   3.975  11.282  11.405 -0.0028  0.1066  0.1498
 2299W        W18773  17.390  10.301  14.299  0.0192  0.1183  0.1185
 2300W        W18774   8.390   9.896   2.057 -0.3617  0.4343  0.1994
 2301W        W18775   6.422   9.961   3.785 -0.1889 -0.1864 -0.0344
 2302W        W18776   8.039   0.806  13.860  0.1885  0.2391 -0.1345
 2303W        W18777  10.193  16.259  14.611  0.1199  0.2722  0.0356
 2304W        W18778  12.393  13.018   5.476 -0.1088  0.1565  0.1382
 2305W        W18779   0.636   9.016  13.143  0.0012 -0.1254  0.2884
 2306W        W18780   1.594   3.530  13.958 -0.1924 -0.2554  0.0519
 2307W        W18781  16.392  18.048  13.067  0.2433 -0.0047 -0.0704
 2308W        W18782   6.132   1.162   2.792 -0.1951 -0.0982  0.1204
 2309W        W18783  16.820   8.287  13.328  0.0159 -0.0645  0.0688
 2310W        W18784  15.181   5.755  13.664  0.1389  0.1380  0.1383
 2311W        W18785   6.045   7.951  13.089 -0.0630 -0.1114 -0.2713
 2312W        W18786   4.158  13.063   0.377 -0.0503 -0.1003 -0.0180
 2313W        W18787  15.079   4.954   3.341  0.2007  0.3500  0.0282
 2314W        W18788   9.678  17.850   2.735  0.1543 -0.1997 -0.0076
 2315W        W18789  16.583   4.501  13.359 -0.0390  0.1693  0.3836
 2316W        W18790   3.835  14.209  12.468  0.0897 -0.0789 -0.0424
 2317W        W18791  12.457   6.478  11.196  0.0362  0.0701  0.0409
 2318W        W18792  14.677  12.869   5.015  0.3294 -0.0160 -0.0189
 2319W        W18793  13.511  14.806  13.637  0.1194  0.0933 -0.1447
 2320W        W18794   7.999   7.720  12.019  0.3255 -0.0379 -0.0743
 2321W        W18795  13.542  17.678   0.194 -0.0559  0.3008  0.1585
 2322W        W18796  10.050  12.716   1.196 -0.1615 -0.0873  0.0571
 2323W        W18797   7.822   9.602  12.262 -0.0834 -0.0442 -0.0172
 2324W        W18798   8.458  11.586   0.511 -0.2320 -0.3224 -0.0709
 2325W        W18799  13.737   0.521  13.866  0.3789  0.0055 -0.0619
 2326W        W18800   7.912   9.828   2.209 -0.0409 -0.1820 -0.0860
 2327W        W18801  10.354   7.661  13.071  0.0544  0.3522 -0.1176
 2328W        W18802   4.458   2.647  13.108  0.2767  0.1606  0.2860
 2329W        W18803   1.907   9.326  15.278 -0.1794  0.0985 -0.0568
 2330W        W18804   0.193  16.490   5.142 -0.2933 -0.0746 -0.2896
 2331W        W18805  17.019  12.607   3.697  0.0360  0.3851 -0.0544
 2332W        W18806   3.610   6.998  13.762  0.0073 -0.1512  0.2965
 2333W        W18807   3.051  16.621   4.494  0.1364 -0.1384  0.0247
 2334W        W18808   7.150  12.837   9.904 -0.2109  0.2675 -0.3633
 2335W        W18809   8.998  14.477   0.767  0.2080  0.0311 -0.3054
 2336W        W18810  12.995  10.730  12.478 -0.1007  0.0784  0.2435
 2337W        W18811   5.487   9.186  14.783  0.0288 -0.1044  0.0630
 2338W        W18812   7.318   5.270  15.534  0.1546 -0.2555  0.0689
 2339W        W18813   5.370   3.665   0.969  0.2115  0.2035 -0.3578
 2340W        W18814   0.140  17.829  13.525 -0.1386 -0.2231 -0.0639
 2341W        W18815  13.737   4.614  12.206 -0.2700 -0.0018  0.4433
 2342W        W18816  16.343   6.870  16.368 -0.0111  0.1940  0.0588
 2343W        W18817  14.174   5.669  11.302  0.2422  0.2974 -0.0137
 2344W        W18818   3.032   6.807  13.008 -0.2440 -0.1133  0.0180
 2345W        W18819   1.754  13.389  13.824 -0.1438  0.1227 -0.0714
 2346W        W18820   4.683  11.886   0.086 -0.1517  0.1442 -0.0515
 2347W        W18821   6.816   1.030  15.958 -0.1519  0.0352  0.1839
 2348W        W18822   6.242   1.232   5.967  0.0038  0.1573  0.0489
 2349W        W18823   9.417  16.075   5.393 -0.1943 -0.4597  0.1831
 2350W        W18824  14.952  15.921  12.029  0.0268  0.1768  0.0198
 2351W        W18825   9.966  18.137  13.670 -0.0563 -0.0331 -0.3376
 2352W        W18826  12.020   4.303   1.319 -0.2037  0.1340  0.2912
 2353W        W18827  12.396  16.598  14.294 -0.0470  0.2369 -0.0157
 2354W        W18828  15.453   6.711  11.266 -0.0745  0.0332  0.1058
 2355W        W18829   8.225  15.996  16.367  0.1429 -0.1341 -0.0547
 2356W        W18830  11.077  12.870  13.399 -0.2856 -0.1316 -0.2667
 2357W        W18831   1.212   8.678   3.325 -0.0646  0.1694  0.0093
 2358W        W18832  13.114   9.398  10.523  0.1223 -0.0884 -0.0783
 2359W        W18833  17.421  13.570  15.344  0.3487  0.1411  0.0700
 2360W        W18834  12.964  10.821   2.647 -0.0595  0.2686 -0.3507
 2361W        W18835  14.679   2.003   3.526 -0.0805  0.2212  0.2323
 2362W        W18836   6.216   9.782  14.346 -0.3401  0.0130 -0.2114
 2363W        W18837   0.115  10.434  14.307 -0.2680  0.0683  0.0508
 2364W        W18838  10.990   2.228   0.912  0.2842  0.2176 -0.1583
 2365W        W18839  15.484  15.326  15.338  0.2188  0.0472 -0.0694
 2366W        W18840   9.186  12.114   1.567  0.0434 -0.1694 -0.1072
 2367W        W18841   2.583   2.337  15.903  0.0535 -0.2135 -0.2785
 2368W        W18842   3.934  17.941   3.904 -0.1037 -0.2505  0.0365
 2369W        W18843   2.248   9.144  16.342 -0.1334 -0.1651 -0.2247
 2370W        W18844   9.754  14.916   4.310 -0.3243 -0.1007 -0.1568
 2371W        W18845  12.491   5.316  11.927  0.3098 -0.0289  0.0724
 2372W        W18846  16.165  17.726  13.485 -0.0016 -0.2127 -0.1455
 2373W        W18847  15.284   3.992   3.767  0.0250 -0.3536 -0.0584
 2374W        W18848   5.025   4.293  14.126 -0.0206  0.0616 -0.1197
 2375W        W18849  12.101  14.958   0.086  0.0533 -0.1179  0.4057
 2376W        W18850  16.316   9.265  12.194 -0.1915 -0.1819  0.0280
 2377W        W18851   9.806  17.035  13.173  0.0351  0.4134  0.0188
 2378W        W18852   6.667  13.111  12.514 -0.1337 -0.0435 -0.1355
 2379W        W18853   2.840  13.124   4.339 -0.2177  0.0350 -0.2473
 2380W        W18854   7.959   5.982   0.780 -0.2482  0.0737  0.2103
 2381W        W18855  14.544  16.775  14.715  0.1067  0.3365 -0.1010
 2382W        W18856  14.844  10.515  16.323  0.0276  0.1152 -0.0134
 2383W        W18857  16.131  11.835   3.323 -0.0398  0.2037  0.0358
 2384W        W18858   1.772   2.252  13.870 -0.0691  0.2349 -0.1159
 2385W        W18859  14.120   5.795   3.401 -0.0836  0.0305 -0.0023
 2386W        W18860   1.605  16.273  16.109 -0.0635  0.0271 -0.0671
 2387W        W18861  16.892  14.663  12.486 -0.1492  0.0793 -0.0663
 2388W        W18862  17.700   1.111  16.074  0.1771 -0.0694 -0.0346
 2389W        W18863  16.092  17.861   2.084  0.2569  0.2771 -0.0834
 2390W        W18864   6.552   0.378   2.361  0.0238 -0.0179  0.0120
 2391W        W18865  15.175   1.464   5.779  0.1348  0.0745 -0.1717
 2392W        W18866   6.842  14.816  15.826 -0.0989 -0.0743 -0.0229
 2393W        W18867  17.099   1.442  10.797 -0.0650  0.0990  0.0610
 2394W        W18868  17.763  12.620  13.137 -0.0851  0.0954  0.0359
 2395W        W18869   9.126  16.627   1.810 -0.1967 -0.1028  0.0921
 2396W        W18870   3.262   3.811   0.136  0.0332 -0.0686  0.0550
 2397W        W18871  10.489   1.353   0.159  0.0835  0.0110 -0.1853
 2398W        W18872   8.780  10.243  13.746  0.0520  0.2629 -0.1478
 2399W        W18873   9.503   6.997   4.897  0.0427 -0.0787  0.1069
 2400W        W18874   4.731  11.450  12.359  0.1399  0.0909 -0.0809
 2401W        W18875   3.650   8.051   5.245  0.0518 -0.0087 -0.0135
 2402W        W18876   9.362   6.539  11.491 -0.0578  0.0454 -0.0568
 2403W        W18877   1.236   3.850   3.279  0.1715 -0.0070 -0.2930
 2404W        W18878  13.937  13.925   3.172 -0.0861 -0.1812 -0.2229
 2405W        W18879  16.086   6.642  12.170 -0.1060 -0.2706  0.2167
 2406W        W18880  15.019  10.614   5.922 -0.2726  0.3500  0.2508
 2407W        W18881   5.081   5.979   4.146 -0.1861 -0.0166 -0.1729
 2408W        W18882   8.756  12.773   1.760  0.1272  0.2322 -0.2381
 2409W        W18883   6.353  16.491  15.747 -0.3836 -0.0916 -0.1401
 2410W        W18884   3.747   1.597   2.744  0.1865 -0.3282  0.0134
 2411W        W18885   4.674  16.027   4.823  0.1847  0.1949 -0.0630
 2412W        W18886   4.132   2.712   5.614 -0.0113  0.1595  0.0696
 2413W        W18887  17.512  13.299   1.580 -0.0085  0.1219 -0.1489
 2414W        W18888   4.802  15.006   3.996 -0.2902 -0.1014 -0.2351
 2415W        W18889  12.202   6.559   4.766 -0.1877 -0.0388 -0.1591
 2416W        W18890  12.374   9.887   1.735  0.0562 -0.0497 -0.0116
 2417W        W18891  13.617  14.854  15.176 -0.1740  0.0672  0.0024
 2418W        W18892  17.358   0.292  12.272  0.4004 -0.0658  0.3086
 2419W        W18893   3.795   1.696   4.179  0.0333 -0.4555 -0.0832
 2420W        W18894  16.745  13.258  12.942  0.1563 -0.0964 -0.0270
 2421W        W18895  16.669   3.221   0.850 -0.0003  0.0538  0.0078
 2422W        W18896   0.193   3.702  11.357 -0.2782  0.2758 -0.1029
 2423W        W18897   9.407  12.023   4.734  0.1636 -0.2811 -0.0278
 2424W        W18898   1.961   1.230   3.810 -0.2047 -0.1434  0.1391
 2425W        W18899  17.060   4.261   4.719 -0.2051 -0.2880  0.0714
 2426W        W18900   3.568   9.939   1.985  0.3376  0.0149  0.1173
 2427W        W18901  18.003   6.528  12.723 -0.1803 -0.1775 -0.0223
 2428W        W18902   4.982   5.668  15.562  0.1474  0.0109 -0.1360
 2429W        W18903   4.061  12.815   3.275  0.1002  0.0692  0.0147
 2430W        W18904   7.005  10.987   2.666 -0.1045  0.3129 -0.0696
 2431W        W18905   4.348   8.820   1.981 -0.0703  0.0866 -0.0712
 2432W        W18906  12.607   2.272  13.218  0.2276  0.2520  0.1369
 2433W        W18907   8.045   4.553   0.280 -0.0341 -0.0664 -0.0643
 2434W        W18908   3.428   7.898  11.718  0.0887  0.0420 -0.1284
 2435W        W18909  11.873  11.294  12.793  0.0393  0.0141 -0.3345
 2436W        W18910   4.191  11.571  13.072 -0.1168 -0.1256  0.0993
 2437W        W18911   7.649   6.665   4.975 -0.2452 -0.0433 -0.0554
 2438W        W18912  13.904  13.380   0.712 -0.0243 -0.0063  0.2122
 2439W        W18913  10.866   8.201   5.261 -0.0172 -0.2236 -0.2292
 2440W        W18914  15.841   1.350  14.617 -0.0050 -0.0982 -0.0133
 2441W        W18915  12.535   3.551  13.867  0.1200 -0.2198  0.0284
 2442W        W18916  17.033   5.316  16.287  0.2448 -0.0290 -0.0128
 2443W        W18917   4.464  11.283  11.218 -0.1095  0.1094  0.0532
 2444W        W18918   3.687   7.716   5.697 -0.1859 -0.0989 -0.4186
 2445W        W18919   6.826   6.390   4.998 -0.0818 -0.0058 -0.0126
 2446W        W18920  13.346   0.257  16.152 -0.0295 -0.0798 -0.1026
 2447W        W18921  17.656  10.483  15.272 -0.1654  0.0094 -0.0852
 2448W        W18922  18.089   6.815  15.141  0.0599 -0.3930  0.3982
 2449W        W18923   4.150   3.609  14.733  0.1113  0.1230  0.0993
 2450W        W18924   4.162   4.930  13.960  0.0110  0.1617 -0.1561
 2451W        W18925  16.234   0.791   2.715  0.1702 -0.4022  0.2291
 2452W        W18926   7.245   2.709  14.860 -0.2387 -0.4273 -0.3177
 2453W        W18927   9.406  11.845  15.331  0.0678 -0.1055 -0.0178
 2454W        W18928   8.680  16.062  10.755 -0.0187  0.1222  0.1635
 2455W        W18929   0.551   2.617   3.744  0.1349 -0.1298 -0.2288
 2456W        W18930  15.200   1.306  14.032 -0.5599 -0.0901  0.1053
 2457W        W18931  16.540  14.011  12.093  0.1042 -0.0833 -0.1673
 2458W        W18932   7.839   9.303   3.362  0.2825  0.1717 -0.1938
 2459W        W18933  10.822   3.551   1.253 -0.2411  0.0049  0.2035
 2460W        W18934   4.463   0.393  12.123 -0.1281  0.1657  0.0146
 2461W        W18935   8.378  17.159  11.679  0.0581  0.0118 -0.2022
 2462W        W18936   6.635  16.404   3.583  0.0757  0.0438 -0.1245
 2463W        W18937   4.897   8.975  15.492  0.3927  0.3324  0.0486
 2464W        W18938  17.434   6.120   0.426  0.3073 -0.0551  0.3366
 2465W        W18939   4.079  18.176  13.243 -0.1873  0.1126  0.3848
 2466W        W18940  13.169  15.426   1.615 -0.0813  0.1008  0.2651
 2467W        W18941   9.009   8.300  15.196  0.0490 -0.3894 -0.0984
 2468W        W18942   0.399   3.228   5.128  0.1687 -0.1750 -0.4375
 2469W        W18943   2.893  14.522   0.550  0.0246 -0.0661  0.1684
 2470W        W18944  14.484  10.735  15.998 -0.1982  0.2807 -0.0189
 2471W        W18945   3.358  10.899   4.887 -0.0425 -0.0846 -0.1112
 2472W        W18946   6.115  14.912   3.487 -0.0649  0.2362  0.2161
 2473W        W18947   1.202   1.871   3.523  0.0140  0.2818  0.2219
 2474W        W18948  17.047  14.185   4.728 -0.2173 -0.1428 -0.0626
 2475W        W18949   6.177   9.493   0.020 -0.0228  0.3145 -0.1474
 2476W        W18950   3.701  12.548  15.529  0.1303  0.1462  0.2726
 2477W        W18951  17.560   2.052   1.288  0.2042 -0.0060  0.1397
 2478W        W18952   7.827  13.204  10.914 -0.1348  0.0621 -0.0853
 2479W        W18953   7.970   7.482  11.532 -0.3162 -0.0732  0.0992
 2480W        W18954   4.214  14.711  12.902  0.2032  0.0800 -0.2878
 2481W        W18955  13.341   4.618   0.839 -0.2569  0.1995  0.0406
 2482W        W18956   1.174   9.001   0.519 -0.0003 -0.0864 -0.0573
 2483W        W18957  16.773   5.372   4.808 -0.2859 -0.0124 -0.1281
 2484W        W18958  10.141  12.727  11.819 -0.1291 -0.0094  0.0763
 2485W        W18959  17.330   6.212   2.059  0.2539  0.2133  0.0379
 2486W        W18960   5.342  11.188   0.937 -0.4520 -0.1265 -0.0975
 2487W        W18961   4.154  10.962   2.425  0.1956  0.1211 -0.1698
 2488W        W18962   4.488  11.947   3.516 -0.3062 -0.2723 -0.0712
 2489W        W18963   9.662  16.207   3.462  0.0057  0.0948  0.0180
 2490W        W18964  11.608  16.605  15.815  0.1274 -0.2649 -0.2484
 2491W        W18965   9.805  14.676  14.631 -0.0705  0.4798  0.0618
 2492W        W18966   8.369   8.351  10.703 -0.0119 -0.0158 -0.1301
 2493W        W18967   0.083  17.331  15.837  0.2628 -0.3273 -0.1686
 2494W        W18968  10.972   0.240   0.669 -0.1084 -0.0539  0.0534
 2495W        W18969   4.290  16.069   1.793 -0.0555  0.0043  0.1027
 2496W        W18970   4.372   8.254   6.175  0.0887  0.0068  0.0747
 2497W        W18971   8.532   4.565  15.071  0.1244 -0.4040 -0.0091
 2498W        W18972  16.792  10.789  13.172  0.1332 -0.1528 -0.0042
 2499W        W18973   7.911   0.150   4.439  0.1775 -0.1260 -0.0906
 2500W        W18974   6.980  14.000   1.370 -0.3086  0.1002 -0.0036
 2501W        W18975  10.359   8.349   3.373 -0.2650 -0.1713  0.1173
 2502W        W18976  13.633  11.628  12.607  0.1507  0.1196  0.1709
 2503W        W18977  14.440   0.614  11.799 -0.0103 -0.1379  0.1355
 2504W        W18978  17.757   7.972   1.356 -0.1442 -0.0253 -0.1145
 2505W        W18979   3.916   8.037  12.367 -0.0047 -0.0347 -0.2241
 2506W        W18980   4.021   5.066  12.063  0.1878  0.2317 -0.1722
 2507W        W18981   9.812  12.425   3.946 -0.2764 -0.1279 -0.1847
 2508W        W18982   8.817   4.406   3.374 -0.2425  0.1960 -0.0078
 2509W        W18983   0.413   3.220  15.950 -0.0142 -0.1566  0.0968
 2510W        W18984  17.002   3.561  15.451  0.2916  0.2837 -0.0023
 2511W        W18985   5.933   0.124  14.646  0.1043 -0.0663  0.2858
 2512W        W18986   7.215  13.335   4.739  0.2411 -0.0454  0.0363
 2513W        W18987  13.577  15.112   4.675 -0.0929 -0.0527 -0.1894
 2514W        W18988   9.515  11.965  14.626  0.0218  0.1203  0.0170
 2515W        W18989   5.719  13.094   4.257  0.0697 -0.1311 -0.0085
 2516W        W18990   2.500  10.432   2.749 -0.0702  0.3930 -0.1449
 2517W        W18991  15.617  13.877  13.449  0.3911  0.0282 -0.1180
 2518W        W18992  17.973   6.088  12.982  0.1424  0.0181 -0.0594
 2519W        W18993  13.754   7.391  11.870 -0.0826 -0.2452 -0.2566
 2520W        W18994   3.046  12.499   2.592 -0.1579  0.1769  0.1189
 2521W        W18995   5.073  17.374   1.597  0.1955 -0.0904 -0.2746
 2522W        W18996  15.916   1.066   0.651 -0.0131  0.2150 -0.2101
 2523W        W18997  10.889   3.178   5.375 -0.0672  0.0020 -0.0319
 2524W        W18998  11.012  14.532  12.262  0.0891 -0.3282 -0.0512
 2525W        W18999  11.263  15.952  15.965 -0.2873 -0.1283 -0.2191
 2526W        W19000  12.462   9.107   3.963 -0.0608  0.0771  0.3281
 2527W        W19001   5.353  13.554  11.760  0.1567  0.0117 -0.0072
 2528W        W19002  13.974   0.277   0.890  0.0995 -0.2833 -0.4368
 2529W        W19003  17.427   3.716  12.703  0.0805  0.3358  0.1731
 2530W        W19004   0.204   5.891   5.447 -0.0622  0.2111  0.1451
 2531W        W19005   2.662   7.310   3.692 -0.1803 -0.3023  0.1468
 2532W        W19006   4.909   5.670  14.002  0.2610  0.1697 -0.1074
 2533W        W19007  11.920  12.167   3.170 -0.1101  0.0937  0.1803
 2534W        W19008  17.650   4.099   1.628 -0.0144  0.2477 -0.0317
 2535W        W19009   4.431  11.158  13.162 -0.0028 -0.1030  0.3584
 2536W        W19010   8.997   3.900   0.656  0.0535  0.2722  0.1222
 2537W        W19011   9.200  15.657  15.436 -0.0703 -0.0703  0.0001
 2538W        W19012   1.261   3.699  11.473 -0.0035 -0.1137  0.2736
 2539W        W19013   6.064  16.589   3.587  0.3029 -0.0138 -0.1749
 2540W        W19014   7.751  16.518  15.936  0.0788 -0.0296 -0.1932
 2541W        W19015   2.274   8.113   4.941 -0.1098  0.1850  0.2773
 2542W        W19016  16.083   5.526  16.005 -0.3001  0.0998  0.0075
 2543W        W19017   5.528   0.193   3.687 -0.0200  0.0073  0.0755
 2544W        W19018   2.253   8.066  12.996 -0.0244 -0.3329  0.1714
 2545W        W19019   7.451  11.029   1.736  0.3074  0.0950 -0.3325
 2546W        W19020  17.490  15.535  12.665 -0.0567 -0.1208 -0.0149
 2547W        W19021  11.206   2.741   3.618 -0.0060  0.0583 -0.0930
 2548W        W19022   4.212   1.976  13.004  0.1215  0.0712 -0.0010
 2549W        W19023   8.811   4.332  13.008 -0.2585  0.0321  0.1139
 2550W        W19024  15.161  15.784   5.431 -0.0349  0.0352 -0.1630
 2551W        W19025   1.568  17.005   1.782 -0.0562  0.0239 -0.0240
 2552W        W19026  11.811   4.699   1.041 -0.0716 -0.1307  0.1070
 2553W        W19027  14.275  13.096  12.396  0.1378  0.0863  0.2069
 2554W        W19028  13.232   6.166   2.479  0.1029  0.0281 -0.1392
 2555W        W19029   8.082  18.011  14.178  0.2634 -0.1521 -0.0126
 2556W        W19030  11.429   9.630  12.447 -0.0203  0.1001 -0.0983
 2557W        W19031   3.266  13.386   4.469 -0.3367  0.0463 -0.3563
 2558W        W19032   7.626  12.947   3.271  0.0890 -0.2339  0.1816
 2559W        W19033  18.113   3.723  10.678 -0.2227 -0.0539 -0.4712
 2560W        W19034   2.268   5.630   1.797 -0.3014  0.1657  0.0392
 2561W        W19035   0.441   8.827   4.154  0.2465  0.3304  0.3566
 2562W        W19036  10.874   3.570  12.177  0.4673 -0.3291 -0.1995
 2563W        W19037   3.108  13.497   3.975  0.0455  0.0947 -0.2009
 2564W        W19038   9.137  16.313  10.719 -0.2808 -0.0002  0.1148
 2565W        W19039   7.325   7.561  15.968 -0.1751  0.0157 -0.1810
 2566W        W19040  10.238  10.785  15.399  0.0304  0.0266  0.0195
 2567W        W19041   1.120  15.876  13.932 -0.1398  0.0212 -0.1549
 2568W        W19042   9.447   1.889   1.906 -0.2738  0.3658 -0.1722
 2569W        W19043   6.950   2.181  12.750 -0.0979 -0.3239  0.0977
 2570W        W19044  12.266  14.866   0.948 -0.2192  0.5249  0.1568
 2571W        W19045   9.819   5.237  15.601 -0.2103  0.0871 -0.1736
 2572W        W19046   2.510   8.336   2.995 -0.1487  0.1148 -0.1315
 2573W        W19047  15.939  14.495  15.437  0.0502 -0.1860 -0.0585
 2574W        W19048  13.885  12.832  16.055  0.0697 -0.1447  0.0322
 2575W        W19049   8.102   5.509  11.909  0.1538  0.1345 -0.2672
 2576W        W19050  10.758   1.939   2.990 -0.2131  0.3137 -0.1604
 2577W        W19051   3.385   1.981   2.896  0.1136  0.4819 -0.0549
 2578W        W19052  14.497   4.978  12.256 -0.0160  0.1475  0.0303
 2579W        W19053   5.111   7.482   0.260 -0.0349  0.0772  0.0443
 2580W        W19054  10.953   2.991  13.128  0.0471  0.1854  0.3188
 2581W        W19055  12.069   3.636   2.105 -0.0669 -0.1921 -0.2006
 2582W        W19056  17.165   8.024  15.422 -0.0859  0.0566 -0.3797
 2583W        W19057  17.957  13.109  13.049 -0.2156  0.0522  0.2407
 2584W        W19058   0.121   4.057   4.792  0.1308 -0.0137 -0.2525
 2585W        W19059   8.491   9.246   5.097  0.2437 -0.1198  0.1725
 2586W        W19060   7.846  12.013  13.132  0.1556 -0.0917 -0.0052
 2587W        W19061   2.741   1.309   0.692  0.0338 -0.0480  0.1973
 2588W        W19062   9.985  11.112  13.479  0.0532  0.2633 -0.2244
 2589W        W19063  15.095   4.635  11.605  0.0152 -0.3986  0.1317
 2590W        W19064  10.009   6.735   4.061 -0.0963  0.2572  0.1473
 2591W        W19065  17.004  15.495  13.766  0.2071 -0.0231 -0.2997
 2592W        W19066   0.094   4.134   5.356 -0.2740 -0.1463 -0.0439
 2593W        W19067  17.152   7.119   2.110  0.1681 -0.1589 -0.0623
 2594W        W19068   7.756  14.410   1.255  0.0709  0.1315 -0.2160
 2595W        W19069   9.289  16.268  16.120  0.2541  0.1687 -0.0467
 2596W        W19070  10.590   6.425  15.302  0.0094 -0.0746  0.0716
 2597W        W19071  11.252   9.000  13.361 -0.1227 -0.0032 -0.2405
 2598W        W19072   0.828   9.711  13.597  0.1588 -0.0661 -0.3247
 2599W        W19073  17.517   5.128  14.594  0.2474  0.1217 -0.4563
 2600W        W19074  18.069  17.993  14.328  0.0993  0.0868 -0.1384
 2601W        W19075  10.426   6.986  14.183  0.2996  0.0818  0.1368
 2602W        W19076  17.041   2.163  13.842 -0.0014 -0.1934 -0.2720
 2603W        W19077   5.035  15.186  15.802  0.0857  0.1694 -0.1266
 2604W        W19078  16.566  13.278  15.477  0.0551  0.2866 -0.0393
 2605W        W19079  12.640   6.790   1.594  0.0503  0.4441 -0.0454
 2606W        W19080  13.345  13.198   5.894 -0.0598  0.1999  0.1539
 2607W        W19081   5.577   0.190   5.305  0.0840  0.0186  0.1872
 2608W        W19082  13.435  13.291   1.462  0.1054 -0.0933  0.1604
 2609W        W19083  11.571   1.499  11.328 -0.0491  0.2444 -0.1242
 2610W        W19084   6.645  12.532  15.122  0.0291  0.0059  0.0095
 2611W        W19085   5.043   4.607   3.395  0.0322  0.0839  0.0399
 2612W        W19086   1.800   3.956   1.184 -0.2263  0.1637  0.0433
 2613W        W19087   0.969  17.262  14.879 -0.0926  0.1316  0.0574
 2614W        W19088   9.152   0.319   3.954  0.0944  0.0796  0.3157
 2615W        W19089  12.881  15.129   5.281  0.4099 -0.2934 -0.1378
 2616W        W19090  15.966   0.108   1.844 -0.1629 -0.1323 -0.0584
 2617W        W19091   1.729  12.533  14.838 -0.0417  0.0244 -0.1322
 2618W        W19092  18.060  10.941   0.023 -0.2968 -0.2572  0.0040
 2619W        W19093  14.198  11.001   5.103 -0.0549 -0.0620  0.2311
 2620W        W19094   1.741  16.787  15.993 -0.0395  0.0302 -0.1334
 2621W        W19095   2.005   0.864   3.468  0.1360  0.5758 -0.1794
 2622W        W19096   4.172  17.971   1.620  0.0446  0.0989 -0.0490
 2623W        W19097  16.702   1.941   3.516  0.0833  0.0182  0.3469
 2624W        W19098  11.724   6.132   3.683  0.2868 -0.1539  0.1562
 2625W        W19099   4.316   5.216  11.677  0.2451  0.2640  0.1801
 2626W        W19100  10.102   5.073  13.749 -0.0085  0.1462  0.1090
 2627W        W19101  15.722  17.418   2.001 -0.2221 -0.2159  0.1479
 2628W        W19102   3.696   8.236   1.545 -0.1811  0.2760  0.1033
 2629W        W19103   6.531   1.263   5.020 -0.1274 -0.0153 -0.2954
 2630W        W19104  16.081  12.354  13.933  0.1853  0.1446  0.1705
 2631W        W19105   1.325  11.768  13.661  0.1568 -0.0795  0.1379
 2632W        W19106   0.201   7.064   3.580  0.0473  0.3637 -0.1093
 2633W        W19107  16.146  12.862   3.535  0.0010  0.0091  0.1392
 2634W        W19108   1.245  10.515   0.375  0.0922 -0.0256  0.1084
 2635W        W19109   6.037   8.997   0.939  0.2492  0.0200 -0.1743
 2636W        W19110   1.973  12.949   4.360  0.2402 -0.0357  0.2846
 2637W        W19111   5.160  17.904  14.025  0.3372 -0.2203 -0.1564
 2638W        W19112   4.489  13.497   4.951  0.3932 -0.0968 -0.2588
 2639W        W19113  10.379  15.060   2.055  0.2796 -0.1627  0.2736
 2640W        W19114  14.508   7.585   1.107  0.2997  0.1738 -0.1122
 2641W        W19115  16.458   3.472   5.202 -0.1879 -0.0266 -0.1535
 2642W        W19116   9.726   0.816  13.688 -0.1135  0.2081  0.3103
 2643W        W19117  14.863  11.858   5.446  0.3916 -0.0051  0.0832
 2644W        W19118  16.140  12.819  15.991 -0.0571 -0.1552  0.2813
 2645W        W19119  12.702  14.514   0.746  0.2272 -0.1441 -0.0252
 2646W        W19120  15.611   7.200   2.081 -0.0511 -0.0057 -0.3015
 2647W        W19121  10.596   0.929   0.754  0.0551 -0.0557 -0.4072
 2648W        W19122  15.706   2.586   0.932  0.0999  0.0074  0.1395
 2649W        W19123  14.019  16.481  13.009  0.0783 -0.2843  0.2009
 2650W        W19124  18.083   3.191  14.449 -0.0032  0.1133 -0.1265
 2651W        W19125   0.559   1.206  11.611 -0.0095  0.0856 -0.1967
 2652W        W19126   5.843  13.131   3.286 -0.0948  0.0913 -0.0671
 2653W        W19127  17.588  14.774   3.348  0.1058 -0.0920  0.3594
 2654W        W19128  17.799  17.128   1.525 -0.0643  0.1993  0.3635
 2655W        W19129   6.237   6.463  11.843  0.1759  0.0219 -0.2938
 2656W        W19130  10.761  11.410  16.211  0.1412 -0.2256 -0.0565
 2657W        W19131   9.431   3.252  14.246 -0.2514 -0.2500  0.0242
 2658W        W19132   3.700   0.567   1.363  0.1211  0.0837 -0.2368
 2659W        W19133   8.155   3.104  11.802 -0.2153 -0.0609 -0.0435
 2660W        W19134   5.175  14.594   4.848  0.0080 -0.0224  0.3188
 2661W        W19135   7.649   5.377  16.349 -0.3079 -0.0107  0.3421
 2662W        W19136   0.906  10.590   3.722 -0.2824  0.2148 -0.3250
 2663W        W19137   1.990   0.593  13.550 -0.1670 -0.3655  0.0904
 2664W        W19138  11.238  13.874   5.375  0.0015  0.4210 -0.1013
 2665W        W19139  11.851  15.149   2.177  0.0203 -0.0347 -0.0815
 2666W        W19140   9.342  16.280  14.781 -0.0251  0.1238 -0.0262
 2667W        W19141   1.086   2.900  13.964 -0.0760 -0.0647 -0.2539
 2668W        W19142   9.747  14.604  11.802 -0.0006 -0.0269 -0.0005
 2669W        W19143  10.536   1.810   3.977  0.1160 -0.0125  0.1084
 2670W        W19144  10.775   2.277  16.360 -0.1029 -0.0677 -0.1668
 2671W        W19145  12.179   7.455  15.906  0.1030  0.1349  0.1797
 2672W        W19146  10.544   4.059  16.232  0.1106 -0.3869 -0.1493
 2673W        W19147   6.799   9.162  15.346  0.2350  0.2213 -0.0839
 2674W        W19148   8.982  16.637   3.448 -0.0781 -0.0430  0.1688
 2675W        W19149  12.512   5.251   1.634 -0.0453  0.0582  0.0283
 2676W        W19150   6.509  15.571  15.368  0.1124  0.0823  0.2016
 2677W        W19151  10.723   0.605   3.145 -0.2369 -0.0152  0.0644
 2678W        W19152   9.133  12.977   1.038 -0.1781 -0.1253  0.2579
 2679W        W19153   5.025  10.515  14.068  0.0626  0.2416 -0.3303
 2680W        W19154  13.045   2.847   4.516  0.2925  0.1989  0.2570
 2681W        W19155   1.797  15.018  15.930  0.4257  0.0989  0.0543
 2682W        W19156  16.089   7.701   3.752  0.1049  0.1910  0.1933
 2683W        W19157   1.134  10.070  15.747 -0.1088  0.0314 -0.1024
 2684W        W19158   8.490  10.679  12.871 -0.2737  0.1902  0.0852
 2685W        W19159   9.676  12.663   5.315 -0.1162  0.0376  0.0067
 2686W        W19160   2.235  10.036  14.973  0.2949 -0.1649  0.0333
 2687W        W19161   0.088   2.695   3.081 -0.1074 -0.1981  0.1823
 2688W        W19162  16.053   5.460   0.838  0.0726 -0.0498  0.0458
 2689W        W19163  14.762  15.009   3.669 -0.0721 -0.2456  0.1194
 2690W        W19164  15.864   5.310   2.436 -0.2799 -0.0667  0.0450
 2691W        W19165   7.411  11.151  13.127  0.0513 -0.2057 -0.1046
 2692W        W19166   1.825   6.815   0.679  0.0345  0.2195 -0.2593
 2693W        W19167  14.604  13.403  11.378 -0.1936  0.1574 -0.1391
 2694W        W19168   7.131   9.838  10.945 -0.0576  0.1379  0.0216
 2695W        W19169   3.206   3.243  11.661 -0.2166  0.1832 -0.1972
 2696W        W19170  14.645  14.457   2.525  0.4139  0.2214 -0.0801
 2697W        W19171  13.547  14.028   5.460 -0.0044  0.0548 -0.1959
 2698W        W19172  11.911  12.474   1.710 -0.3393 -0.0419  0.0950
 2699W        W19173   5.791  14.367   3.318  0.1091  0.1680 -0.0497
 2700W        W19174   0.004  13.655   3.886 -0.1503 -0.1164 -0.3325
 2701W        W19175   3.516  16.444   2.536  0.1523 -0.2344  0.1780
 2702W        W19176   6.524   6.812  14.708 -0.1575  0.2089 -0.0410
 2703W        W19177   2.580   4.124  14.609 -0.4380  0.0639  0.2981
 2704W        W19178   6.860   5.710   3.049 -0.1663 -0.2312 -0.0854
 2705W        W19179  14.284  15.308  13.117  0.0806  0.3232  0.0503
 2706W        W19180  14.845   3.147   0.798 -0.0181 -0.1432 -0.1647
 2707W        W19181   4.326   1.620  11.348 -0.3727 -0.5282  0.1456
 2708W        W19182  11.795   4.299  16.085 -0.1105  0.2828  0.3257
 2709W        W19183   1.524   8.468   0.370 -0.0868  0.0343 -0.3628
 2710W        W19184   2.261  12.524   3.248 -0.0172  0.0286  0.3537
 2711W        W19185   7.138  16.699   0.727  0.1725  0.0896 -0.1030
 2712W        W19186  13.983  15.095  13.664  0.2195  0.2456  0.0326
 2713W        W19187   2.128  12.446   1.985 -0.1049  0.0245 -0.0579
 2714W        W19188  10.580  16.118  12.728  0.0155 -0.0046  0.0860
 2715W        W19189  17.567  15.932  15.527  0.0079  0.0371 -0.2329
 2716W        W19190   6.226   5.167  12.808  0.0321 -0.0133  0.0335
 2717W        W19191  17.557  12.213   1.652 -0.2427 -0.0373 -0.0970
 2718W        W19192   4.307  10.367  13.371  0.3040  0.0951  0.1071
 2719W        W19193  14.885  10.641   1.165  0.2256 -0.1674 -0.0704
 2720W        W19194   3.472  14.942   1.488 -0.2081  0.1023  0.1118
 2721W        W19195   4.840   4.850   0.921 -0.1486 -0.0335 -0.0677
 2722W        W19196   4.530   7.455  14.910 -0.2892 -0.1673 -0.0094
 2723W        W19197   4.409  14.170   2.895 -0.0617  0.2084 -0.1697
 2724W        W19198  14.148   5.466  15.622  0.2161 -0.0246 -0.0729
 2725W        W19199   1.989   5.592  16.142  0.3482  0.1003  0.3921
 2726W        W19200   2.498  13.828  15.795 -0.0031 -0.0591 -0.2508
 2727W        W19201  18.077  11.293  12.967 -0.0074  0.0544  0.0658
 2728W        W19202  12.086   6.518   0.494  0.0107  0.0522 -0.3060
 2729W        W19203  12.285  10.215  15.334  0.0394  0.2719 -0.0374
 2730W        W19204   5.690   9.741   4.570 -0.1355 -0.0162 -0.3474
 2731W        W19205  17.798   4.590  12.796 -0.0534  0.0743 -0.1382
 2732W        W19206  11.817   5.479   6.050  0.3985  0.1036 -0.1675
 2733W        W19207   5.853  12.552  15.585  0.1689  0.0311  0.0557
 2734W        W19208   9.885   4.506  12.145  0.3166  0.0574 -0.0634
 2735W        W19209   4.648   7.162   4.316 -0.5594  0.1169  0.1394
 2736W        W19210  17.958  15.325   2.922 -0.4042  0.2359  0.2382
 2737W        W19211  12.779   1.958   3.870  0.0777  0.0386  0.2876
 2738W        W19212   4.317  14.538   0.387 -0.0708  0.0107  0.2441
 2739W        W19213   0.541  17.359  14.308  0.0336  0.1824 -0.2805
 2740W        W19214   7.164  12.701  15.881  0.2293  0.3295  0.2127
 2741W        W19215   5.541   6.160   2.605 -0.1403  0.2044 -0.1297
 2742W        W19216   2.399  14.429   3.168 -0.1849  0.0432 -0.1675
 2743W        W19217   4.461  15.458  14.486  0.0737  0.0547 -0.0276
 2744W        W19218  17.774   1.953   4.169 -0.0984  0.0136 -0.3385
 2745W        W19219  12.419   4.423  14.072 -0.0970  0.0384 -0.2669
 2746W        W19220  12.930  13.284  11.702 -0.2063  0.2455 -0.0408
 2747W        W19221   3.889   8.998  16.304 -0.0980 -0.0242 -0.0332
 2748W        W19222   3.159   4.838   4.366  0.4641  0.0925  0.1925
 2749W        W19223   7.284   4.353   2.065 -0.0011 -0.1040  0.0383
 2750W        W19224  14.929   5.722  12.783  0.0611  0.0498 -0.2720
 2751W        W19225  10.151  11.790   2.675 -0.0365 -0.1788  0.1755
 2752W        W19226   8.988   7.966   1.515 -0.0182  0.0534  0.2136
 2753W        W19227   2.017  10.551   4.989 -0.2981 -0.0735 -0.1562
 2754W        W19228   2.152   0.990   1.567 -0.1384  0.0758 -0.0708
 2755W        W19229  14.809   7.326   3.437 -0.2116  0.2644  0.0707
 2756W        W19230  12.742  17.987  14.980 -0.0044  0.0036 -0.3387
 2757W        W19231  10.153   2.637  15.795 -0.0591  0.1432  0.0710
 2758W        W19232  16.541  17.566  13.194  0.1438  0.1499 -0.1004
 2759W        W19233   1.771   0.109  14.123  0.1855  0.0318 -0.0678
 2760W        W19234  11.722   4.450   0.343 -0.0354 -0.0968  0.2623
 2761W        W19235   1.789  16.650  10.658 -0.0073  0.0857 -0.1359
 2762W        W19236  18.002   2.459  16.280 -0.0872  0.2702  0.1062
 2763W        W19237  16.827   2.236  12.512 -0.0637 -0.0657 -0.3204
 2764W        W19238   1.092   2.435   2.622  0.2359 -0.0080 -0.0624
 2765W        W19239   4.319   7.890  15.668 -0.2192  0.2323 -0.3134
 2766W        W19240  11.703  10.809   5.253 -0.0081  0.2549 -0.0421
 2767W        W19241   3.168   1.684   0.877 -0.0582 -0.1670  0.0214
 2768W        W19242  16.681   5.578   2.820  0.2581  0.1295  0.2655
 2769W        W19243  14.777  13.920   2.460 -0.1296 -0.0649  0.4474
 2770W        W19244   4.146  15.586   1.742  0.3208 -0.0632 -0.2309
 2771W        W19245   6.665  11.034   0.305  0.2179 -0.0288  0.1602
 2772W        W19246  12.524   1.046  16.035  0.0401 -0.1468 -0.3269
 2773W        W19247   2.862  14.101   2.126 -0.1143 -0.1708 -0.1755
 2774W        W19248   6.934  14.672   4.806  0.0406 -0.1399  0.1360
 2775W        W19249   0.981   1.697  16.191  0.1532  0.1132  0.3402
 2776W        W19250   4.649   5.065   2.444 -0.1342 -0.3268 -0.0490
 2777W        W19251   1.822   0.174   4.257 -0.0569 -0.0854 -0.3969
 2778W        W19252   9.661  14.210   1.969 -0.3615 -0.1885 -0.0774
 2779W        W19253  11.251   3.592   2.168  0.0467  0.2004  0.3276
 2780W        W19254  10.463  11.475   0.845  0.4273  0.1485  0.1221
 2781W        W19255  17.284  11.713   3.924  0.1593 -0.0793 -0.2241
 2782W        W19256  15.466  16.229   0.976 -0.0637  0.0495 -0.0290
 2783W        W19257  11.532   2.947  16.209 -0.3177  0.0450  0.0908
 2784W        W19258  12.925  10.222   5.091 -0.0253 -0.4384 -0.2530
 2785W        W19259  18.020  10.704   5.227  0.4609  0.1117 -0.1650
 2786W        W19260   2.327  14.244  16.080  0.4149 -0.3158  0.0272
 2787W        W19261  11.569   6.002  13.444  0.2610 -0.0437  0.2264
 2788W        W19262   0.973   9.537   4.198 -0.3358 -0.2646  0.0962
 2789W        W19263  13.332   0.906  11.092  0.0654  0.2115  0.0629
 2790W        W19264   6.125   7.433  11.610  0.1538 -0.1112  0.0149
 2791W        W19265   2.664  12.760  14.533  0.0981 -0.0705  0.1967
 2792W        W19266   5.022   6.520  12.614  0.1224 -0.0035 -0.2955
 2793W        W19267   2.800   7.848  14.843  0.0305  0.1985  0.0443
 2794W        W19268  11.628   2.024   3.514 -0.1735 -0.0620 -0.2358
 2795W        W19269   4.012  12.887  10.873 -0.2661  0.0153  0.1099
 2796W        W19270  16.091  17.703  12.370  0.1342  0.0134 -0.2085
 2797W        W19271   0.177  17.454   4.309  0.0229 -0.3879  0.0069
 2798W        W19272   4.105   0.306   3.596 -0.0394 -0.1383  0.2096
 2799W        W19273  10.183  12.747   2.376 -0.3316  0.0920  0.0708
 2800W        W19274   5.973  12.774  14.048  0.0120  0.0795 -0.1143
 2801W        W19275   4.871   1.120   0.289  0.2971 -0.1283 -0.1711
 2802W        W19276   6.749   6.631   2.165  0.1392 -0.3160  0.0430
 2803W        W19277   7.189   9.602  15.315  0.3299 -0.2804  0.1942
 2804W        W19278   5.410   7.781  14.761 -0.0392 -0.1166 -0.0389
 2805W        W19279  17.116   4.954   3.835 -0.1179  0.1157 -0.1120
 2806W        W19280   6.116  14.270   3.729 -0.0141  0.1550 -0.3539
 2807W        W19281   8.895  17.480  13.027 -0.0754 -0.0316 -0.0996
 2808W        W19282   3.710  16.796  14.986 -0.3059  0.2113  0.2791
 2809W        W19283   3.612   5.977   2.564  0.0394 -0.0217  0.4256
 2810W        W19284  12.046  10.673   0.400 -0.0987 -0.1748  0.1034
 2811W        W19285  14.252  15.472   5.475 -0.1002 -0.0816 -0.1087
 2812W        W19286   0.923   0.366   4.331  0.1438  0.0380 -0.4321
 2813W        W19287  18.026  17.857  15.725 -0.1040 -0.3639  0.0250
 2814W        W19288  18.154  15.513  11.878  0.4133 -0.1029 -0.1096
 2815W        W19289   8.953   5.833   4.354  0.1247 -0.0790  0.1456
 2816W        W19290   9.028  12.479  15.986 -0.2673 -0.1207  0.0511
 2817W        W19291  13.026  10.253  11.728 -0.0080  0.3821 -0.1036
 2818W        W19292   3.466   4.224   3.456 -0.0548  0.0613  0.1957
 2819W        W19293   8.996  13.263  12.611  0.2333  0.0475 -0.2682
 2820W        W19294   6.455  13.952   2.102 -0.2362  0.0713 -0.3944
 2821W        W19295   4.211  13.899   3.319 -0.2097 -0.1639  0.1007
 2822W        W19296   7.554   8.977  16.057  0.1778  0.6349 -0.1284
 2823W        W19297  11.259  15.434  12.714  0.0904 -0.0951 -0.0298
 2824W        W19298  10.534   4.552   5.486  0.1051 -0.0195 -0.0415
 2825W        W19299  12.767   9.068   1.751  0.0441  0.2991 -0.1387
 2826W        W19300   1.637  15.955   3.929  0.0032  0.0282 -0.0599
 2827W        W19301  15.245   9.946  13.064 -0.3626  0.1843  0.1744
 2828W        W19302   6.968  16.445   3.022  0.0383  0.1016 -0.1200
 2829W        W19303   6.372   5.448  13.853  0.1586 -0.0972 -0.1006
 2830W        W19304   5.363  11.297   3.025  0.1566 -0.0769 -0.4422
 2831W        W19305   0.522   0.296  11.887 -0.2673  0.1213 -0.0279
 2832W        W19306   2.913  12.980  11.106  0.1109 -0.0111  0.2152
 2833W        W19307  17.247  17.702   4.723  0.2284  0.2695  0.2387
 2834W        W19308   7.643   5.503   0.917  0.1894 -0.1633  0.0953
 2835W        W19309   3.661  11.788   3.693  0.1100 -0.1337  0.0528
 2836W        W19310  14.090   8.539  15.604 -0.2171  0.0243 -0.0003
 2837W        W19311   2.640   1.421  15.031  0.2188 -0.3936  0.5975
 2838W        W19312   8.966   2.512  15.358  0.1268  0.1479  0.1571
 2839W        W19313   9.137   7.754   3.640 -0.2006  0.0667  0.2415
 2840W        W19314   4.364   5.242  15.941  0.1724  0.3568 -0.2885
 2841W        W19315   0.552   1.950  11.793 -0.0854  0.1689  0.1572
 2842W        W19316  17.688   6.823  15.455  0.1742  0.0860  0.1611
 2843W        W19317   7.538  17.464  14.250  0.0122 -0.1814  0.1123
 2844W        W19318  10.812  14.525   2.048  0.0739 -0.2068 -0.1937
 2845W        W19319  17.656  11.724  15.209 -0.0134 -0.5037 -0.1506
 2846W        W19320   3.918  12.264   4.853  0.1609 -0.0708 -0.0048
 2847W        W19321   8.539  11.252   5.705 -0.1264  0.3422 -0.2753
 2848W        W19322  11.780  10.543  12.219  0.1702  0.1653  0.0400
 2849W        W19323   2.117   5.425  12.663  0.2064  0.0447 -0.3408
 2850W        W19324  12.086  12.100  14.610 -0.2201  0.2715  0.3871
 2851W        W19325   1.860   3.264  16.272  0.0012  0.1126  0.2461
 2852W        W19326  12.643  12.181   3.310  0.0804  0.2242 -0.1143
 2853W        W19327   2.260   7.539   1.918 -0.2766 -0.0252 -0.0923
 2854W        W19328  14.058  15.556  15.999 -0.0678 -0.1571  0.0750
 2855W        W19329   3.997   9.420   1.105  0.1979  0.2488 -0.1327
 2856W        W19330   7.146  13.644  12.477 -0.0203  0.1288 -0.0103
 2857W        W19331  11.545  11.004  12.564  0.0059  0.0958  0.0462
 2858W        W19332   4.141  12.485  14.666 -0.0206 -0.2193 -0.1803
 2859W        W19333   0.871   8.234  15.376  0.1800  0.1401  0.0800
 2860W        W19334   7.365   2.521   3.587  0.0346 -0.0876  0.2610
 2861W        W19335   7.844  12.728  13.870  0.2606  0.0536 -0.0133
 2862W        W19336   8.450   4.802  14.585  0.1886  0.1695  0.0809
 2863W        W19337   8.753   0.788  12.613 -0.2663  0.1173 -0.1752
 2864W        W19338  12.179   3.214  16.348  0.2538 -0.0557  0.1505
 2865W        W19339   9.730  13.899  12.511  0.2915  0.0307 -0.2140
 2866W        W19340  13.219   1.966   4.126  0.0389  0.2573 -0.0673
 2867W        W19341  16.431   0.125   0.427  0.2826  0.1094  0.0329
 2868W        W19342  13.964   4.460   1.229  0.2473 -0.0004  0.2064
 2869W        W19343   0.636   7.464  15.434 -0.2745  0.2302 -0.1233
 2870W        W19344   9.933   9.339  12.170  0.0532 -0.1025 -0.1321
 2871W        W19345  10.305   3.348   4.335 -0.0301 -0.0864  0.1115
 2872W        W19346  16.072   2.619  14.936  0.0253 -0.2025  0.0198
 2873W        W19347  10.609  13.515  15.492  0.0116  0.0754 -0.1630
 2874W        W19348   6.818   3.320   0.858 -0.0039  0.2269 -0.0052
 2875W        W19349  12.876   0.143   1.281 -0.1481 -0.0695 -0.1324
 2876W        W19350   5.114   8.407   0.231  0.4151 -0.0580  0.0335
 2877W        W19351  15.660  13.019  12.775  0.1477 -0.2387  0.4117
 2878W        W19352  12.899  15.568   5.835  0.0827  0.1375  0.1953
 2879W        W19353   6.797   1.575  14.891  0.1565  0.1151 -0.0230
 2880W        W19354  15.516  17.141   4.109 -0.1339 -0.2379 -0.0333
 2881W        W19355   3.641   4.420   4.441  0.0220  0.2569  0.0211
 2882W        W19356  12.410  15.298  13.347 -0.1906  0.0514  0.0952
 2883W        W19357  13.712  16.191   2.994 -0.2660 -0.2724 -0.2340
 2884W        W19358   5.927   0.863   5.727 -0.2865  0.2491  0.0436
 2885W        W19359   1.350   3.537  16.206  0.0743 -0.1419 -0.3292
 2886W        W19360   8.478   1.252   3.188 -0.0201  0.3190 -0.1680
 2887W        W19361   9.332  11.588  16.248 -0.0068 -0.0609 -0.2451
 2888W        W19362   2.119   2.173   3.855  0.1746  0.0070  0.1261
 2889W        W19363   6.091  10.111  13.944 -0.1914  0.0891 -0.0192
 2890W        W19364   4.838   3.265   4.955  0.2482  0.0181  0.4502
 2891W        W19365  14.196   3.422  15.035  0.0491 -0.0519  0.0233
 2892W        W19366   9.166   0.042   4.451 -0.3034  0.2408  0.1643
 2893W        W19367   7.600  12.471  12.847  0.2452 -0.0299 -0.1177
 2894W        W19368  17.202   4.963   1.442  0.2913 -0.0479  0.0184
 2895W        W19369  15.558   7.700   3.932 -0.0055  0.1154 -0.1642
 2896W        W19370  17.043   5.268   3.084 -0.0159  0.0619  0.4204
 2897W        W19371   8.894   4.530  12.029  0.0643 -0.0749  0.2030
 2898W        W19372  15.270  17.021  16.274 -0.0992  0.1269  0.1198
 2899W        W19373  17.256  15.471  15.400 -0.3318  0.0208 -0.2838
 2900W        W19374   6.764   2.889  11.758 -0.2029 -0.1373  0.0848
 2901W        W19375   4.260   8.222  12.973  0.2888 -0.0816 -0.2035
 2902W        W19376  12.215   5.141   3.501 -0.1192 -0.1967 -0.0356
 2903W        W19377  12.855  14.157   2.348  0.0821  0.0239 -0.3404
 2904W        W19378  16.907   3.168   1.470  0.1710  0.0294 -0.2245
 2905W        W19379  17.144  14.898   1.080 -0.2758 -0.1349 -0.1548
 2906W        W19380  17.372  11.453  14.215 -0.2009  0.3720  0.1596
 2907W        W19381  11.455   3.027  13.674  0.0885  0.4352  0.1378
 2908W        W19382   5.513   0.767  15.298  0.1443 -0.3343 -0.0642
 2909W        W19383  14.344  13.705   4.850  0.0921 -0.1040  0.0878
 2910W        W19384  16.083   6.258   2.791  0.0195 -0.2084  0.1925
 2911W        W19385  12.313  17.100   2.435 -0.0103  0.3449 -0.0312
 2912W        W19386   2.800  11.467   4.301 -0.0029  0.0699 -0.2128
 2913W        W19387   1.521   2.723   2.766  0.1541  0.2143  0.4803
 2914W        W19388   1.778  11.335   2.493  0.2247 -0.0927  0.0481
 2915W        W19389   2.060   6.018  15.868 -0.0134 -0.0034 -0.0166
 2916W        W19390   7.014   8.673   2.158  0.1458 -0.3145  0.0204
 2917W        W19391  13.298   7.924  10.871 -0.1237  0.1798  0.0646
 2918W        W19392  15.645  13.106   1.283 -0.1555 -0.2103 -0.0191
 2919W        W19393  12.463   5.583  13.216 -0.4111  0.4216  0.0687
 2920W        W19394  10.142  13.976   1.340  0.3683  0.0774 -0.0933
 2921W        W19395  10.931   5.089   0.552 -0.1788  0.1463  0.1686
 2922W        W19396   1.156   5.360  14.947 -0.2195  0.0364 -0.0825
 2923W        W19397   9.631   5.059   4.514 -0.3211 -0.0680 -0.1002
 2924W        W19398  12.097  15.877  13.400 -0.2600  0.1754  0.0206
 2925W        W19399  11.608   5.708   1.948  0.1960 -0.3038  0.0293
 2926W        W19400   4.244  12.484   0.307 -0.0232 -0.2198 -0.1278
 2927W        W19401   2.982  17.578  16.085  0.1856 -0.0389 -0.0923
 2928W        W19402   6.710  10.735  14.313 -0.1279  0.0349 -0.0258
 2929W        W19403  18.123   7.114   2.406  0.0286 -0.0357  0.2359
 2930W        W19404  17.892  14.364   3.788  0.0621  0.1281  0.1919
 2931W        W19405   3.881  11.844   1.489  0.2321 -0.0672 -0.1850
 2932W        W19406   4.141  15.579   4.352 -0.0598  0.3176 -0.0381
 2933W        W19407   6.756  17.163  12.114 -0.0583  0.2649  0.0860
 2934W        W19408   6.816   6.009  14.394  0.0575  0.0094 -0.3810
 2935W        W19409   0.434  15.954   1.300  0.2828 -0.0222  0.2260
 2936W        W19410  16.217   7.810  15.431  0.2074  0.2420  0.2692
 2937W        W19411   4.733   0.926   2.787  0.0747 -0.2506  0.0104
 2938W        W19412   5.735   1.526  16.287 -0.1160 -0.1431  0.2028
 2939W        W19413   1.756  14.955  13.581  0.1192 -0.1663  0.5268
 2940W        W19414  11.229  11.114   4.527 -0.4414  0.2484 -0.0814
 2941W        W19415  15.083  17.318   5.680 -0.0928 -0.1742 -0.0307
 2942W        W19416  14.831   7.268   2.925 -0.1555 -0.3845  0.1609
 2943W        W19417   3.392  15.962   3.963 -0.1904 -0.1141 -0.0924
 2944W        W19418  12.444   0.763   1.860 -0.1504  0.0468  0.0089
 2945W        W19419  14.107  12.518  11.261 -0.0178 -0.0910  0.1179
 2946W        W19420   1.691  13.205  13.380  0.0771  0.0982 -0.1481
 2947W        W19421   4.511   6.875   2.088  0.1661 -0.1856 -0.0298
 2948W        W19422   4.006  15.518  12.392  0.0931 -0.2421  0.2480
 2949W        W19423  12.717  10.451  16.131  0.0765 -0.0205  0.1415
 2950W        W19424   9.075   8.689   3.289 -0.1565  0.3189  0.3348
 2951W        W19425   8.542  16.792  16.256 -0.1613  0.2909  0.0268
 2952W        W19426  10.235  12.101   3.811 -0.3038 -0.3027  0.1311
 2953W        W19427   7.784  14.266   2.988 -0.1689  0.2449  0.0585
 2954W        W19428   9.247   3.851  13.388  0.1338 -0.0571  0.0872
 2955W        W19429   5.716   9.089  11.180  0.2076  0.1212  0.0538
 2956W        W19430   1.259   6.042   1.720 -0.1758  0.0986 -0.0803
 2957W        W19431  13.857   7.208   4.427 -0.0200  0.0973  0.2199
 2958W        W19432  16.501  13.460   5.242 -0.1612  0.4230  0.1125
 2959W        W19433  12.743   0.222  15.891 -0.1644 -0.0617  0.2219
 2960W        W19434  16.091   6.244   4.860  0.0252 -0.1241 -0.1733
 2961W        W19435   7.181  13.152  12.656 -0.0380 -0.3147 -0.0355
 2962W        W19436   1.324  14.352  11.869  0.0875 -0.0421  0.1021
 2963W        W19437  17.263   0.814   2.463 -0.0759 -0.1450 -0.3522
 2964W        W19438   3.470   7.731  13.750 -0.0246 -0.1099 -0.3574
 2965W        W19439  15.262  13.427   0.788  0.0850  0.1372 -0.0019
 2966W        W19440   1.620   8.807   4.338 -0.1775 -0.3583 -0.0519
 2967W        W19441  11.716   2.097   2.979  0.1281  0.2010  0.1708
 2968W        W19442  16.628  12.998   5.037  0.1270  0.1100  0.1216
 2969W        W19443   7.981  10.488  12.792 -0.0998  0.0810 -0.2898
 2970W        W19444   6.464  12.662   1.872  0.2622 -0.1992 -0.0980
 2971W        W19445  10.908   9.367  13.369  0.3258 -0.0606 -0.0514
 2972W        W19446   6.252   3.175  14.893 -0.1707  0.0790 -0.1190
 2973W        W19447  14.665  12.083  15.226  0.0457 -0.2301 -0.3695
 2974W        W19448   9.201   2.504  14.537 -0.1330  0.1154  0.1083
 2975W        W19449  15.868  10.622   4.882  0.3314  0.1710  0.3107
 2976W        W19450   4.110  11.285   3.264 -0.1099  0.0839  0.0050
 2977W        W19451  13.829   5.589   5.715  0.3131 -0.0675 -0.2755
 2978W        W19452   8.932   2.360   1.325 -0.1831 -0.0937 -0.1733
 2979W        W19453   5.828  17.226  14.937  0.2597 -0.1071 -0.1139
 2980W        W19454  11.924  16.808   2.127  0.1249 -0.1790  0.2075
 2981W        W19455  11.234   7.808  11.606  0.0338 -0.0044 -0.0117
 2982W        W19456  13.436   1.264  12.755  0.1751  0.3466  0.1684
 2983W        W19457  11.292  17.524  14.586  0.2827  0.1539 -0.3070
 2984W        W19458   3.175  14.822  15.756  0.0490  0.2106 -0.2180
 2985W        W19459   0.661  14.382   3.194 -0.1232 -0.4358  0.0578
 2986W        W19460  17.833   4.607  15.835  0.0528 -0.0752 -0.0499
 2987W        W19461   2.338   4.456  13.366 -0.0634  0.1769 -0.1127
 2988W        W19462  14.811   0.441   2.480  0.1030 -0.1135 -0.1118
 2989W        W19463   0.073   5.790  14.297 -0.0669 -0.2082  0.1331
 2990W        W19464   9.738  15.388  13.133 -0.1089 -0.0447 -0.0183
 2991W        W19465  10.110   5.674  15.674 -0.3037  0.3295 -0.2327
 2992W        W19466  12.562  18.114  10.354  0.3031  0.1653  0.0533
 2993W        W19467   0.588   0.734   4.533 -0.0283  0.1910  0.2747
 2994W        W19468  16.915   3.606   3.913 -0.0858 -0.1266 -0.2434
 2995W        W19469   6.415   9.413   3.349 -0.2113 -0.0182 -0.1209
 2996W        W19470   2.517   8.531  11.182  0.1862  0.0804  0.0849
 2997W        W19471   8.104  14.314  12.337  0.3668 -0.0959  0.0580
 2998W        W19472  11.822   0.758   2.520  0.1390 -0.1269 -0.0283
 2999W        W19473   0.336  11.391  11.436  0.1960 -0.1243 -0.1654
 3000W        W19474   8.942   1.208   3.417 -0.0863 -0.0654 -0.1289
 3001W        W19475  17.426  17.950   1.410  0.1338 -0.0956  0.1064
 3002W        W19476  16.576  11.128   4.255  0.0206 -0.1514 -0.1098
 3003W        W19477  12.338   6.963   1.249 -0.0260 -0.2365 -0.0910
 3004W        W19478   1.737   2.993   4.597 -0.1640  0.1092 -0.0089
 3005W        W19479  14.158   1.934   2.244  0.0734 -0.0763 -0.0005
 3006W        W19480   6.072  10.947  13.649 -0.0307 -0.0991  0.4474
 3007W        W19481   2.594  10.959  12.731  0.1540  0.0228  0.3547
 3008W        W19482   8.962   3.844   2.057 -0.0279 -0.0006 -0.1478
 3009W        W19483  14.949   6.149  15.704 -0.0805 -0.2719 -0.2038
 3010W        W19484  11.951  16.313   5.890  0.2026  0.1680  0.1508
 3011W        W19485  16.314   8.659   3.682  0.0584 -0.1251 -0.1052
 3012W        W19486  11.749   0.788  14.559  0.2773 -0.1343 -0.3448
 3013W        W19487   6.531   4.631  15.174  0.0829 -0.0794  0.0150
 3014W        W19488  17.116   3.577   3.229  0.1439  0.3807 -0.0188
 3015W        W19489  17.645   8.701   5.815 -0.1026 -0.3331  0.1281
 3016W        W19490   0.880   6.582  11.319 -0.1728 -0.0731 -0.1917
 3017W        W19491   0.146  11.456   2.955 -0.0998 -0.0952 -0.1737
 3018W        W19492  12.536   6.120  13.638  0.1306 -0.1150 -0.2316
 3019W        W19493  12.168   1.394  16.069  0.3717 -0.1141  0.2135
 3020W        W19494   8.379   4.337  14.295 -0.0340 -0.4411  0.1945
 3021W        W19495  12.432  16.251   5.743  0.0940  0.3382 -0.2688
 3022W        W19496   4.505  14.382   5.183  0.2612  0.1390  0.0437
 3023W        W19497  14.828  15.674   1.176  0.1552  0.4709  0.1414
 3024W        W19498  13.415   9.600  12.501 -0.2181 -0.1327 -0.4058
 3025W        W19499   8.435   8.775  16.070  0.2204  0.1545  0.3439
 3026W        W19500   8.977   3.782  11.610  0.0030 -0.0175 -0.0967
 3027W        W19501  14.079   2.281   3.660  0.0895 -0.0619 -0.1555
 3028W        W19502  11.873   8.360  15.115  0.1826 -0.0785  0.1660
 3029W        W19503  12.447  15.555   4.946  0.2366  0.0688  0.1013
 3030W        W19504  13.856   2.385   1.332  0.2080  0.1059  0.0696
 3031W        W19505   6.528  18.116  14.694  0.1392 -0.2193 -0.1115
 3032W        W19506   4.115   8.743   4.856 -0.0572 -0.0435 -0.1268
 3033W        W19507   1.808   2.760  16.297 -0.0885 -0.0947  0.0360
 3034W        W19508  11.612   9.479  13.389 -0.0473  0.1605  0.0823
 3035W        W19509  15.788   7.284   5.354 -0.0661 -0.0423 -0.0240
 3036W        W19510   1.381   7.340   3.302  0.0300  0.0772 -0.1252
 3037W        W19511   2.350  10.521   2.234  0.1492  0.0559 -0.1512
 3038W        W19512  16.700   1.005  14.705 -0.0649 -0.0987 -0.2897
 3039W        W19513  14.130   5.700   2.121 -0.1477  0.1593 -0.1497
 3040W        W19514  17.980   2.671  13.752  0.1112 -0.0653 -0.0233
 3041W        W19515  10.385   6.720  11.629  0.1424  0.2208  0.0548
 3042W        W19516   1.443   5.589   4.893 -0.1022 -0.0605  0.1636
 3043W        W19517  10.216   6.591   5.641  0.0179  0.3023 -0.1422
 3044W        W19518  12.805   4.745   0.858 -0.0299 -0.2344 -0.2195
 3045W        W19519  15.277   0.576   4.936  0.1177  0.5545 -0.0578
 3046W        W19520  13.688   7.054   2.334  0.1876  0.1452 -0.1128
 3047W        W19521   3.103  15.442  11.883  0.0002  0.0329  0.0765
 3048W        W19522  17.370   8.247   0.149 -0.0960  0.0464  0.2511
 3049W        W19523   3.624   3.421   3.932  0.1575 -0.1000 -0.0969
 3050W        W19524   8.616   9.168  12.382 -0.0286  0.1150  0.1239
 3051W        W19525  11.154   3.628  15.839  0.1257 -0.1163 -0.0585
 3052W        W19526  13.807   5.368   1.092 -0.1749  0.0798 -0.1906
 3053W        W19527   6.881   0.861   4.973 -0.0995 -0.0413  0.2542
 3054W        W19528  13.912   4.697  15.530  0.3200 -0.0628  0.1448
 3055W        W19529   1.028  15.293   4.234 -0.0146  0.0496  0.0530
 3056W        W19530  14.872   8.121   0.606 -0.3037 -0.0549 -0.1784
 3057W        W19531   1.692  11.539  14.845 -0.0071  0.1123 -0.2153
 3058W        W19532  16.563   6.313   1.773 -0.1351  0.0128  0.1779
 3059W        W19533   7.950   2.838   1.364 -0.0250  0.0106 -0.2575
 3060W        W19534   4.123   9.224  11.688 -0.2501  0.0693 -0.0461
 3061W        W19535   0.358   0.043   2.229 -0.1281 -0.0642 -0.0612
 3062W        W19536  17.973  15.498  12.363 -0.1076 -0.0104  0.4115
 3063W        W19537  10.240   5.838   3.064 -0.0407  0.2607 -0.2126
 3064W        W19538   9.275   5.422   5.246 -0.3671 -0.0957 -0.0766
 3065W        W19539   9.436   2.279  16.254 -0.3549  0.0120  0.1597
 3066W        W19540  14.801  18.071   4.751  0.2240  0.0110 -0.2641
 3067W        W19541   0.379   6.580  12.721 -0.0167 -0.0579 -0.2987
 3068W        W19542  11.478   2.310   5.672 -0.0226 -0.1405  0.1301
 3069W        W19543   8.811  11.048  13.987 -0.2159  0.1575  0.0733
 3070W        W19544  17.218   7.123   0.300 -0.0795 -0.0077 -0.0399
 3071W        W19545   0.762  12.535  14.537  0.3132 -0.0122 -0.3065
 3072W        W19546   2.643  10.292  15.074 -0.2836  0.1307 -0.1720
 3073W        W19547   7.857  17.444   0.726 -0.1966  0.0302 -0.0412
 3074W        W19548   5.640  16.408  12.425 -0.1356  0.1416  0.0157
 3075W        W19549   9.562   4.891  11.948 -0.2685  0.1388 -0.1985
 3076W        W19550   5.514   3.355  13.390 -0.0919  0.0587  0.1747
 3077W        W19551   2.326  16.926  12.513 -0.1719  0.0614 -0.0325
 3078W        W19552   4.300   3.896   3.744 -0.0815  0.0073  0.1767
 3079W        W19553  13.411   2.769   3.863  0.1608 -0.0115  0.1076
 3080W        W19554  15.347   3.014   0.652  0.2471 -0.2600  0.1778
 3081W        W19555  14.269  11.171   3.738  0.0923  0.0695  0.0308
 3082W        W19556  12.491   0.855  15.291 -0.1832  0.0882  0.0201
 3083W        W19557  11.335  17.768  12.181 -0.0844 -0.1785 -0.3510
 3084W        W19558  11.623   1.769  13.771  0.1959  0.3020  0.3622
 3085W        W19559   1.271  17.601   0.028 -0.1471 -0.2652 -0.3737
 3086W        W19560  15.477   4.781  16.089  0.4295  0.1636  0.2608
 3087W        W19561   6.045  12.066   1.729  0.0593  0.1666 -0.1732
 3088W        W19562   2.918   3.497   5.614 -0.1563 -0.0904 -0.2857
 3089W        W19563  14.686  18.080   1.597  0.0041 -0.3048  0.0525
 3090W        W19564  13.674   8.756   4.164  0.0919  0.1003  0.0201
 3091W        W19565   6.075  15.579  14.758  0.0904 -0.5099 -0.0363
 3092W        W19566   0.481   7.774   1.242 -0.1472 -0.1300 -0.0753
 3093W        W19567  17.434   3.905  15.689  0.1277  0.3288 -0.1214
 3094W        W19568   2.734   6.850   4.242 -0.1123 -0.1498 -0.0009
 3095W        W19569   7.314   6.044  14.257 -0.0467 -0.0593  0.1978
 3096W        W19570   4.250  15.478   4.964  0.1672 -0.2015  0.1625
 3097W        W19571  17.766  16.548  14.940 -0.0302  0.3443 -0.0137
 3098W        W19572  10.409  17.598  16.037  0.0225 -0.0632  0.2002
 3099W        W19573   9.108   8.106   5.290  0.1028  0.0628 -0.1932
 3100W        W19574  13.518   5.237   2.552  0.1282  0.3412  0.1148
 3101W        W19575   3.851   9.867  14.259 -0.3271 -0.0655  0.0220
 3102W        W19576   2.345  16.138   5.587 -0.0200  0.0817 -0.0134
 3103W        W19577   6.257  14.549  11.136 -0.0512 -0.0440  0.0103
 3104W        W19578  12.018   6.305  14.409  0.1327 -0.0257  0.2411
 3105W        W19579  15.694  10.942   0.968 -0.1287  0.1541 -0.1285
 3106W        W19580  14.380   2.192  12.642 -0.3124 -0.0965 -0.1958
 3107W        W19581  17.913   9.681  11.670 -0.1532  0.0426  0.3729
 3108W        W19582  17.821   2.555   0.380  0.0500  0.1789  0.1691
 3109W        W19583   7.485  11.664   2.894  0.2889 -0.2218  0.4823
 3110W        W19584   7.394  11.859  16.159  0.1164  0.1960 -0.3409
 3111W        W19585   2.080   4.345   4.076 -0.0608  0.1997 -0.1771
 3112W        W19586   1.553  13.526  11.378 -0.3172 -0.1922  0.1549
 3113W        W19587   5.752   4.234  11.317  0.1783 -0.0456 -0.1293
 3114W        W19588   0.395  15.362   4.757 -0.0239 -0.1681 -0.1273
 3115W        W19589   5.916   8.519   1.498 -0.0525  0.3111  0.0612
 3116W        W19590  16.250  16.449   2.084 -0.0538 -0.0388  0.0258
 3117W        W19591  12.413   8.605  11.667 -0.2095 -0.0637 -0.2165
 3118W        W19592   9.246  17.981   5.205  0.0621 -0.1952 -0.0689
 3119W        W19593   5.479  12.549  12.127 -0.1253  0.0831 -0.2419
 3120W        W19594  16.317   5.300   3.806  0.2312 -0.0912  0.0576
 3121W        W19595   3.217  14.867   4.207 -0.2820 -0.0867  0.1338
 3122W        W19596   8.616   7.968  15.913  0.1675  0.2813  0.0664
 3123W        W19597  16.606  15.968   4.899 -0.1139  0.0350  0.1600
 3124W        W19598   6.678  13.193  13.725 -0.3727  0.1230 -0.4996
 3125W        W19599  11.790  15.382   5.693  0.2187  0.2988  0.0218
 3126W        W19600   0.863   2.941  13.380 -0.1729  0.1060  0.0094
 3127W        W19601   2.527   3.676   4.039  0.2716 -0.0796 -0.3042
 3128W        W19602  12.126   7.190   3.339 -0.1171  0.0963  0.0151
 3129W        W19603   9.477   1.920  13.352  0.0368  0.1857 -0.1069
 3130W        W19604  16.889  13.337   3.724 -0.1066  0.0268 -0.0888
 3131W        W19605   7.175   2.831   3.899  0.0632  0.0896  0.4799
 3132W        W19606  17.842   9.266   2.838 -0.0462  0.0456 -0.4217
 3133W        W19607  15.273   6.446   5.460 -0.3059  0.1452 -0.0101
 3134W        W19608  17.805  10.742   4.751  0.1411 -0.0887 -0.0734
 3135W        W19609  16.333  13.082  11.133  0.0421 -0.2383 -0.0869
 3136W        W19610   5.750  14.826  14.807 -0.1196  0.0930  0.2873
 3137W        W19611   9.648   0.736  12.541  0.0326 -0.1477  0.0413
 3138W        W19612  16.518  13.833   1.575 -0.2411 -0.0665 -0.1236
 3139W        W19613  12.014  10.952   1.662 -0.0323 -0.0987  0.2576
 3140W        W19614   8.187  11.521   1.709  0.1215  0.3666 -0.2342
 3141W        W19615   7.220   0.612  13.736  0.2702  0.1225 -0.1914
 3142W        W19616  12.643   9.976  11.369 -0.0273  0.1900  0.2316
 3143W        W19617   0.877   4.534  15.183  0.2797  0.1437  0.0355
 3144W        W19618   9.618  14.029   1.486 -0.0714 -0.2794 -0.0324
 3145W        W19619   7.327   0.135  12.316 -0.2532  0.2006 -0.0077
 3146W        W19620   3.945  16.774  13.420  0.0114 -0.1435 -0.0991
 3147W        W19621   0.191  13.520   5.538  0.0498 -0.1278 -0.0434
 3148W        W19622   2.547  14.920  11.327 -0.1693  0.2606 -0.0398
 3149W        W19623   0.904  11.219   6.089  0.0566 -0.4202  0.1931
 3150W        W19624  13.480  16.372   0.381 -0.0640  0.0092 -0.2786
 3151W        W19625   7.488   1.787  12.278  0.2028  0.2503 -0.0670
 3152W        W19626  14.690  11.216   1.961  0.0501  0.3129  0.0075
 3153W        W19627   5.359   6.473   4.406  0.1272 -0.2260  0.0602
 3154W        W19628  11.530   6.895  13.711 -0.0162 -0.0816 -0.0783
 3155W        W19629  10.159   3.686   5.763 -0.1166 -0.1417  0.1537
 3156W        W19630   2.943  10.301  15.574  0.0291  0.0705 -0.3528
 3157W        W19631  17.302   4.120   5.587 -0.0321 -0.0967 -0.0818
 3158W        W19632   6.997  16.637  12.743 -0.0224  0.2628  0.0276
 3159W        W19633   7.957  14.626   3.946 -0.1268 -0.0827 -0.0881
 3160W        W19634  13.434   9.845   3.190 -0.1585 -0.0708 -0.0183
 3161W        W19635   6.548   9.649   2.921  0.5113  0.0340 -0.1055
 3162W        W19636  10.457  13.538   4.320 -0.4280  0.2141 -0.0399
 3163W        W19637  12.878   3.422  11.421 -0.0473  0.0608  0.1590
 3164W        W19638   7.537   4.967   0.876 -0.0362 -0.1173  0.1926
 3165W        W19639   6.320   7.588   0.568 -0.1366  0.0854  0.1578
 3166W        W19640   6.921  10.344   1.532  0.0387  0.2677  0.2963
 3167W        W19641  17.120   8.490   2.053  0.0069  0.0458 -0.0576
 3168W        W19642   5.560  11.733   0.992  0.2091  0.0107 -0.2778
 3169W        W19643   5.382  16.146   0.975 -0.0683 -0.3447  0.4442
 3170W        W19644   3.171  16.947  14.340 -0.0189 -0.2233 -0.1582
 3171W        W19645  16.678  14.477   4.659  0.0218 -0.1520  0.0068
 3172W        W19646   1.620  16.872   3.702  0.4397  0.1151 -0.2379
 3173W        W19647   4.437  12.743  14.969  0.3462 -0.0066  0.2256
 3174W        W19648   6.260  13.289   5.123 -0.0062 -0.0207 -0.3062
 3175W        W19649  16.483  16.902   2.081  0.2507 -0.2407 -0.1004
 3176W        W19650  11.893   8.821   5.227  0.1277  0.4120  0.2463
 3177W        W19651  11.808   6.444  13.643  0.1084 -0.1438  0.0819
 3178W        W19652  17.925  12.659   4.748 -0.0901  0.0905 -0.2924
 3179W        W19653  10.172   2.681   2.506 -0.2841 -0.1379 -0.0913
 3180W        W19654   8.224  15.650   5.195 -0.0067  0.0500  0.0506
 3181W        W19655  12.281  11.962  10.820 -0.0077  0.2242  0.0421
 3182W        W19656   8.189   1.869   3.320  0.0526  0.1346  0.0188
 3183W        W19657   8.738   7.171   0.705  0.1397  0.0406  0.2468
 3184W        W19658   0.893   4.806  12.148 -0.2877  0.1699  0.1397
 3185W        W19659   4.193   3.215   3.263  0.0088 -0.0602 -0.0156
 3186W        W19660  15.549  15.082  12.398  0.1145  0.5168 -0.1094
 3187W        W19661   3.035  10.204  11.448  0.1904  0.0106  0.1643
 3188W        W19662   9.175  15.997   4.076 -0.2151 -0.1365  0.0029
 3189W        W19663   2.927   3.074  12.749  0.1361 -0.2174  0.0034
 3190W        W19664   4.309   1.818   1.523  0.0726  0.0429 -0.0582
 3191W        W19665   1.251   8.340  12.851 -0.2359 -0.1035  0.2775
 3192W        W19666  14.221   5.016   3.873  0.0287 -0.0223  0.0107
 3193W        W19667   1.437  11.416   3.465  0.0891 -0.0426 -0.1001
 3194W        W19668  16.788   1.236   4.644 -0.0410 -0.3922  0.0934
 3195W        W19669  11.377  17.436   0.054  0.3478  0.0858  0.2465
 3196W        W19670   9.572  17.025   1.275  0.3027  0.1442  0.0632
 3197W        W19671   5.544  15.014   0.158 -0.1962 -0.0110 -0.1432
 3198W        W19672   2.370   1.234  11.685 -0.1395  0.0616 -0.1788
 3199W        W19673   3.795   2.530  11.970 -0.3023 -0.4909  0.1255
 3200W        W19674   5.422   7.341   1.746  0.3105  0.2733  0.1492
 3201W        W19675   1.300  12.682   0.847 -0.0325  0.2165  0.0538
 3202W        W19676   8.825  17.915  13.402 -0.1029 -0.1759 -0.0311
 3203W        W19677   1.398  14.967   3.920  0.0672  0.3414 -0.0874
 3204W        W19678  16.868  12.135  14.155 -0.0895 -0.1122 -0.0316
 3205W        W19679   4.873  15.410  13.265  0.1180  0.0453  0.0254
 3206W        W19680  12.024  12.711   2.182 -0.0544  0.3261 -0.0904
 3207W        W19681   1.714   1.895  15.706 -0.3405  0.0794  0.2383
 3208W        W19682  14.814  11.637  11.854  0.1107  0.1648  0.0569
 3209W        W19683   6.759   2.402   0.122  0.0818  0.1436 -0.2470
 3210W        W19684   4.310  12.047   1.190 -0.3928 -0.0994 -0.1393
 3211W        W19685   6.257   0.914   1.243  0.0028 -0.0165  0.1019
 3212W        W19686   9.789  10.924   1.195  0.0687 -0.2084  0.3289
 3213W        W19687  16.963   8.218   3.155  0.0096  0.1048 -0.0833
 3214W        W19688  13.246   9.952  13.186  0.0958  0.0095  0.0331
 3215W        W19689  16.010   0.493   3.068 -0.4767 -0.1537  0.0846
 3216W        W19690   5.047   2.417  13.138 -0.2230 -0.4791 -0.3624
 3217W        W19691  10.107  12.177  15.972 -0.0822 -0.0194  0.0125
 3218W        W19692   0.225   1.581  11.745 -0.1221 -0.1601 -0.0739
 3219W        W19693   4.066  15.434  13.742  0.0924  0.1417 -0.1173
 3220W        W19694  12.099   8.403   2.566 -0.0574 -0.2010  0.1607
 3221W        W19695   6.304  12.900   1.245 -0.1428  0.1645 -0.0240
 3222W        W19696   0.675   4.598   0.839 -0.0750 -0.0045 -0.0024
 3223W        W19697  11.589   3.306   0.747 -0.4421 -0.0999  0.2938
 3224W        W19698  16.752   9.911  11.558  0.0766 -0.1104 -0.0618
 3225W        W19699   0.239   2.669  13.219 -0.0579 -0.0477 -0.0317
 3226W        W19700  13.730   2.297   0.793 -0.0059 -0.1059 -0.3270
 3227W        W19701  12.219   1.163   3.956  0.0211  0.3126  0.2348
 3228W        W19702  15.747   4.198  14.767  0.0326 -0.0133 -0.0344
 3229W        W19703   0.042   2.387   2.675 -0.0345 -0.1906 -0.1424
 3230W        W19704  13.752  17.350   5.055 -0.0784 -0.2012 -0.1289
 3231W        W19705   4.459  17.247  12.252  0.0872  0.0063  0.1751
 3232W        W19706  14.460   6.637   3.859  0.1924 -0.0415 -0.1107
 3233W        W19707   0.033  13.155   3.815 -0.3377 -0.2482 -0.0417
 3234W        W19708   2.562  13.104  11.584  0.0360 -0.3478  0.0983
 3235W        W19709   5.606  13.762  13.508  0.1038  0.1407 -0.1117
 3236W        W19710  17.568   7.433  12.370 -0.3509  0.2884  0.2506
 3237W        W19711   8.805   0.740   3.532  0.0217  0.0837 -0.2411
 3238W        W19712  13.369  12.566   2.338  0.1564  0.1551  0.0892
 3239W        W19713  11.859  12.607   0.868  0.1524  0.2849  0.2276
 3240W        W19714  12.919  12.928   5.589 -0.3297 -0.1953 -0.3344
 3241W        W19715  13.097   1.473  14.782 -0.2521  0.3096  0.0503
 3242W        W19716  11.504  16.416  14.657  0.3299 -0.1072  0.1895
 3243W        W19717  13.206  12.349   1.317  0.0776  0.0603 -0.1722
 3244W        W19718   9.678  12.686  15.025 -0.1020 -0.4566  0.0023
 3245W        W19719  13.573   6.232   4.776 -0.0138 -0.0876  0.1922
 3246W        W19720  12.294  15.853   0.234 -0.1072 -0.1987 -0.0640
 3247W        W19721   4.847   7.275  11.929 -0.1397  0.0278 -0.2320
 3248W        W19722  16.876   6.713   3.867 -0.0421 -0.1975 -0.1876
 3249W        W19723  16.040  10.135   5.077 -0.2894 -0.2284 -0.2653
 3250W        W19724  14.483   1.075   3.261 -0.0064  0.1171  0.1023
 3251W        W19725   9.023  17.035   3.076 -0.1396 -0.0491 -0.2294
 3252W        W19726   9.287   5.405   2.186 -0.1026 -0.0489 -0.0319
 3253W        W19727   6.321   3.095  13.138  0.0062 -0.2730 -0.1164
 3254W        W19728  12.733  11.236  12.738  0.2528 -0.2253 -0.0389
 3255W        W19729   2.451  14.713   4.654  0.2009  0.0889  0.1562
 3256W        W19730   2.645   4.255   2.248  0.0292  0.0206  0.0417
 3257W        W19731  17.995   8.586  15.626 -0.0882  0.0674 -0.1069
 3258W        W19732  12.472  15.793   5.974  0.2241 -0.1457  0.3040
 3259W        W19733   2.446   5.522   3.140  0.1895  0.2617 -0.1187
 3260W        W19734   0.039  11.100   5.654  0.0918  0.0993 -0.3753
 3261W        W19735   5.641   8.537   2.434 -0.1465 -0.1317 -0.0419
 3262W        W19736   9.844   7.601  13.185  0.0063 -0.3000  0.0143
 3263W        W19737   7.392   1.875   4.029  0.0588  0.0786  0.0284
 3264W        W19738  11.425  10.972  12.061 -0.1327 -0.2566  0.1428
 3265W        W19739  16.863  14.930   4.466 -0.1601 -0.1716 -0.0910
 3266W        W19740  13.526  12.296  14.080  0.2036 -0.0146 -0.3513
 3267W        W19741  12.033   3.664  13.119  0.3617 -0.2968  0.0097
 3268W        W19742   0.378  10.675   1.835  0.1281  0.2443  0.2501
 3269W        W19743   7.265  18.055   5.746 -0.0362 -0.1207 -0.1340
 3270W        W19744   2.135   7.058  15.594  0.1358 -0.0217 -0.1023
 3271W        W19745  15.915   1.859   0.261  0.3860  0.0742  0.2098
 3272W        W19746   0.446  16.551  14.488 -0.1433 -0.2086 -0.3347
 3273W        W19747  15.951   6.041   5.774  0.2067  0.0584 -0.2448
 3274W        W19748  11.997  14.556  14.199 -0.2093  0.1041 -0.3336
 3275W        W19749   3.997  17.322  12.059  0.2360 -0.2036 -0.3236
 3276W        W19750  12.771   2.343  10.454  0.0371 -0.0251  0.0410
 3277W        W19751  16.108   8.290   1.929  0.3071  0.2033 -0.0033
 3278W        W19752   3.906   8.291  15.738  0.0315 -0.0449 -0.1213
 3279W        W19753   3.854   4.023   5.725 -0.2442  0.1571 -0.0376
 3280W        W19754  17.137  12.866   3.222  0.0639  0.1022  0.1873
 3281W        W19755   4.574  10.687  12.923 -0.1431  0.0847  0.2168
 3282W        W19756   7.001   3.688  15.109  0.0841  0.0041  0.0795
 3283W        W19757  13.689  17.800  11.668  0.1134 -0.1042  0.1556
 3284W        W19758   0.027  14.473  12.434  0.0261 -0.0313 -0.2000
 3285W        W19759  15.039  15.633  15.722  0.2950 -0.1704 -0.3111
 3286W        W19760  14.108  10.758  10.795 -0.3003  0.0254  0.3008
 3287W        W19761  17.081   9.877   5.774 -0.1055  0.5240  0.2224
 3288W        W19762   2.301   4.611  13.914  0.3564 -0.1709  0.0754
 3289W        W19763   2.175   8.515   3.474 -0.2007 -0.2993 -0.0474
 3290W        W19764  15.065  16.634  16.088  0.0909 -0.0473  0.2216
 3291W        W19765  16.822  12.868   2.797 -0.0601 -0.1892  0.0710
 3292W        W19766   2.345   9.518  15.300 -0.2756 -0.0821  0.1615
 3293W        W19767  14.108  12.388   0.732  0.2880  0.3206 -0.0190
 3294W        W19768   0.487  12.392  12.449  0.0835 -0.0736  0.0922
 3295W        W19769   9.149  17.460   0.607 -0.0527  0.0946 -0.1661
 3296W        W19770   3.247   5.833   1.562 -0.2651  0.0232 -0.2346
 3297W        W19771   1.483  11.708   2.375 -0.0244 -0.0499 -0.0525
 3298W        W19772  10.083  17.897   1.348 -0.0146  0.0208  0.2252
 3299W        W19773  14.294  12.654  15.186  0.2878  0.4107 -0.1351
 3300W        W19774   5.827   0.865   2.528 -0.1877 -0.0997 -0.1762
 3301W        W19775  17.886   8.654   0.817  0.1165 -0.1046  0.0429
 3302W        W19776  16.901  17.327  14.417  0.0240  0.3219 -0.2001
 3303W        W19777   8.475   6.411  15.305  0.0247 -0.1523  0.0286
 3304W        W19778  17.905   8.907  11.829 -0.0123 -0.1199 -0.0708
 3305W        W19779  16.998   4.164   2.540 -0.0793 -0.2125 -0.3713
 3306W        W19780   4.032   3.975  15.457  0.3077 -0.0474  0.0264
 3307W        W19781   5.432  17.111   4.045  0.0717 -0.0408  0.0986
 3308W        W19782   2.659   9.577   1.211 -0.1417  0.0279  0.0838
 3309W        W19783   4.490   0.302  14.604 -0.1468 -0.1479 -0.0046
 3310W        W19784  18.155  12.457   1.674 -0.0851 -0.3594 -0.1419
 3311W        W19785   6.987  13.942   2.136 -0.0254 -0.0995 -0.0019
 3312W        W19786  10.926   5.114  11.861 -0.0239 -0.0430 -0.2970
 3313W        W19787   3.140   1.245  13.304  0.0772  0.4114  0.0143
 3314W        W19788   4.430   2.390  16.063 -0.0135  0.0044 -0.0906
 3315W        W19789  11.792  13.968   4.123  0.2822 -0.4891 -0.0040
 3316W        W19790  13.388  10.092   0.152  0.0513  0.0602 -0.2246
 3317W        W19791  11.110   0.122  13.381 -0.2435 -0.1825 -0.2099
 3318W        W19792   0.816   2.671  15.572  0.1416 -0.1960 -0.0251
 3319W        W19793   5.307   0.843   0.388 -0.1065  0.1708 -0.4139
 3320W        W19794   0.114   8.614   1.540 -0.0095 -0.2269 -0.2793
 3321W        W19795   6.992  15.248   0.617 -0.0069  0.3764 -0.1715
 3322W        W19796  12.999  17.603  14.750 -0.0670 -0.2053  0.0647
 3323W        W19797   6.112   5.220  13.263 -0.1592 -0.4009  0.1437
 3324W        W19798   5.856   5.132  11.554 -0.1112 -0.0354 -0.0618
 3325W        W19799   9.229   0.236   0.669  0.0998 -0.1512  0.1392
 3326W        W19800  13.164   5.096   5.901  0.1822 -0.0490  0.0975
 3327W        W19801   1.335   7.890  10.725 -0.3579  0.1347 -0.1891
 3328W        W19802  13.538   5.760   5.254 -0.0419  0.2079 -0.0172
 3329W        W19803   0.079   2.686   1.675 -0.1121  0.0218 -0.0557
 3330W        W19804   2.755  17.908  11.823 -0.1535  0.4606 -0.0502
 3331W        W19805  15.532   1.155  13.717  0.0768  0.1583  0.2166
 3332W        W19806   6.341  17.074  11.226  0.0923 -0.2036  0.2370
 3333W        W19807  11.082   5.760   2.698  0.3098 -0.0798  0.1340
 3334W        W19808  17.677   3.982   4.699  0.1454 -0.2189  0.1233
 3335W        W19809  12.407   3.323  12.219 -0.1630  0.1308 -0.1034
 3336W        W19810  18.008   4.392   1.871  0.0451  0.1514 -0.2044
 3337W        W19811  10.143  14.275  14.386  0.1712  0.0914 -0.2440
 3338W        W19812   7.112  15.465  14.736  0.2643 -0.2461 -0.1015
 3339W        W19813  16.687   9.384   3.064 -0.1892 -0.0716  0.1416
 3340W        W19814   4.302   8.346  12.525  0.1108 -0.0245  0.1778
 3341W        W19815   3.528  17.511   4.722 -0.3226 -0.1400  0.1814
 3342W        W19816  13.878   3.551  14.510 -0.1110 -0.0517 -0.2129
 3343W        W19817  12.904   3.635   0.301 -0.2266 -0.0526  0.1438
 3344W        W19818  13.161  11.619   0.220  0.0315 -0.0146 -0.0838
 3345W        W19819  10.797   3.450   4.462  0.2810 -0.0942  0.0285
 3346W        W19820  15.723  13.557   0.972 -0.1386  0.0528 -0.1099
 3347W        W19821  10.508  17.096   3.020 -0.4544  0.2091 -0.0065
 3348W        W19822  13.719   5.034  12.433 -0.1070 -0.1770 -0.0896
 3349W        W19823  12.337  11.136  15.344 -0.0279 -0.0382  0.3223
 3350W        W19824   2.697   7.969   4.319 -0.0757  0.1648  0.0038
 3351W        W19825   5.487  10.637   4.915 -0.1265 -0.1281  0.1697
 3352W        W19826  12.427   7.280  14.835 -0.0554  0.1013 -0.2627
 3353W        W19827  18.016   6.734   0.516 -0.0594 -0.0626 -0.1409
 3354W        W19828  17.136   6.461  13.005  0.0074 -0.1324 -0.0846
 3355W        W19829  17.795   6.430   3.654  0.1219  0.0109  0.3314
 3356W        W19830   4.865   7.883   2.031  0.0411 -0.0090 -0.1953
 3357W        W19831  10.500  17.840   3.174  0.0194  0.2009 -0.1849
 3358W        W19832   4.170  16.047   0.327 -0.1057  0.1306  0.0230
 3359W        W19833  11.386   5.591  14.576  0.0804 -0.0326  0.1590
 3360W        W19834   4.485  14.714   2.268  0.4072  0.1145  0.1210
 3361W        W19835   1.288   6.948   0.185  0.0700  0.0177  0.0740
 3362W        W19836  10.970   4.901   2.818  0.1877 -0.1307  0.0385
 3363W        W19837  15.874  16.149  14.271  0.2791 -0.1277  0.1933
 3364W        W19838   8.380   9.048   2.721  0.2970  0.0544 -0.1528
 3365W        W19839   6.914   8.785  16.282  0.3022 -0.2788  0.0954
 3366W        W19840  10.850  11.499   4.680  0.3228  0.1957  0.0972
 3367W        W19841   0.584   5.632  11.101 -0.1774 -0.1923  0.4215
 3368W        W19842  10.232   3.102  15.970  0.4570 -0.0017  0.0614
 3369W        W19843  11.950  10.806  11.296 -0.1024  0.0215  0.0567
 3370W        W19844   7.758   7.519   4.410  0.1264 -0.1245  0.0219
 3371W        W19845   3.262  12.351   4.486 -0.0429  0.2110 -0.0353
 3372W        W19846   0.606   5.738   2.929  0.1227 -0.3217  0.0646
 3373W        W19847   5.521   2.151  11.470  0.1036 -0.1755 -0.0508
 3374W        W19848   1.331   6.771   3.710 -0.0906 -0.1338  0.0353
 3375W        W19849  14.755  15.396  11.702  0.1692 -0.0359 -0.1135
 3376W        W19850   8.021   1.491   1.101 -0.2174 -0.1322 -0.4504
 3377W        W19851   6.678  12.424   0.283 -0.1922 -0.2809 -0.0525
 3378W        W19852  16.091   3.907  14.029 -0.0139 -0.0284 -0.2448
 3379W        W19853  12.130  13.866  12.756  0.0203  0.1564  0.1144
 3380W        W19854   6.780  10.674  13.487 -0.1968  0.1516  0.3158
 3381W        W19855   5.370  11.935  15.041  0.2593 -0.1317  0.1079
 3382W        W19856  10.395   9.791   4.416 -0.2863  0.3942  0.0983
 3383W        W19857   9.577  14.418  12.339  0.0402 -0.4216 -0.0095
 3384W        W19858   0.626   6.370   0.441  0.0057 -0.0273 -0.4224
 3385W        W19859  17.307   5.825  15.384 -0.1005 -0.2028 -0.4629
 3386W        W19860   2.674   7.475   2.251 -0.0577 -0.0182 -0.0778
 3387W        W19861  12.605  16.364  15.563  0.0385  0.0445  0.2417
 3388W        W19862   4.218   4.251  12.349 -0.1486 -0.1105  0.2091
 3389W        W19863   1.970  11.149  15.053 -0.2354 -0.2957  0.2313
 3390W        W19864   7.324  12.198  10.530 -0.2245 -0.0689  0.1292
 3391W        W19865   3.811  12.186   5.335  0.1592  0.3226 -0.2665
 3392W        W19866   4.837  17.863  13.535 -0.0137 -0.1641  0.0891
 3393W        W19867   0.742  14.800  14.242 -0.0410  0.0626  0.0243
 3394W        W19868   6.260   5.202  15.959 -0.3305  0.0413 -0.0869
 3395W        W19869  15.682   0.648  13.879 -0.2353 -0.1777 -0.2130
 3396W        W19870  14.577  10.425   3.941 -0.2193  0.0740  0.1609
 3397W        W19871  12.589   9.438   0.400  0.1495 -0.0369 -0.1813
 3398W        W19872  13.244   1.846   2.541  0.0077  0.1891  0.0413
 3399W        W19873  14.035   0.890  15.440  0.0696  0.1664  0.0793
 3400W        W19874   5.801  12.091  15.509  0.0464  0.0719 -0.1549
 3401W        W19875   7.428   8.674   1.202 -0.2988 -0.2483  0.1224
 3402W        W19876   7.177   2.344   4.031 -0.0038 -0.1926 -0.1402
 3403W        W19877  11.093  11.415   3.775 -0.0384  0.0304 -0.2323
 3404W        W19878   5.384  10.509   0.342  0.2358  0.1459  0.3496
 3405W        W19879   4.651   6.247   1.351 -0.0767  0.0150  0.0467
 3406W        W19880  18.063   8.042   0.117  0.0882 -0.0506  0.2421
 3407W        W19881   1.708   2.319  10.966  0.4312  0.0172  0.0084
 3408W        W19882   6.708  10.440   5.205  0.1900  0.1375 -0.4384
 3409W        W19883   8.065  16.288  15.539 -0.0666  0.0512 -0.0019
 3410W        W19884  14.120   7.576  11.581 -0.1265  0.0552 -0.3652
 3411W        W19885   5.218  14.332  15.933 -0.1099 -0.0921  0.0650
 3412W        W19886   2.009  11.109   2.042 -0.0884 -0.0643  0.1346
 3413W        W19887   7.280  10.473  12.284 -0.3422 -0.4719 -0.4067
 3414W        W19888   8.519   2.147  16.307 -0.2278 -0.2641  0.0591
 3415W        W19889   6.751  15.691   3.502 -0.1121 -0.0139  0.1049
 3416W        W19890   7.401  11.979  11.007  0.0690 -0.0971 -0.0917
 3417W        W19891  13.613  11.594   3.269  0.3568 -0.0800  0.3331
 3418W        W19892   9.735   5.286  16.133 -0.3327 -0.2376 -0.0896
 3419W        W19893  15.055   7.678   0.072 -0.0183  0.2702  0.0999
 3420W        W19894  13.351   1.682  16.186  0.2292  0.2101  0.1373
 3421W        W19895   3.906  10.208  11.222  0.1436  0.1264  0.0506
 3422W        W19896   3.288   3.058   4.724 -0.0343  0.1183  0.2465
 3423W        W19897   1.592  11.704   4.191 -0.1389  0.2953  0.0365
 3424W        W19898   8.479  16.906   5.398  0.0652 -0.2510  0.2703
 3425W        W19899   9.721   6.033  15.464 -0.0914  0.0864  0.1121
 3426W        W19900  11.741  13.592   0.903  0.0965 -0.1587 -0.0029
 3427W        W19901   5.706   3.369   3.326  0.1634  0.1659  0.0730
 3428W        W19902  10.308  11.061   1.660  0.0037 -0.0343 -0.0995
 3429W        W19903   9.284   2.534   5.575 -0.2036  0.0031 -0.3164
 3430W        W19904   8.672   6.785  16.192  0.3076  0.1908 -0.0449
 3431W        W19905   3.690  17.665  10.863 -0.0484  0.0559  0.0802
 3432W        W19906   8.458   7.722   3.945 -0.0602 -0.1862 -0.2042
 3433W        W19907   3.915   7.854  13.676  0.0218 -0.3010  0.0702
 3434W        W19908  17.520  14.506   0.861 -0.2655 -0.0576  0.0016
 3435W        W19909   9.236   6.758   4.563  0.1027 -0.0283 -0.0489
 3436W        W19910   3.642   4.209  16.284  0.1498 -0.0754 -0.1329
 3437W        W19911  15.000  11.692   4.541  0.3541  0.0969 -0.3383
 3438W        W19912   6.544  12.464   2.569  0.0857  0.2885  0.1632
 3439W        W19913  15.147  10.892   0.130 -0.0672  0.0008  0.1356
 3440W        W19914  18.126  16.478   3.395  0.2170 -0.2705 -0.1439
 3441W        W19915  16.690  11.150   2.879  0.0371  0.2839 -0.0040
 3442W        W19916  17.868   7.291  15.022 -0.0886 -0.0967  0.1192
 3443W        W19917   6.887  14.003  10.637  0.3994  0.2014 -0.1470
 3444W        W19918  10.283   5.803  13.234 -0.0074  0.2491 -0.1857
 3445W        W19919  15.860  17.165   1.573  0.1105  0.1311  0.1084
 3446W        W19920   3.334  13.387   0.770  0.1455 -0.1400  0.0753
 3447W        W19921   2.649  15.335   2.486  0.0813  0.0532  0.0402
 3448W        W19922  12.092   3.293  14.931  0.1106  0.0167 -0.3902
 3449W        W19923   0.188  11.852  10.320  0.0738 -0.2296  0.1580
 3450W        W19924  12.506   5.795  16.081 -0.2348 -0.1710  0.0287
 3451W        W19925  15.323   6.307   0.127  0.3221 -0.0074 -0.1460
 3452W        W19926  14.858  16.857   3.443 -0.0148  0.0135  0.3265
 3453W        W19927  10.399  11.446  11.134  0.0581  0.0136  0.3191
 3454W        W19928  12.763  12.218  15.228 -0.0603  0.2668  0.0639
 3455W        W19929  15.168   4.098  11.686 -0.1464 -0.1697 -0.0565
 3456W        W19930   1.848   7.203   4.627 -0.0864  0.0699 -0.0957
 3457W        W19931   4.101   8.394  12.036 -0.3201  0.2471 -0.0351
 3458W        W19932   9.273   9.402  13.883  0.2229 -0.1079 -0.0703
 3459W        W19933   0.976  12.470  13.648 -0.0786  0.4879 -0.2126
 3460W        W19934  11.860   2.441  15.195  0.1226  0.2390 -0.2178
 3461W        W19935  11.522  16.130  11.943 -0.0024 -0.2480 -0.0108
 3462W        W19936   9.310   1.368  16.197 -0.0639 -0.0763 -0.1383
 3463W        W19937   9.013  11.214  11.312  0.0903  0.0922  0.2492
 3464W        W19938   7.084  12.711   4.508 -0.1538 -0.0931 -0.0213
 3465W        W19939  16.746   1.422  13.932 -0.0585 -0.1640 -0.3378
 3466W        W19940  15.393  16.043  16.130 -0.1400 -0.3072  0.1554
 3467W        W19941  14.661   9.947   1.053  0.4734 -0.3144  0.1274
 3468W        W19942   2.389  16.102  13.471  0.0792 -0.2008 -0.2305
 3469W        W19943  16.754  16.699  15.499 -0.0334  0.1548 -0.1796
 3470W        W19944   3.020   9.212  15.745 -0.0017  0.0224  0.1492
 3471W        W19945  10.204   8.411  14.479 -0.3082 -0.3553 -0.1050
 3472W        W19946   8.172   2.416  12.232 -0.2625 -0.2147 -0.1035
 3473W        W19947   6.140  10.172  11.727 -0.0388  0.0134 -0.2276
 3474W        W19948   0.228   4.026  14.733  0.1204 -0.0598  0.0478
 3475W        W19949   2.741  17.222   3.944 -0.3144 -0.0211  0.1377
 3476W        W19950  11.948   3.143   4.366  0.3279  0.1138 -0.2180
 3477W        W19951  12.198  12.265  13.523 -0.0335 -0.1626 -0.0424
 3478W        W19952   4.569   1.277   2.176  0.1265  0.2565  0.0288
 3479W        W19953   9.021  14.689  15.118 -0.1802 -0.0568 -0.0289
 3480W        W19954   4.472  11.644   0.448  0.0891 -0.1736  0.1269
 3481W        W19955   7.486   4.594   4.564  0.0197  0.1031  0.0371
 3482W        W19956   0.120   0.791   3.568  0.0649  0.5123 -0.2050
 3483W        W19957  12.527   1.082  14.811 -0.5155  0.1315  0.0098
 3484W        W19958  13.052  18.103   1.730 -0.1182  0.1090  0.0383
 3485W        W19959   4.530   8.587   3.046  0.1196 -0.1005 -0.0554
 3486W        W19960   4.184   7.185  13.809  0.3690  0.3087 -0.0668
 3487W        W19961  12.256   9.682  16.369  0.1327  0.1039 -0.1206
 3488W        W19962  17.896  12.835   5.255 -0.0165  0.1099  0.1710
 3489W        W19963   0.815  12.002  12.373  0.0058  0.0846 -0.0693
 3490W        W19964  10.132   7.716  13.659 -0.0561 -0.2999 -0.4338
 3491W        W19965   9.737   4.166   2.986 -0.1277  0.1738  0.0816
 3492W        W19966   1.829  17.334   3.801 -0.3393 -0.1382 -0.0693
 3493W        W19967  17.696  10.582   2.002  0.1942  0.1707  0.0209
 3494W        W19968   1.400   7.037  16.068 -0.0867  0.0936 -0.1987
 3495W        W19969  12.351  15.383   4.443  0.2161 -0.2101 -0.0060
 3496W        W19970  12.160   4.103   2.303  0.1044  0.1370  0.0612
 3497W        W19971  15.834  13.770  13.889 -0.0792  0.0299 -0.1143
 3498W        W19972   4.907  12.842  14.888 -0.1900  0.1228  0.0502
 3499W        W19973  16.706   5.498   0.299  0.1394 -0.1057 -0.2861
 3500W        W19974   0.457   7.449  12.281  0.1970 -0.1550 -0.1457
 3501W        W19975  10.332  17.416   3.335 -0.0646 -0.2904 -0.0403
 3502W        W19976  15.837  13.996  15.556  0.0103  0.0733  0.0854
 3503W        W19977   3.650  10.113   2.866  0.0893 -0.0091  0.1293
 3504W        W19978   7.402   2.623  13.489  0.1421  0.4558  0.2479
 3505W        W19979   1.572   5.170   4.363 -0.3237 -0.0460 -0.4099
 3506W        W19980   9.618  11.453   2.645 -0.0920 -0.0044  0.0111
 3507W        W19981   3.620  10.760   2.466  0.2018  0.0387  0.0294
 3508W        W19982  11.058   9.275   2.537 -0.2661 -0.2977  0.4130
 3509W        W19983  14.966   5.525   4.967 -0.1079 -0.0775 -0.0810
 3510W        W19984  10.916  11.594   2.412  0.3860 -0.1287  0.4598
 3511W        W19985   4.341  15.499   5.488  0.1105  0.1039 -0.2670
 3512W        W19986  15.903   4.090   1.633 -0.1798  0.0573  0.3403
 3513W        W19987   8.158  16.105  13.708 -0.2529  0.1376 -0.0971
 3514W        W19988  10.616   9.739  16.307  0.1317 -0.0690 -0.0882
 3515W        W19989   4.172  11.616  14.614  0.0805 -0.0971 -0.4371
 3516W        W19990   5.568   2.950   5.435  0.2594  0.1039 -0.0432
 3517W        W19991   6.626   4.636  14.051 -0.1302  0.0571 -0.3555
 3518W        W19992  14.042   8.067  11.505  0.2701  0.0776 -0.1058
 3519W        W19993   0.265   6.940   1.750 -0.1610 -0.1128  0.0760
 3520W        W19994  18.032  10.434   0.175 -0.1760  0.2090 -0.1991
 3521W        W19995   3.648  16.028   0.070 -0.0385 -0.2107 -0.2240
 3522W        W19996   8.144  12.194   3.391  0.0022 -0.0208  0.3887
 3523W        W19997   6.155   5.333   5.452  0.2408  0.0165 -0.3701
 3524W        W19998  13.187   3.937  14.253  0.2253  0.0587 -0.0441
 3525W        W19999   9.542  10.976   2.972  0.2996  0.1952  0.0301
 3526W        W20000   3.667   2.559   4.123  0.1200  0.1457  0.1584
 3527W        W20001   6.394  12.077  13.737 -0.1816 -0.0025  0.0275
 3528W        W20002  11.903   2.016   0.761  0.0480  0.2581  0.0456
 3529W        W20003  16.885   5.136  11.801  0.1760 -0.1650 -0.2619
 3530W        W20004  14.763   5.718  13.328 -0.2609  0.3544  0.0270
 3531W        W20005   7.481   4.478  13.780 -0.0341 -0.0118 -0.0230
 3532W        W20006   5.823  14.975   1.542  0.2871 -0.2034  0.1688
 3533W        W20007  10.838  15.290  15.766  0.2319  0.1966 -0.0764
 3534W        W20008   9.003  13.341  13.549 -0.0951 -0.1862  0.2173
 3535W        W20009  12.500  17.329   0.226  0.0822  0.2863 -0.1025
 3536W        W20010   5.823  16.014  12.862 -0.1399 -0.2087  0.0297
 3537W        W20011  17.446  12.607  12.773 -0.2442  0.0994  0.0238
 3538W        W20012  11.155  12.403  13.161  0.1547 -0.2449  0.1544
 3539W        W20013   4.065   9.027   5.382  0.2030  0.1166  0.3082
 3540W        W20014  14.862  13.194  16.264 -0.1752 -0.3007 -0.1509
 3541W        W20015   5.798   7.254   4.893 -0.0634  0.1863 -0.4165
 3542W        W20016  16.768  13.587  13.351 -0.0290  0.4035  0.0582
 3543W        W20017  10.084   7.185  13.730  0.1578 -0.0644  0.0766
 3544W        W20018   7.293  11.111   1.221 -0.2482  0.0484 -0.2748
 3545W        W20019   8.494   3.063   2.804 -0.1737 -0.1518  0.2581
 3546W        W20020  17.854   7.648   4.623  0.1991 -0.0190 -0.1432
 3547W        W20021   2.557   0.402   3.778  0.2788  0.2056  0.3298
 3548W        W20022  15.442   6.089   5.807 -0.3444  0.0733  0.1732
 3549W        W20023   1.835   9.393   4.869 -0.2448 -0.0677 -0.0748
 3550W        W20024   8.372  12.085   2.960 -0.1263 -0.4414  0.0478
 3551W        W20025   1.610   8.890   0.686 -0.0929  0.2295 -0.1136
 3552W        W20026   1.010   7.366  12.522 -0.1498 -0.3529 -0.0359
 3553W        W20027  11.116   9.343   4.116  0.0330 -0.0373  0.1754
 3554W        W20028   4.297   8.309   1.641 -0.2106 -0.2536 -0.0746
 3555W        W20029   9.019  11.816   4.413  0.0488 -0.1664 -0.0982
 3556W        W20030  15.811  16.927  13.499  0.0732 -0.0462  0.0256
 3557W        W20031   5.359   8.492   1.509  0.1667 -0.1108 -0.0135
 3558W        W20032   0.096  13.479  13.288 -0.0323 -0.2426 -0.0705
 3559W        W20033  12.100  12.462   2.624  0.0906 -0.2171 -0.2793
 3560W        W20034   9.788  11.108   4.485 -0.0886  0.0687 -0.1622
 3561W        W20035   8.005   1.668   1.790 -0.0071 -0.0303 -0.1391
 3562W        W20036  14.122   3.012   5.167  0.3229 -0.3816 -0.5366
 3563W        W20037   4.133  12.019   3.813 -0.2591 -0.1282 -0.2074
 3564W        W20038   2.255  15.734  16.229 -0.0810  0.2098 -0.0527
 3565W        W20039   1.694  12.649  15.744 -0.1033 -0.0790  0.1881
 3566W        W20040   9.709   2.997   0.539  0.2775 -0.1496 -0.2190
 3567W        W20041   0.641  13.351  16.042  0.0204 -0.1018 -0.2281
 3568W        W20042  11.702  16.557   5.232  0.0674  0.0249  0.0077
 3569W        W20043  11.125   1.789  13.571 -0.0245  0.1636 -0.4039
 3570W        W20044   5.752   9.181  11.688  0.1591  0.3725  0.0981
 3571W        W20045  10.419   8.194   1.669  0.1127 -0.1699  0.2102
 3572W        W20046   3.251   9.040   0.690 -0.2018  0.4317  0.1869
 3573W        W20047   5.474   0.307   1.208 -0.1158  0.2266  0.1300
 3574W        W20048   7.240   9.408  16.246  0.1064 -0.1009 -0.2023
 3575W        W20049  13.147   7.914  16.264 -0.0965 -0.0398  0.1615
 3576W        W20050   1.012  15.831   2.488  0.0746 -0.2224  0.2995
 3577W        W20051   7.025  17.655   3.120  0.1066  0.4121  0.2527
 3578W        W20052   1.729  13.189   3.675 -0.0519 -0.3908 -0.3447
 3579W        W20053  17.061   1.090   2.887 -0.2227  0.0381 -0.1585
 3580W        W20054   9.405   0.085  12.474 -0.1641  0.0358  0.1561
 3581W        W20055   3.366  13.162   0.341 -0.0257 -0.1370  0.3065
 3582W        W20056   1.306  10.854   3.612 -0.0089  0.2987  0.1086
 3583W        W20057   0.974   3.003   5.835  0.4120 -0.0295  0.0359
 3584W        W20058   5.879  13.258  16.117 -0.0336 -0.2444 -0.0404
 3585W        W20059  13.434  11.916   1.164  0.1926 -0.0899 -0.2337
 3586W        W20060   2.361  10.438   1.261 -0.0250 -0.0072  0.1748
 3587W        W20061   6.408   9.561   1.505 -0.0017  0.0271  0.1644
 3588W        W20062  12.945   8.480   5.482 -0.2610 -0.3221  0.0175
 3589W        W20063   9.149   3.374  15.197  0.0230 -0.1447 -0.1845
 3590W        W20064  11.235   5.595   3.927  0.0575 -0.0169  0.0806
 3591W        W20065  10.122  15.847  11.426  0.1269 -0.0167  0.2184
 3592W        W20066  10.427   8.769   0.484 -0.3006  0.0133 -0.3423
 3593W        W20067   1.154  11.478  12.593  0.2265 -0.1663  0.1494
 3594W        W20068  18.145  15.302   3.428 -0.0564 -0.1089  0.2151
 3595W        W20069   5.616   4.672   0.262  0.1506 -0.1083 -0.2465
 3596W        W20070   2.129  16.265  15.292 -0.0026 -0.1379 -0.2838
 3597W        W20071  15.386   9.211  15.988 -0.0398 -0.2162  0.2702
 3598W        W20072  12.430   8.483   0.741 -0.0323  0.3737  0.0901
 3599W        W20073   0.090   9.235  16.035 -0.1088  0.1388 -0.0336
 3600W        W20074  12.426  13.525   5.557 -0.1253  0.0064 -0.2307
 3601W        W20075   3.454   8.445  14.534  0.0902 -0.0805  0.0280
 3602W        W20076  13.848  12.560  12.312 -0.1560  0.0895  0.0068
 3603W        W20077   9.902   2.627   3.891  0.2466  0.2257  0.3775
 3604W        W20078   2.583   0.049  14.810 -0.1940 -0.0083 -0.1431
 3605W        W20079   2.660   2.017  13.813 -0.0303  0.0817 -0.1828
 3606W        W20080  13.712  13.163  15.716  0.1034  0.1275  0.1103
 3607W        W20081  11.423  10.049   2.412  0.2706 -0.2096  0.0336
 3608W        W20082   0.435   3.549  14.647  0.0132  0.0098  0.0655
 3609W        W20083  11.369   9.527  15.308 -0.0079 -0.0334  0.1872
 3610W        W20084   9.528  10.610   3.775  0.2335  0.2776 -0.0873
 3611W        W20085   4.175  12.711   3.766 -0.2764 -0.0900  0.1927
 3612W        W20086   9.199  15.785   0.253  0.1461  0.1251  0.1633
 3613W        W20087   3.545  12.553   2.619  0.1770 -0.0455  0.0648
 3614W        W20088  12.083   4.952   3.929 -0.2529 -0.0729 -0.0667
 3615W        W20089   5.049   4.147   3.036  0.0674  0.0710  0.1824
 3616W        W20090  11.387  12.655   5.682 -0.4016  0.0728  0.4161
 3617W        W20091   9.349   6.305  15.350  0.1548  0.0484  0.0386
 3618W        W20092  12.648  12.453   0.923  0.1913 -0.1669  0.3731
 3619W        W20093   8.071   6.172   4.601 -0.1426 -0.2600 -0.0999
 3620W        W20094   6.851   8.212   5.256  0.0751 -0.3677 -0.1503
 3621W        W20095  12.593   5.657  14.095  0.1320  0.1201 -0.4060
 3622W        W20096  17.346   7.177  16.203 -0.1183 -0.1284 -0.1241
 3623W        W20097   3.154  10.221   0.991 -0.0702 -0.0966 -0.1168
 3624W        W20098  10.077  16.511  14.062 -0.3228  0.1284  0.0249
 3625W        W20099   1.292  13.381  13.086  0.0541  0.0835 -0.1048
 3626W        W20100  15.712  11.619  16.218 -0.0422 -0.0652  0.0476
 3627W        W20101  13.848   9.588   3.012 -0.0873 -0.1558 -0.1078
 3628W        W20102   5.394   9.774  12.045  0.1032 -0.0061 -0.0259
 3629W        W20103  12.551  12.125  14.411  0.1139  0.0989  0.3343
 3630W        W20104   4.466  17.747  11.390  0.3299  0.1272 -0.1138
 3631W        W20105  15.386  14.042   5.504  0.2839  0.0810  0.1140
 3632W        W20106   5.822  10.341   5.272  0.1544 -0.0169  0.0790
 3633W        W20107   0.861   8.556   3.693  0.2059  0.0142  0.0299
 3634W        W20108  17.630  14.099   1.715 -0.1325  0.0134 -0.0293
 3635W        W20109   4.659  16.031  12.295 -0.2346  0.1058  0.0953
 3636W        W20110   2.220   0.511   4.154 -0.0273 -0.2231  0.1962
 3637W        W20111   5.139   7.805  13.285  0.2497  0.3465  0.1091
 3638W        W20112   3.144  16.161  11.593 -0.2259 -0.2546 -0.1719
 3639W        W20113   0.746  10.019  13.959 -0.2720 -0.1578 -0.2781
 3640W        W20114   5.141  12.490  11.343 -0.2540 -0.2533 -0.1266
 3641W        W20115  10.175  10.659   1.884  0.0819  0.2064  0.0758
 3642W        W20116  11.547   0.485   3.821 -0.2508  0.2505 -0.0783
 3643W        W20117   6.130   3.873   4.419  0.1154  0.0563  0.3886
 3644W        W20118   1.434  15.655  13.515  0.0483  0.1256 -0.2074
 3645W        W20119  17.612  17.812   0.093 -0.2507 -0.0467  0.1233
 3646W        W20120  12.202  17.021   2.965  0.0516 -0.1494  0.0080
 3647W        W20121   2.726  15.356   1.369  0.1303 -0.0565  0.0658
 3648W        W20122   2.444   0.814  13.649  0.0417  0.2633  0.2844
 3649W        W20123  16.859   5.168  11.208 -0.0048 -0.0225 -0.1984
 3650W        W20124  17.647   3.338  14.791  0.0576  0.0250 -0.0880
 3651W        W20125   6.318  16.516   3.155  0.2044  0.2789 -0.0599
 3652W        W20126  12.455  11.235   5.085 -0.2393  0.0712 -0.0001
 3653W        W20127   1.340  11.688  11.502 -0.1262 -0.2076 -0.2139
 3654W        W20128  14.747   8.124   3.905  0.0559  0.1155 -0.1231
 3655W        W20129   4.114  10.737  13.102 -0.0308 -0.2138 -0.0418
 3656W        W20130   7.691   9.841  14.512  0.1258  0.0428 -0.0981
 3657W        W20131   3.706   9.428   3.635  0.2043 -0.1765 -0.3019
 3658W        W20132  10.117  12.643   0.262 -0.1707 -0.1323  0.0510
 3659W        W20133   3.544   5.580  15.276  0.0437 -0.0935 -0.0684
 3660W        W20134   9.484  12.416  12.416  0.0499 -0.0315  0.1455
 3661W        W20135   4.803  15.902   0.867  0.0086 -0.2442  0.1084
 3662W        W20136   1.227   6.760   1.536  0.0062 -0.0834  0.0464
 3663W        W20137  17.672  18.049  12.849 -0.0440  0.0479 -0.0162
 3664W        W20138   4.442   1.594  13.897  0.3321 -0.0612 -0.2076
 3665W        W20139   4.314   2.408   2.697  0.0962  0.0525 -0.4024
 3666W        W20140  15.524   8.402   5.697 -0.0571  0.0076 -0.2615
 3667W        W20141   0.160   6.963   5.619 -0.1058  0.0658  0.4878
 3668W        W20142   6.424   4.721   0.843  0.1081 -0.0846 -0.2866
 3669W        W20143   0.033  12.379   2.196 -0.1202 -0.0711  0.0632
 3670W        W20144   2.099  10.833  12.555 -0.0816 -0.2204  0.2436
 3671W        W20145   4.274  17.649  14.142  0.0635 -0.3011 -0.1656
 3672W        W20146  10.948   2.531  11.679  0.0930 -0.0558 -0.2128
 3673W        W20147  11.281  16.555  11.931  0.1274 -0.2353  0.1845
 3674W        W20148  14.851   2.809   4.014 -0.1980  0.0578  0.0508
 3675W        W20149  10.918   7.689  12.002  0.0272  0.0992 -0.0389
 3676W        W20150  13.536  16.045   2.062 -0.1156  0.0938  0.0897
 3677W        W20151   2.788   5.050   0.253  0.1006  0.1594  0.1062
 3678W        W20152   6.743  17.041  12.578  0.1008 -0.2291  0.1427
 3679W        W20153   8.774   5.579   1.213  0.2394 -0.2581 -0.0705
 3680W        W20154   0.050   1.505   4.367  0.0010  0.0042  0.0737
 3681W        W20155   0.092   4.487   0.225 -0.1943  0.2204  0.0743
 3682W        W20156   8.365   4.451   2.100 -0.0218  0.0338  0.0947
 3683W        W20157  12.937   1.390  11.770  0.1168  0.0162  0.0928
 3684W        W20158  16.203   6.874   5.544 -0.1098  0.1152 -0.2916
 3685W        W20159   0.939  16.467   3.556 -0.0373  0.0192 -0.1509
 3686W        W20160  15.747  14.093   0.095 -0.2822  0.0338 -0.2262
 3687W        W20161  15.086  10.525   3.984 -0.1692 -0.0619 -0.0410
 3688W        W20162  13.015  17.999  13.138 -0.1751  0.1537  0.0606
 3689W        W20163   5.444   4.229  14.389 -0.0726  0.3259  0.3241
 3690W        W20164  11.673   5.643   5.091  0.0765  0.0401 -0.2490
 3691W        W20165  12.811   0.802  13.162  0.0809 -0.1452 -0.1488
 3692W        W20166   2.333  10.444   6.318  0.1263 -0.1136 -0.4683
 3693W        W20167   0.824   2.056   1.926 -0.1922  0.3652  0.0071
 3694W        W20168  16.110   3.861   2.322 -0.1297  0.0440  0.0765
 3695W        W20169   1.938   9.458   1.979 -0.2099  0.0900 -0.0071
 3696W        W20170   9.443  14.582   5.621  0.1728 -0.0323 -0.0388
 3697W        W20171  14.823   3.464  11.582  0.3094 -0.2536  0.2307
 3698W        W20172   5.996   5.170   1.703 -0.0633 -0.0139 -0.1420
 3699W        W20173  14.519   1.951  14.718 -0.2177 -0.0128 -0.1437
 3700W        W20174   5.058   4.412   3.895 -0.0383 -0.0030 -0.1599
 3701W        W20175  13.623   0.087   2.571 -0.2474  0.0777 -0.0162
 3702W        W20176  14.554   1.370  10.954 -0.0512  0.1405 -0.0323
 3703W        W20177  13.090  13.117   0.601 -0.1150 -0.0609  0.4890
 3704W        W20178  13.569   1.677   2.164 -0.1430  0.2305 -0.2136
 3705W        W20179   3.320  17.470   5.176  0.0971 -0.0739 -0.3455
 3706W        W20180  15.573   9.329   5.371  0.1168  0.0196  0.1377
 3707W        W20181   1.845   6.142  13.765  0.3953  0.0266 -0.2549
 3708W        W20182   8.428  13.761  14.513  0.1308 -0.1334  0.2770
 3709W        W20183   6.935   5.477  14.864  0.1461  0.2590 -0.2708
 3710W        W20184   9.928  13.243   3.847 -0.1482 -0.0038  0.1501
 3711W        W20185   5.297  12.304  14.616 -0.1839  0.0172  0.2118
 3712W        W20186   2.929   0.552   3.457  0.3028  0.3590 -0.0306
 3713W        W20187  12.751   3.538  15.279  0.1118 -0.0969 -0.1675
 3714W        W20188  14.743  12.923   3.457  0.1956  0.2444 -0.1835
 3715W        W20189  12.817  17.877   2.600 -0.1490 -0.2323  0.0907
 3716W        W20190   2.255   4.979   4.799  0.2308 -0.0851 -0.1128
 3717W        W20191   5.830  15.170   1.977 -0.3326 -0.2599  0.1843
 3718W        W20192  17.232   0.372   2.254 -0.0450  0.2731 -0.0289
 3719W        W20193   1.752   1.416  13.525 -0.0172  0.0273  0.1823
 3720W        W20194  17.017   3.262   9.999  0.0303  0.0776 -0.0409
 3721W        W20195  16.370   3.261   1.821  0.0368  0.0068 -0.1574
 3722W        W20196  10.833   6.878   3.586 -0.2033  0.1379 -0.0166
 3723W        W20197  13.290  13.927   0.407  0.0591 -0.0786  0.1950
 3724W        W20198  12.623   4.731  12.256 -0.0591  0.1141  0.0475
 3725W        W20199   0.572  10.188  15.968  0.1417  0.1076 -0.0768
 3726W        W20200  14.962   1.159   4.154  0.2221 -0.2324  0.3812
 3727W        W20201  16.393   6.786   5.084 -0.2319 -0.1113 -0.1212
 3728W        W20202  14.340  16.151   4.771 -0.1386 -0.2217 -0.0548
 3729W        W20203  17.562   8.118   5.561 -0.3538  0.0037 -0.0905
 3730W        W20204   5.953   1.050  15.451 -0.1121  0.2137  0.0167
 3731W        W20205   1.610  18.169   2.717 -0.2064  0.2249  0.0740
 3732W        W20206  11.853  12.995   4.218 -0.5797 -0.2596  0.0788
 3733W        W20207  11.547   7.068  14.978 -0.2802  0.2031 -0.3995
 3734W        W20208   1.304   8.747  13.597 -0.0397  0.3494 -0.0877
 3735W        W20209   1.811   2.154   1.814 -0.0707 -0.0072  0.3174
 3736W        W20210  15.456  15.594   1.128 -0.1956 -0.1364  0.0697
 3737W        W20211   8.628   0.572   4.094  0.1168  0.1684  0.0137
 3738W        W20212   2.456   1.246   4.657 -0.0246 -0.0007  0.0733
 3739W        W20213  15.189  12.397  14.122 -0.3177  0.3533  0.0008
 3740W        W20214   4.974  13.842   4.240 -0.0182  0.1230 -0.2683
 3741W        W20215   8.424   8.394  15.760  0.0430  0.1929 -0.1855
 3742W        W20216  17.443  14.447   3.054  0.0218 -0.1011  0.2218
 3743W        W20217   7.721   3.380   4.790  0.1764  0.0497 -0.0252
 3744W        W20218   5.352  15.322   1.930  0.1753  0.0750  0.3154
 3745W        W20219   2.112  16.537  12.276  0.0505 -0.1411 -0.0664
 3746W        W20220  16.077   4.784  15.498  0.1611 -0.4196  0.0200
 3747W        W20221  12.987  17.380   4.858  0.3054  0.1463  0.1346
 3748W        W20222   5.766  10.916  14.106  0.0105 -0.0640  0.1850
 3749W        W20223  13.429   6.782   5.006 -0.1005 -0.0523 -0.0819
 3750W        W20224   3.162   6.574   4.236 -0.1266  0.2984 -0.2646
 3751W        W20225  10.169  14.253  11.813 -0.2264  0.2282  0.2940
 3752W        W20226   1.448  17.440  13.766 -0.3008  0.2442  0.0399
 3753W        W20227  14.167   1.519   0.838 -0.0906 -0.0768 -0.1583
 3754W        W20228   3.762   6.812   1.521 -0.0848  0.1985  0.1434
 3755W        W20229   9.791   8.661  12.795 -0.0359 -0.0758 -0.0865
 3756W        W20230   2.334   2.809  16.260  0.0319  0.2114 -0.1096
 3757W        W20231   0.006  11.478   1.405  0.1751 -0.2915  0.1125
 3758W        W20232   5.428   2.318   1.000 -0.4783 -0.1591  0.0620
 3759W        W20233   2.701   3.154  15.735 -0.0523  0.1427 -0.1596
 3760W        W20234  14.363  16.034   3.456 -0.0342  0.2536  0.1520
 3761W        W20235   1.919   5.525   5.733 -0.1436  0.0785 -0.0406
 3762W        W20236  12.094  13.247  11.903 -0.0705 -0.0006  0.1090
 3763W        W20237  15.588   2.965  11.967  0.1660  0.1338  0.0853
 3764W        W20238  17.441   1.776   0.858 -0.0168 -0.2133 -0.1328
 3765W        W20239   6.177   6.955   1.598  0.1299  0.1176  0.3917
 3766W        W20240  16.717  11.501   2.528 -0.2726 -0.0437  0.1829
 3767W        W20241  11.617  16.083   2.592  0.0803 -0.3204  0.2721
 3768W        W20242  15.185  11.497   4.115  0.4175 -0.3211  0.2311
 3769W        W20243   2.534   6.879  13.306 -0.0778 -0.2151  0.2059
 3770W        W20244   2.836  16.571   0.338 -0.1942  0.4264 -0.1077
 3771W        W20245  13.186   3.771   5.692  0.0461 -0.4900 -0.0904
 3772W        W20246  12.403   8.631   1.731  0.1796 -0.1522  0.0441
 3773W        W20247   5.270   0.469   0.794 -0.2006 -0.0145  0.1288
 3774W        W20248   7.686  13.214   1.654 -0.2400  0.2242 -0.1176
 3775W        W20249   3.707   0.096  15.154 -0.0539  0.0436 -0.2205
 3776W        W20250   3.075   5.247   3.575  0.3931 -0.0198 -0.4358
 3777W        W20251  11.974   8.915  15.786 -0.0784  0.1952  0.2300
 3778W        W20252   6.156  10.955   3.766  0.1264 -0.1298  0.2248
 3779W        W20253  15.704   6.584  12.481  0.2901  0.0916 -0.0382
 3780W        W20254  12.811   9.323   5.151  0.0170  0.2415  0.1116
 3781W        W20255   8.293   7.883  12.883  0.1323  0.1823 -0.1170
 3782W        W20256   0.851   8.113  14.882 -0.3526 -0.1344 -0.1996
 3783W        W20257  15.867   0.840   4.288 -0.0072  0.2348 -0.1581
 3784W        W20258   4.319   1.237  14.754 -0.0675 -0.4124  0.1124
 3785W        W20259  15.245  13.779   2.792 -0.0002 -0.2931  0.1311
 3786W        W20260   9.692  18.052  13.284  0.2172  0.1256  0.5999
 3787W        W20261   7.411  14.741   5.040  0.0648  0.2771 -0.3653
 3788W        W20262   1.266   5.431   0.100 -0.1299  0.0555  0.0033
 3789W        W20263   0.043   8.401   0.504  0.1525 -0.3312  0.0839
 3790W        W20264   1.156  12.919   1.269  0.0611 -0.3427 -0.1541
 3791W        W20265  15.870   6.306   1.290 -0.0525 -0.3428  0.0694
 3792W        W20266  17.155   8.964  13.012 -0.2569 -0.1139  0.0461
 3793W        W20267   0.026  14.628  15.783  0.0579 -0.1525 -0.0106
 3794W        W20268   6.306  11.688  14.043  0.0027 -0.0605  0.2299
 3795W        W20269  14.571   3.970   5.445 -0.1280  0.1091 -0.2218
 3796W        W20270  11.252   7.705  12.956 -0.1565  0.0271  0.2808
 3797W        W20271   1.406   0.225   1.660  0.0934 -0.1724 -0.0134
 3798W        W20272  13.963   5.942  11.774 -0.2602  0.0291 -0.1565
 3799W        W20273   9.084   7.842   1.990 -0.0348  0.0867  0.1875
 3800W        W20274  15.713  10.889  15.656  0.1963  0.1480  0.0546
 3801W        W20275   1.036   3.989   4.838 -0.1154 -0.0743 -0.2456
 3802W        W20276   2.157   1.134  14.882 -0.0346 -0.1021 -0.0813
 3803W        W20277  14.687  15.425  13.446 -0.3092 -0.3251 -0.0607
 3804W        W20278  17.390  14.640  13.552 -0.0466  0.1389 -0.2327
 3805W        W20279   6.087   4.458  13.102  0.2215  0.2769 -0.1906
 3806W        W20280  12.415   0.049   2.702 -0.2827 -0.0806 -0.1415
 3807W        W20281  13.875   1.833   3.930 -0.2419  0.2455 -0.3097
 3808W        W20282  15.446   0.771   4.487 -0.3147 -0.0968 -0.0351
 3809W        W20283  11.178  14.979   1.403 -0.0534 -0.0638 -0.2384
 3810W        W20284  13.667  10.083  13.440 -0.1975  0.0150 -0.0619
 3811W        W20285  17.407   4.440  15.564 -0.1967 -0.3466 -0.0291
 3812W        W20286  13.334   2.443   3.034  0.0818 -0.0236 -0.0672
 3813W        W20287   2.249  16.038   4.177 -0.0889  0.0858  0.2044
 3814W        W20288   2.167   0.196  13.239  0.0862 -0.0167  0.1717
 3815W        W20289  14.156  10.715   0.054  0.2091 -0.0008  0.0084
 3816W        W20290   5.690   6.377  14.658 -0.0225 -0.1043 -0.0558
 3817W        W20291   0.595  10.174   3.809 -0.1360  0.1100 -0.0192
 3818W        W20292   0.256  16.748   1.997 -0.2769 -0.0737 -0.1317
 3819W        W20293   7.344   5.239  14.555  0.1227 -0.2522 -0.0356
 3820W        W20294  11.239   6.572   2.174  0.1138  0.1192 -0.1508
 3821W        W20295  15.251  15.365  14.511  0.2068  0.0234  0.1548
 3822W        W20296  17.640   2.384  14.326  0.3042  0.0660  0.0439
 3823W        W20297  17.703  15.684  11.174  0.1583  0.1156  0.1075
 3824W        W20298  12.282   4.627   0.951 -0.1842  0.0768  0.2339
 3825W        W20299   0.589   5.560   0.769 -0.3094 -0.1136 -0.2497
 3826W        W20300   4.405   1.082  12.153  0.1582  0.0228  0.1540
 3827W        W20301  17.756   6.081   1.062 -0.1957  0.1249  0.1030
 3828W        W20302   2.574   2.989  15.107  0.0660 -0.0037 -0.3872
 3829W        W20303  10.782  13.822   3.337 -0.1262 -0.0781  0.2219
 3830W        W20304  13.745  10.976   1.499  0.1191 -0.0359  0.2051
 3831W        W20305   5.317   2.051   4.705  0.0058 -0.2854 -0.3819
 3832W        W20306   5.989  17.611   4.447 -0.3231 -0.0355 -0.2265
 3833W        W20307   6.532  12.193  14.302  0.0685 -0.1354  0.0297
 3834W        W20308   5.226   0.587  14.250  0.0264 -0.0508  0.0843
 3835W        W20309   8.822   1.290   0.673  0.1358  0.0060  0.1119
 3836W        W20310  13.145  12.703  16.086  0.0069 -0.0742  0.3079
 3837W        W20311  16.952  12.095   3.593 -0.0892 -0.2933 -0.0019
 3838W        W20312   1.820   8.866   0.073 -0.0721  0.0781 -0.1729
 3839W        W20313  12.668  11.433  16.264 -0.0517 -0.1556 -0.2821
 3840W        W20314   7.331   6.727   5.348 -0.1823 -0.2329 -0.0872
 3841W        W20315  13.017  12.713  11.640 -0.2356 -0.0925  0.1483
 3842W        W20316   8.201  10.835   2.209  0.0574 -0.1395  0.1216
 3843W        W20317   6.029   2.943   3.957 -0.1031 -0.3106  0.1901
 3844W        W20318   3.191   0.004  15.345  0.1776  0.0237  0.1277
 3845W        W20319   1.757   2.559  14.753 -0.1497  0.0158  0.0074
 3846W        W20320  13.133   0.433  13.103 -0.1158 -0.1599  0.1184
 3847W        W20321   5.763  11.774  16.288 -0.1615 -0.0994 -0.0924
 3848W        W20322   7.680  11.299  15.122 -0.2164 -0.0596 -0.2205
 3849W        W20323   1.320  12.922   3.658 -0.1852 -0.1664  0.1535
 3850W        W20324  13.482  12.671   5.136  0.1722  0.3087  0.0522
 3851W        W20325   4.529   7.030   4.884 -0.0965 -0.0744 -0.0775
 3852W        W20326   9.494   7.768   5.892 -0.1565 -0.3006 -0.0388
 3853W        W20327  16.747  13.924  15.661  0.2431 -0.1033 -0.3133
 3854W        W20328   8.025  17.261   4.728  0.1054 -0.1787  0.3043
 3855W        W20329  14.919  18.169  11.640  0.0198 -0.0693  0.0624
 3856W        W20330  16.443   4.408  15.495  0.0970  0.3057 -0.1101
 3857W        W20331  16.957  11.095  15.400 -0.3196 -0.2318 -0.1268
 3858W        W20332  17.242  15.740  13.285 -0.0341  0.3980 -0.1623
 3859W        W20333  12.846   8.665  13.632 -0.0614 -0.2248  0.0597
 3860W        W20334  11.710  18.076   6.103 -0.0281 -0.0702 -0.0870
 3861W        W20335  14.215  15.562   3.556  0.0882  0.0423  0.1036
 3862W        W20336   2.670   2.803   4.273 -0.2011 -0.1311  0.0590
 3863W        W20337   1.650  15.156   0.001  0.2346 -0.1548 -0.0819
 3864W        W20338   6.979   9.753  11.424 -0.0622  0.1487 -0.1185
 3865W        W20339   1.874   6.032   0.578 -0.1284 -0.3931 -0.1075
 3866W        W20340   8.517   2.615  16.198  0.0607  0.0312  0.1417
 3867W        W20341   5.916  14.979  12.684 -0.3418 -0.1386  0.1637
 3868W        W20342  14.876   5.081  15.131 -0.1999  0.1709 -0.0998
 3869W        W20343  11.275  15.572   3.407 -0.0015  0.1627  0.1058
 3870W        W20344   1.531   0.606  14.117 -0.0273  0.3934  0.1471
 3871W        W20345   9.064   5.390  12.226 -0.1865  0.1291 -0.0119
 3872W        W20346   8.387   9.702   5.302  0.0485  0.0585  0.0348
 3873W        W20347   7.610  12.899  12.536 -0.0345  0.1783  0.2591
 3874W        W20348  13.303  11.843   4.400 -0.0002 -0.2362  0.2465
 3875W        W20349  13.427   0.734  15.930  0.1784 -0.0320  0.2262
 3876W        W20350   3.147   6.152   0.933 -0.0385  0.0770 -0.0884
 3877W        W20351  10.002  17.819  15.993 -0.0463  0.1271  0.0739
 3878W        W20352   4.832   0.077  15.009 -0.0085  0.1470  0.1810
 3879W        W20353  11.188  17.124  12.154 -0.0779  0.0846 -0.0476
 3880W        W20354   4.157   0.781  14.480  0.2212  0.2117  0.0072
 3881W        W20355   6.919   4.165  14.258 -0.1322 -0.2472 -0.1283
 3882W        W20356  16.283   5.293  12.127  0.0641  0.0015  0.0236
 3883W        W20357   8.358   6.352  14.041 -0.0909  0.2891  0.0545
 3884W        W20358   9.525  17.787  13.773 -0.1383 -0.0306  0.0684
 3885W        W20359   8.820   9.398   4.086  0.0798 -0.1447 -0.4903
 3886W        W20360   1.757  13.740  15.936 -0.1493 -0.0876  0.1818
 3887W        W20361   6.535  11.750   4.259 -0.2802  0.0314 -0.2257
 3888W        W20362  15.352   9.891  15.587  0.1132 -0.2777  0.0452
 3889W        W20363   1.024  16.862   0.170 -0.1366 -0.0731  0.1467
 3890W        W20364   1.416  12.711  11.364  0.0993  0.0497 -0.1573
 3891W        W20365  13.320   0.221   3.564 -0.2290  0.0679  0.1303
 3892W        W20366   6.775   3.091   3.563 -0.0650  0.0353  0.1140
 3893W        W20367  17.029   6.319  16.014  0.0466 -0.0309 -0.0494
 3894W        W20368  11.123  11.750   5.964  0.0088 -0.4491  0.3306
 3895W        W20369   9.249   8.088   0.356 -0.2179 -0.2268  0.0700
 3896W        W20370  16.688  15.621   1.754 -0.1438 -0.0215  0.4112
 3897W        W20371   3.824  11.956   1.976  0.0686  0.2009  0.1494
 3898W        W20372  11.134   1.508   0.260 -0.0234 -0.0698 -0.2080
 3899W        W20373  13.213  13.784  13.242  0.3644  0.1235 -0.0032
 3900W        W20374   5.561  12.311   3.563 -0.0833  0.2483  0.0650
 3901W        W20375  16.066   2.046  13.927 -0.2241 -0.0042 -0.1226
 3902W        W20376   2.954   4.554   0.351 -0.1126  0.1876 -0.1966
 3903W        W20377   3.979  13.782   2.414 -0.0762  0.0131 -0.3387
 3904W        W20378  15.894   3.402  14.880 -0.0294  0.0727  0.0307
 3905W        W20379   5.442  16.376  15.930  0.2657 -0.1683  0.1486
 3906W        W20380   5.169   5.324  15.986  0.3104  0.0881 -0.0252
 3907W        W20381  10.382  14.218  12.722 -0.3256 -0.1207 -0.1423
 3908W        W20382  13.476   5.245   3.794 -0.2148  0.1894 -0.0596
 3909W        W20383  14.542   1.025   5.119  0.2930  0.1004  0.0123
 3910W        W20384  14.792   9.362   4.399 -0.3579 -0.1239  0.1606
 3911W        W20385   5.484   8.786   4.539  0.1101 -0.0953 -0.2474
 3912W        W20386   4.422   7.628  13.865 -0.3362 -0.1420 -0.1368
 3913W        W20387  15.796   0.435  11.953 -0.1563  0.2665  0.4003
 3914W        W20388   6.935   6.821   0.745 -0.2440  0.1005  0.1230
 3915W        W20389   9.554  11.085   3.464 -0.2487  0.0543  0.0656
 3916W        W20390  16.477   1.817  14.211 -0.0585  0.0169  0.0136
 3917W        W20391   0.047  13.962   0.378  0.1100 -0.1016  0.0848
 3918W        W20392   8.801  15.386   4.664  0.0335  0.1248 -0.4237
 3919W        W20393  16.765   4.148   3.948 -0.0936 -0.2227 -0.0632
 3920W        W20394  10.904   0.715   1.103 -0.1457 -0.0466 -0.0317
 3921W        W20395  10.139   4.837  12.682 -0.1646  0.3304 -0.1468
 3922W        W20396   3.281   3.331  15.310  0.3203  0.3455 -0.3054
 3923W        W20397   7.936   4.740  12.237 -0.2685  0.2688  0.1292
 3924W        W20398  15.319  13.868  14.767  0.1873  0.0335  0.3592
 3925W        W20399   7.320  13.807  14.246  0.0244  0.2893  0.0197
 3926W        W20400   1.280  18.093   1.255 -0.0503  0.2604  0.3064
 3927W        W20401  10.670  15.710   0.545  0.2079  0.0757 -0.2576
 3928W        W20402  17.721   3.749   3.722 -0.0541  0.1719 -0.2210
 3929W        W20403  16.277  14.486  13.293 -0.2479 -0.1599 -0.4160
 3930W        W20404   8.619   4.035  15.156  0.4258 -0.0544  0.2762
 3931W        W20405  15.203  17.305  11.555  0.1637  0.1643  0.2324
 3932W        W20406   6.880  17.108  13.046 -0.0024 -0.1694  0.0942
 3933W        W20407   7.238   2.020   2.144  0.3717  0.0865  0.0180
 3934W        W20408  12.792   7.626   0.699  0.0077 -0.0905 -0.0219
 3935W        W20409  14.588   5.384  13.851  0.4027 -0.1263 -0.0206
 3936W        W20410  14.681   9.232  13.569  0.0996  0.0418 -0.1951
 3937W        W20411   5.487   8.850   4.032  0.3655 -0.1585  0.0649
 3938W        W20412   2.430  10.741  11.573  0.1019 -0.2866  0.1077
 3939W        W20413   7.557   6.935  14.806  0.0181 -0.0232  0.2769
 3940W        W20414  17.048   1.921   5.622 -0.0115  0.0132  0.1124
 3941W        W20415   8.543  11.170  12.723 -0.1007  0.2504 -0.0503
 3942W        W20416   3.590  14.317  16.240  0.1846 -0.0210  0.1376
 3943W        W20417  11.945  14.596  16.017 -0.0114 -0.1087 -0.3635
 3944W        W20418   6.893  13.091   1.087  0.0778 -0.0748 -0.3122
 3945W        W20419   2.662   8.547   4.124  0.1228  0.1526 -0.0030
 3946W        W20420   2.821   7.504   4.962  0.1582  0.1683  0.0476
 3947W        W20421   1.126   6.330  15.925  0.3068  0.0781 -0.3110
 3948W        W20422   7.432   3.052   1.886 -0.0500  0.1724  0.0493
 3949W        W20423  10.903   9.554   3.010  0.1720 -0.4081 -0.0165
 3950W        W20424   4.941  11.359  14.072  0.3689 -0.0012  0.1135
 3951W        W20425   1.773   2.000  14.738  0.1932  0.2049 -0.2009
 3952W        W20426  11.736   7.257  15.523  0.1731  0.2167 -0.0198
 3953W        W20427   4.367  10.164   1.379 -0.0851  0.2982  0.1462
 3954W        W20428  14.844  17.476   3.502  0.3201  0.0392  0.0971
 3955W        W20429  13.107  18.147  15.340  0.2477 -0.2338 -0.0769
 3956W        W20430   1.131   2.283  14.656  0.1243 -0.1941 -0.4338
 3957W        W20431  13.065   9.547  15.326  0.0841  0.1263 -0.0088
 3958W        W20432   4.511   3.971  15.277  0.1762 -0.0133 -0.1700
 3959W        W20433  17.836   0.835   0.768  0.0136 -0.2750 -0.0954
 3960W        W20434   4.236   2.930  11.936  0.0786  0.2795 -0.0021
 3961W        W20435   2.011  10.336  12.388 -0.3659 -0.0613 -0.0759
 3962W        W20436   1.104  11.011   4.877 -0.0600  0.0678  0.0715
 3963W        W20437   5.494  14.385   2.933 -0.3566  0.2619 -0.1292
 3964W        W20438  15.886  16.011   3.234 -0.0442  0.2074  0.4494
 3965W        W20439   9.435   3.222   1.969  0.0230  0.2248 -0.0627
 3966W        W20440  10.386  11.067  13.148 -0.1049 -0.0888 -0.1916
 3967W        W20441   0.146   9.804  15.962 -0.1533 -0.1657 -0.1959
 3968W        W20442   7.101  15.370  13.822 -0.1722  0.0503  0.0725
 3969W        W20443  11.354   5.377  12.705  0.2466  0.1381  0.0206
 3970W        W20444   7.082  16.718  11.218  0.0599  0.2017  0.0148
 3971W        W20445   6.947   0.833   3.749 -0.0518 -0.0041 -0.0131
 3972W        W20446  17.143   5.388   3.606  0.2636  0.1588  0.0657
 3973W        W20447  12.003   0.650  11.654  0.0527 -0.0928 -0.2214
 3974W        W20448  12.746   4.333  11.560  0.0902  0.0907 -0.0095
 3975W        W20449  15.389   5.956   0.425  0.0979  0.0318  0.3044
 3976W        W20450   8.810   5.255   5.109  0.0121 -0.0015 -0.0031
 3977W        W20451   5.003   6.148  13.853 -0.0859  0.0922 -0.2220
 3978W        W20452   8.820   0.287  15.347  0.0435 -0.1268  0.0551
 3979W        W20453   5.759  13.028  12.419  0.0580  0.1965 -0.1672
 3980W        W20454  12.772   8.110   0.534 -0.1912  0.0889  0.1204
 3981W        W20455  11.170   4.771   0.226 -0.2371 -0.1352 -0.1664
 3982W        W20456   3.039   8.864  11.800  0.0031  0.0536  0.2488
 3983W        W20457  13.298   4.267   4.692 -0.1089  0.1871 -0.0821
 3984W        W20458  12.692  12.051   5.964 -0.0457 -0.1663 -0.2355
 3985W        W20459  12.595   6.942  15.403 -0.1359 -0.0074 -0.0231
 3986W        W20460   0.746  14.537   0.200  0.2299 -0.1750  0.0415
 3987W        W20461  16.145  13.514   0.657  0.1833  0.2543 -0.0218
 3988W        W20462  14.411   0.327  14.656  0.0712 -0.2753 -0.2637
 3989W        W20463  16.963  17.784  13.965  0.0263  0.3211  0.1926
 3990W        W20464   2.621  17.853   5.568  0.1388 -0.2831 -0.0488
 3991W        W20465   6.357  10.472   3.875 -0.1934 -0.2914 -0.0420
 3992W        W20466  14.903   0.701  12.044  0.2640  0.2670 -0.0907
 3993W        W20467   4.331  16.552   0.496  0.1232 -0.2401  0.1134
 3994W        W20468  10.108   8.521  13.224 -0.0666 -0.0045 -0.1064
 3995W        W20469   7.160  14.630  13.971  0.0909 -0.2810 -0.0831
 3996W        W20470  13.823   0.664   4.969 -0.0449  0.0002  0.0977
 3997W        W20471  17.958   7.055  12.181 -0.0516 -0.0307  0.0113
 3998W        W20472   0.391  10.218   2.062  0.0098 -0.0667  0.0636
 3999W        W20473  15.898   3.748   5.145  0.3235 -0.3337  0.2281
 4000W        W20474  16.521   4.183  12.757 -0.1612 -0.0909  0.1351
 4001W        W20475  14.605   3.560   3.824  0.0878  0.2182 -0.0843
 4002W        W20476   0.467  14.042  11.610  0.1003  0.0872  0.0899
 4003W        W20477   1.184  11.746  14.224  0.3296  0.0919  0.3417
 4004W        W20478  11.572   4.972   0.450  0.0074 -0.0531  0.1599
 4005W        W20479  15.726   0.118   5.907  0.1261 -0.2037  0.0821
 4006W        W20480   1.514   4.208  11.635 -0.1549  0.1095  0.1366
 4007W        W20481  11.793  10.365   3.474  0.0162  0.0877  0.1290
 4008W        W20482   9.366   2.596  12.948  0.2182 -0.0270  0.2207
 4009W        W20483  11.341   8.252   3.490  0.3227 -0.0642 -0.2408
 4010W        W20484   0.587  17.953   4.380  0.1275  0.4278 -0.0753
 4011W        W20485   5.178   9.367   3.911 -0.1058 -0.0758  0.1066
 4012W        W20486  14.825   8.916   0.886  0.0433  0.3420  0.2881
 4013W        W20487   6.218  15.838   1.115  0.0506 -0.3076  0.1546
 4014W        W20488   4.337   0.597   3.288  0.0460  0.0277  0.0140
 4015W        W20489  11.556  15.720   1.503  0.3150  0.0210  0.0461
 4016W        W20490  16.855  12.113   1.483 -0.0635  0.1388  0.2674
 4017W        W20491   6.400   2.341   4.525 -0.1386 -0.0080  0.0893
 4018W        W20492   8.838   3.754   4.053 -0.1978  0.2078 -0.1078
 4019W        W20493   5.731   6.117   3.067  0.1914 -0.0102  0.0858
 4020W        W20494  12.941  17.691   3.051  0.1156 -0.0679  0.0738
 4021W        W20495  14.189   2.333  14.737  0.2172 -0.2218 -0.0210
 4022W        W20496   3.998   9.404   0.248  0.0676  0.1515 -0.1178
 4023W        W20497   5.619  14.627  14.051  0.1377 -0.1542 -0.1371
 4024W        W20498  13.030  12.184  11.095  0.0389 -0.4528 -0.0611
 4025W        W20499  11.731   4.982  12.281  0.0339  0.0352  0.1829
 4026W        W20500  10.351  13.445   2.195  0.0694  0.0910 -0.0755
 4027W        W20501   8.220  10.646   3.705  0.1008 -0.0070  0.2522
 4028W        W20502   5.814   3.956   3.486 -0.0745  0.0873  0.0587
 4029W        W20503   5.358   0.380  15.765 -0.2325 -0.0496  0.0902
 4030W        W20504   0.899   0.037  14.337 -0.2794 -0.0905 -0.1697
 4031W        W20505  11.945   9.454   1.992 -0.2556  0.2427  0.0142
 4032W        W20506   5.290  13.557   3.900 -0.1533 -0.1153  0.1724
 4033W        W20507   8.109   3.091  13.782 -0.3388 -0.2066 -0.0820
 4034W        W20508  15.053  14.380   0.681  0.3142 -0.2082 -0.3139
 4035W        W20509   6.315  11.489  11.980 -0.1172  0.0166 -0.2388
 4036W        W20510  16.500  18.040  15.540  0.0392 -0.0643  0.0484
 4037W        W20511  13.915   8.134   2.778 -0.0902 -0.0201  0.2639
 4038W        W20512   2.704  13.604  12.819  0.1587 -0.1256  0.1315
 4039W        W20513   3.158   8.068  14.601 -0.0912  0.2507 -0.2262
 4040W        W20514  16.066   4.452  12.789 -0.1966 -0.0183 -0.0222
 4041W        W20515  11.242   8.821   4.170  0.0091  0.2356 -0.2232
 4042W        W20516  18.004  17.332  12.067 -0.0637  0.0286  0.5958
 4043W        W20517   4.031  12.215  14.186  0.0222  0.0465 -0.1745
 4044W        W20518   4.016   8.709  11.617 -0.2538 -0.0637  0.0873
 4045W        W20519   4.545  17.648   4.586 -0.0957 -0.1658 -0.0487
 4046W        W20520   3.007   6.910   2.866 -0.0161 -0.2332 -0.1100
 4047W        W20521   2.339   4.450  15.783  0.0775  0.1818 -0.1277
 4048W        W20522  11.203  16.780   0.836 -0.1975 -0.3040 -0.0114
 4049W        W20523  17.438  16.899   0.575 -0.3300  0.2311 -0.1137
 4050W        W20524   1.118  11.975   2.097 -0.0391  0.4489  0.1242
 4051W        W20525   1.816   4.499   0.937  0.1476 -0.0330 -0.1995
 4052W        W20526   7.805   9.954   4.015  0.0787 -0.1831 -0.0574
 4053W        W20527   9.536   2.734   0.190 -0.0365 -0.1182  0.0456
 4054W        W20528  13.143   0.527   1.550  0.1641 -0.2547 -0.0374
 4055W        W20529   7.010   6.535   5.617  0.0376 -0.0410 -0.2126
 4056W        W20530   4.119  12.417  11.074 -0.2580  0.0720  0.2183
 4057W        W20531  17.496  15.100  14.026 -0.2007 -0.2692 -0.0093
 4058W        W20532  14.615  17.248  15.477  0.0727  0.3239  0.0207
 4059W        W20533  11.343  12.109   2.327  0.2490  0.0373  0.2223
 4060W        W20534  14.690   2.008  13.953 -0.0764 -0.4301  0.0983
 4061W        W20535   4.706   0.013   2.680 -0.0895  0.3470 -0.0180
 4062W        W20536  17.644   0.475  13.215  0.0301 -0.0759 -0.1627
 4063W        W20537  13.265   7.998  14.529  0.1840 -0.0041  0.2078
 4064W        W20538  12.442   8.493   1.222  0.2027 -0.1373 -0.1959
 4065W        W20539   3.437   3.899  12.314  0.1563 -0.0520  0.2367
 4066W        W20540  13.031   0.792   3.663  0.2732 -0.2310  0.0688
 4067W        W20541   0.318  17.056   4.020  0.0133 -0.0899 -0.2353
 4068W        W20542  11.252  11.472   5.009 -0.1179 -0.2239  0.2218
 4069W        W20543  14.096   6.824  11.278 -0.1269  0.1584 -0.3122
 4070W        W20544   1.428   6.140   0.763 -0.1887  0.1077  0.0406
 4071W        W20545  17.669  12.492  15.768  0.1016 -0.2109  0.0065
 4072W        W20546   7.027  13.941   0.878  0.2146  0.0344  0.0450
 4073W        W20547   6.159   8.168   1.870  0.1588 -0.2067  0.0506
 4074W        W20548  13.202  15.400  10.635  0.1091  0.1099 -0.1021
 4075W        W20549  13.432   9.728  15.614  0.1570 -0.2751 -0.1106
 4076W        W20550  12.945   5.859   1.890  0.2398 -0.1898  0.1491
 4077W        W20551  15.419   8.204  11.648  0.0248  0.2597 -0.1227
 4078W        W20552   3.268   2.992  13.120  0.0293 -0.0023 -0.1234
 4079W        W20553   9.033   7.543  14.466  0.3123  0.4613  0.1915
 4080W        W20554   0.212  10.041   0.086  0.2599 -0.0108 -0.2618
 4081W        W20555  12.054  12.892  14.410 -0.1857 -0.0163 -0.0234
 4082W        W20556   9.310  16.185  11.588 -0.2093  0.1224 -0.3229
 4083W        W20557   9.739   4.351  15.894 -0.1779  0.0076 -0.2520
 4084W        W20558   9.829   2.241   1.914  0.0675 -0.0691  0.0070
 4085W        W20559   0.659  12.989   0.262 -0.0424 -0.0413 -0.1540
 4086W        W20560  11.519   6.500   3.955 -0.0474 -0.2075  0.4596
 4087W        W20561  14.507  16.530  11.469  0.1585  0.1081 -0.1485
 4088W        W20562  15.868   8.032  15.843 -0.2235  0.0479 -0.2889
 4089W        W20563   9.359  14.769   0.408 -0.1171  0.2340 -0.0266
 4090W        W20564  16.047  17.355  11.346 -0.0484 -0.3703  0.0291
 4091W        W20565   4.028   6.828   2.836  0.1174 -0.1219  0.0320
 4092W        W20566   3.342   7.832   1.506 -0.0233 -0.0898  0.2629
 4093W        W20567  12.136   4.443   0.027  0.0995 -0.2957 -0.1126
 4094W        W20568   3.753   4.931  13.413  0.1476 -0.0435 -0.0698
 4095W        W20569   6.233   3.548  12.260  0.2388 -0.0014  0.1900
 4096W        W20570  11.586   1.193   2.169 -0.5205 -0.3538 -0.2798
 4097W        W20571   8.474   6.580   3.149 -0.0473  0.0685 -0.0723
 4098W        W20572   3.377  15.188   2.822 -0.2773  0.2143  0.0315
 4099W        W20573   9.064   6.665   5.145 -0.2291 -0.2673 -0.0360
 4100W        W20574  17.123  17.159  13.868 -0.2021  0.3174 -0.1850
 4101W        W20575  16.542   3.874   4.303  0.0896 -0.2222  0.1068
 4102W        W20576   1.758   8.134  12.257  0.2333  0.0967 -0.0198
 4103W        W20577   5.090  15.548  11.236 -0.0472  0.0136 -0.1292
 4104W        W20578   3.621  15.333  13.934  0.1231  0.0593  0.5164
 4105W        W20579   5.116   8.114   5.498  0.0959 -0.0135 -0.2144
 4106W        W20580   8.855  13.560   2.900  0.2045  0.2164 -0.0855
 4107W        W20581   3.309  16.398  16.246  0.0486 -0.2135  0.1944
 4108W        W20582   2.736   1.449   2.060  0.2102  0.0776 -0.1846
 4109W        W20583   7.502   3.652   0.541 -0.1865  0.0120 -0.1162
 4110W        W20584   3.793  16.233  14.591 -0.0631  0.1503 -0.1030
 4111W        W20585   6.053   7.653   4.107 -0.1608  0.1927 -0.0365
 4112W        W20586   0.174   9.240   3.080  0.0882 -0.1342 -0.2798
 4113W        W20587   3.967  14.196  11.226 -0.0338  0.0379 -0.1809
 4114W        W20588   7.637  13.440  15.421  0.0860 -0.0596  0.3979
 4115W        W20589   1.530   7.551   3.716  0.0373 -0.0474 -0.0070
 4116W        W20590   6.250   4.897   3.288  0.0781 -0.0146 -0.3278
 4117W        W20591  10.629   9.291   4.818  0.0717  0.1332  0.1271
 4118W        W20592  17.244  17.255   4.485 -0.1340 -0.1807  0.2046
 4119W        W20593   3.970  15.241  14.362 -0.1375 -0.2167  0.4375
 4120W        W20594   9.210  10.334  16.008 -0.0726 -0.0375 -0.5415
 4121W        W20595  16.173   5.127   4.833 -0.3030  0.0423  0.4393
 4122W        W20596  13.679   1.402   0.725 -0.0571  0.0080  0.1187
 4123W        W20597   3.908  15.980   4.187 -0.1785 -0.0811  0.0713
 4124W        W20598   6.591  10.189   2.896  0.0066  0.1446 -0.1278
 4125W        W20599  11.107  16.267  11.097  0.2614  0.2187  0.0865
 4126W        W20600   5.461   1.427   1.081 -0.1154 -0.4229 -0.3958
 4127W        W20601  11.760  10.108   3.836  0.0080  0.1142  0.1237
 4128W        W20602   5.526   0.387  14.633 -0.2214  0.3143 -0.0263
 4129W        W20603  16.947  16.997   1.094  0.0781  0.1728 -0.1788
 4130W        W20604  14.350  14.568  16.091  0.0006 -0.2538 -0.1135
 4131W        W20605  13.879   9.581  13.170  0.0934 -0.0405  0.3996
 4132W        W20606   1.794  13.776   3.072 -0.1045  0.1263 -0.3012
 4133W        W20607  13.909   5.522  14.873  0.0260  0.2139  0.1246
 4134W        W20608   5.992   9.804  12.958  0.1896 -0.1473  0.0249
 4135W        W20609   4.523  17.274  14.992  0.1783 -0.0209 -0.1122
 4136W        W20610  10.062  15.075  14.566  0.3921 -0.1450  0.2498
 4137W        W20611   9.330   9.128   4.096  0.0842 -0.0163  0.0870
 4138W        W20612  12.624   2.712  14.437  0.2832  0.0313 -0.2475
 4139W        W20613  13.011   4.108   0.602  0.1490 -0.3254  0.2150
 4140W        W20614   8.387  16.658  13.363 -0.1340 -0.1937  0.0200
 4141W        W20615   9.401   1.749   0.202 -0.0849 -0.1500  0.1445
 4142W        W20616   7.929  14.535  11.716  0.1276 -0.2592 -0.1874
 4143W        W20617   2.982   5.295  14.199 -0.0792  0.1879  0.2703
 4144W        W20618  14.413   6.044  11.462  0.0569  0.2700  0.0252
 4145W        W20619   5.402   6.277  14.232  0.0787  0.0694 -0.0245
 4146W        W20620   9.434  12.484  11.857  0.1339  0.1232 -0.1957
 4147W        W20621  10.271   7.668  15.050  0.2564  0.1115  0.3936
 4148W        W20622   3.032   4.783  14.127 -0.1747 -0.3343  0.0909
 4149W        W20623  15.789   1.557  13.817  0.1911 -0.1672  0.1974
 4150W        W20624  17.924   3.561   0.693  0.1955  0.1375 -0.3407
 4151W        W20625   7.108   5.452  11.561  0.4542  0.3839  0.1263
 4152W        W20626  14.972  16.721   4.962 -0.0308 -0.0407 -0.2292
 4153W        W20627   5.792   5.553  13.897 -0.0093  0.0054  0.0121
 4154W        W20628  14.199   8.764   0.038  0.3004 -0.0578  0.2422
 4155W        W20629  12.278  11.023   3.786  0.3902  0.3024  0.1092
 4156W        W20630  12.495   2.164   3.023  0.1085 -0.1065 -0.2415
 4157W        W20631   0.257   3.723   1.367  0.1569 -0.0588  0.1444
 4158W        W20632  11.466  17.462  13.329  0.0296 -0.0610  0.0472
 4159W        W20633   4.499   2.616   5.118  0.1825  0.0300 -0.0963
 4160W        W20634   1.018   2.230   3.913 -0.0591  0.1410  0.0131
 4161W        W20635  11.696  12.911  11.922 -0.2383 -0.0206 -0.2848
 4162W        W20636   1.707   7.788   1.103  0.0716 -0.4169  0.1589
 4163W        W20637  13.449  11.377  13.673  0.4687 -0.1874 -0.0546
 4164W        W20638   7.352  10.831  13.535 -0.0865 -0.0917 -0.3693
 4165W        W20639   9.132  15.316   1.006 -0.0930  0.0610  0.0902
 4166W        W20640   5.776   6.554  12.321  0.1703 -0.3757 -0.0032
 4167W        W20641   6.121   7.905  13.611 -0.1322  0.1262 -0.1473
 4168W        W20642   1.110  12.056   5.133  0.1401  0.2514 -0.1626
 4169W        W20643  17.036   2.494   0.001  0.3439 -0.0209  0.2124
 4170W        W20644   7.073  11.456   5.913  0.0929  0.0815  0.1364
 4171W        W20645   7.353   1.009   2.306 -0.1254  0.0995  0.0042
 4172W        W20646  17.560   5.161   3.948 -0.0773 -0.2685  0.1784
 4173W        W20647  15.061   1.225  15.694  0.0996 -0.0188  0.1693
 4174W        W20648  16.379   2.799  13.753  0.0609 -0.1696 -0.5012
 4175W        W20649  13.211  14.713   2.055  0.1577  0.1535  0.1544
 4176W        W20650  18.093   5.477   1.661 -0.1156  0.0583  0.0767
 4177W        W20651   4.113  14.045  11.658 -0.2861 -0.2843 -0.4295
 4178W        W20652   2.510  16.401   3.923  0.0015  0.1044 -0.2630
 4179W        W20653   0.674  17.651   3.887 -0.2336  0.1626 -0.1677
 4180W        W20654   8.548   5.670   0.562  0.0876 -0.1469 -0.0453
 4181W        W20655  14.596   9.620   5.103  0.2009 -0.0152 -0.0068
 4182W        W20656  11.953  16.005  11.651 -0.3227  0.2450  0.0898
 4183W        W20657   8.272  14.539  13.772  0.1053  0.2078 -0.3818
 4184W        W20658  15.029  14.885  10.624  0.0990  0.2066 -0.1385
 4185W        W20659   0.624   7.139  11.512  0.0989 -0.0460  0.2508
 4186W        W20660  15.682   3.480  13.636 -0.5206 -0.0212  0.2003
 4187W        W20661  15.055   8.356   3.365 -0.1113 -0.2073  0.0507
 4188W        W20662  13.624   5.465   3.346 -0.0119 -0.2314 -0.2046
 4189W        W20663   9.390  10.467   0.058  0.3472 -0.1322  0.2849
 4190W        W20664  16.987   3.207  11.031  0.1331  0.1255 -0.0833
 4191W        W20665   7.716   8.803   3.340  0.0421 -0.2760 -0.3959
 4192W        W20666   2.532   0.567   6.017 -0.0564 -0.1546 -0.0164
 4193W        W20667  15.680   2.936   4.830 -0.0614  0.0143 -0.2210
 4194W        W20668   7.440  11.583   4.787 -0.1009 -0.2657  0.0728
 4195W        W20669   7.851   4.402  11.770  0.2820  0.0953  0.2233
 4196W        W20670  17.871   6.415  15.633 -0.3587  0.0163  0.3784
 4197W        W20671  10.196  17.283   0.689 -0.2675  0.0226 -0.1113
 4198W        W20672   0.231  12.699   4.472 -0.0131  0.2255 -0.0964
 4199W        W20673   6.972   4.787  12.908 -0.1010  0.0810  0.0448
 4200W        W20674   7.333   2.201   5.235  0.1326 -0.3790  0.0403
 4201W        W20675   5.583  17.049  14.090 -0.1079  0.1662 -0.1945
 4202W        W20676  18.118   2.852  14.818 -0.0076 -0.0864 -0.1748
 4203W        W20677  18.144  15.583   1.241  0.0075 -0.0177  0.0438
 4204W        W20678  16.217  17.353   1.224  0.2412  0.4385  0.2222
 4205W        W20679  12.036  15.758   5.102  0.0943  0.3162 -0.2298
 4206W        W20680   0.476  15.014   2.462  0.0144  0.1395  0.4832
 4207W        W20681  13.636  10.098  14.007 -0.1067 -0.0019 -0.1801
 4208W        W20682  10.499  16.882  11.517  0.1450 -0.1330 -0.1751
 4209W        W20683   2.574  13.796  14.561 -0.2502  0.0596 -0.0896
 4210W        W20684   1.621  12.294  12.258  0.1471 -0.2406 -0.1915
 4211W        W20685  15.381  17.182  13.448 -0.2073 -0.1629  0.2435
 4212W        W20686  12.805   8.936   4.811 -0.0533 -0.0046 -0.1676
 4213W        W20687  16.589  14.790   2.877 -0.2413  0.0462 -0.0933
 4214W        W20688   4.473   0.686   0.957  0.2127  0.1861 -0.1385
 4215W        W20689  11.296  17.223   1.705 -0.0408  0.0728  0.1367
 4216W        W20690  14.460   8.376   1.625 -0.1681  0.1628 -0.0918
 4217W        W20691   3.112   9.421   1.301  0.1085 -0.1635  0.2272
 4218W        W20692   3.439  16.360   1.898  0.0530  0.1292  0.1913
 4219W        W20693   8.285   9.030   1.472  0.0152  0.1658  0.3257
 4220W        W20694   3.818   4.420   3.731 -0.3534  0.2834  0.2121
 4221W        W20695  16.611   8.400   4.954 -0.1859  0.2038 -0.2156
 4222W        W20696   0.253   8.855  11.589 -0.1467  0.0911  0.3161
 4223W        W20697  17.330   1.450  13.242 -0.1613 -0.0074 -0.1388
 4224W        W20698   1.685  15.538  12.640  0.2017 -0.1241  0.0330
 4225W        W20699   7.363  17.239  13.227  0.0515 -0.3214 -0.1356
 4226W        W20700   0.567   4.388  14.827  0.0843  0.0657 -0.1410
 4227W        W20701   1.127   3.338   2.418 -0.0314  0.0242  0.2359
 4228W        W20702   5.066   0.690   4.915  0.1850 -0.1390  0.0327
 4229W        W20703  11.377  13.902  11.308  0.0715  0.1001  0.0090
 4230W        W20704   5.553   8.407   5.411 -0.0656 -0.0060 -0.0721
 4231W        W20705   8.748   9.000   4.773 -0.0291 -0.3848  0.1062
 4232W        W20706   7.924  12.440   5.131  0.2490  0.0025  0.1411
 4233W        W20707   3.074   1.254   1.708 -0.3427  0.0803  0.1845
 4234W        W20708   0.345  14.959   3.428  0.1049  0.0958 -0.1976
 4235W        W20709   5.877  11.031   3.329 -0.0529  0.1652 -0.2789
 4236W        W20710  14.801  12.792   4.552 -0.1677  0.1458 -0.1218
 4237W        W20711   8.566   9.273   1.131  0.1693  0.1281  0.3038
 4238W        W20712   5.143   2.968   4.224 -0.2524  0.1891  0.0144
 4239W        W20713   6.232  13.238   0.835 -0.0650 -0.0995 -0.1342
 4240W        W20714  11.763   9.251  12.520  0.1366 -0.4947 -0.0446
 4241W        W20715  14.467   2.657   3.653  0.2294  0.3885  0.0047
 4242W        W20716  17.132   2.555   0.538  0.0396  0.0326 -0.2265
 4243W        W20717  11.886   4.167  15.479  0.2803 -0.0479  0.0319
 4244W        W20718  14.081   4.157  13.344 -0.0088 -0.1452  0.0837
 4245W        W20719  17.179  14.943   3.664  0.2442  0.0293  0.0155
 4246W        W20720   1.438  13.903   1.139 -0.2068 -0.3089 -0.0651
 4247W        W20721   4.632   9.272  15.821  0.1235  0.2805 -0.2776
 4248W        W20722  12.707   6.832  12.757 -0.1686 -0.1533  0.0731
 4249W        W20723  15.262   3.526   3.841 -0.0711  0.0244 -0.1366
 4250W        W20724   1.651   5.336   3.275 -0.0266  0.0717 -0.0090
 4251W        W20725  16.024   5.472  12.570 -0.1511  0.0694 -0.2760
 4252W        W20726   9.701  11.992   2.492  0.2648  0.1164  0.0948
 4253W        W20727  15.741   9.493   2.456  0.0506  0.0712 -0.5725
 4254W        W20728  11.094   2.130   3.309 -0.3487  0.0516  0.0799
 4255W        W20729   4.409  10.698  12.006 -0.1824 -0.0575  0.0682
 4256W        W20730   0.759  10.739   5.382  0.0216 -0.0008  0.1745
 4257W        W20731  11.659  15.663  16.140 -0.0947 -0.1493  0.0245
 4258W        W20732   8.876  14.182   3.506  0.2645 -0.2088 -0.0930
 4259W        W20733   7.722   5.864  11.100 -0.2208  0.1897 -0.0313
 4260W        W20734  16.514  10.342  13.774  0.0340  0.1572  0.0796
 4261W        W20735  16.537   9.062  14.566  0.2497  0.0924 -0.3804
 4262W        W20736  10.154  14.858   3.704 -0.1053  0.4020 -0.1574
 4263W        W20737  17.162  16.444   1.523 -0.0699  0.1949 -0.1267
 4264W        W20738  16.696  17.604  15.515 -0.1895 -0.0124 -0.0166
 4265W        W20739  13.155   6.876  13.029 -0.0498 -0.0033 -0.3215
 4266W        W20740  10.317  15.229  12.510 -0.1769  0.2192 -0.0286
 4267W        W20741  15.786  10.092   1.671  0.2979 -0.1934  0.0205
 4268W        W20742   5.440  12.806   5.039 -0.0115  0.0163 -0.2104
 4269W        W20743  16.964  14.875  10.467 -0.2878 -0.1603  0.0338
 4270W        W20744   2.234   5.322   1.450  0.1344  0.0605  0.0087
 4271W        W20745  10.072   4.943   0.092  0.1196 -0.2157 -0.3562
 4272W        W20746   1.066   8.216   1.549  0.0110 -0.0718  0.1291
 4273W        W20747   4.664   2.227   4.027 -0.0317  0.1361  0.1461
 4274W        W20748   4.090   2.477   0.584  0.2184 -0.1942 -0.1690
 4275W        W20749   3.285   3.555  13.541  0.2571  0.0367  0.1709
 4276W        W20750  16.658   0.503  11.602 -0.0030 -0.1532  0.1642
 4277W        W20751  15.375   9.630   1.049 -0.0281 -0.1517  0.1812
 4278W        W20752   0.216   2.336  15.984  0.0248  0.0195  0.1905
 4279W        W20753   9.782  18.115  12.025  0.0853 -0.1831 -0.0044
 4280W        W20754  10.515  14.431   4.661  0.0513 -0.1705  0.0596
 4281W        W20755  18.168  12.670  12.782  0.3396 -0.1551  0.0365
 4282W        W20756  10.393   4.677  14.665  0.0198 -0.0453  0.3732
 4283W        W20757   3.799  17.541  15.884 -0.1518 -0.2289  0.0433
 4284W        W20758   1.466  16.615   1.363  0.1102  0.3523  0.0668
 4285W        W20759  13.932   9.434  14.709 -0.3738 -0.0526  0.0509
 4286W        W20760   7.691   2.012  12.963 -0.1640 -0.0300  0.4743
 4287W        W20761   3.053   1.796  13.479  0.1554 -0.2624  0.3784
 4288W        W20762  15.811  16.099   0.223 -0.1415 -0.2172  0.1221
 4289W        W20763  13.876   4.381   2.846  0.0598  0.0813 -0.2864
 4290W        W20764  16.838   1.848   3.041 -0.2003 -0.0157  0.1474
 4291W        W20765   9.207   3.449   3.229  0.2043 -0.3288  0.3249
 4292W        W20766   4.450   9.640  15.494 -0.1206  0.0204  0.1879
 4293W        W20767  11.550   6.481   3.164 -0.0009  0.0290 -0.4078
 4294W        W20768   1.239   0.827   2.708 -0.0988 -0.1113  0.1001
 4295W        W20769   2.876   6.633   1.000 -0.0444  0.1829  0.5506
 4296W        W20770  14.354   2.717   4.208 -0.0526  0.2167 -0.1851
 4297W        W20771   5.971   2.466   2.611  0.0738 -0.0169  0.0247
 4298W        W20772   7.142  11.460   2.496 -0.3111 -0.1112 -0.0165
 4299W        W20773  14.405  13.671  12.592  0.2196  0.0500  0.0753
 4300W        W20774  17.486  13.320   0.176 -0.0170 -0.1631  0.2729
 4301W        W20775  12.393   5.830  11.908 -0.0529  0.5025 -0.3423
 4302W        W20776   6.466  16.608  12.869  0.2636 -0.0026 -0.3423
 4303W        W20777   1.652  10.978  13.613  0.1116 -0.0492  0.4400
 4304W        W20778   9.289   0.030   2.686  0.1151  0.0046 -0.0727
 4305W        W20779  16.116   5.010  15.000 -0.1343  0.1178  0.5093
 4306W        W20780   5.486   3.356   1.420  0.1559  0.0804  0.2002
 4307W        W20781   9.343   9.241  15.227 -0.1325 -0.2195 -0.1163
 4308W        W20782  16.504  14.965   1.023 -0.1130  0.2041  0.1200
 4309W        W20783  17.364  10.613   5.051  0.1680  0.0211 -0.1956
 4310W        W20784  13.633   7.572  15.797  0.0400 -0.1619  0.0774
 4311W        W20785   0.660  12.756  13.358 -0.1705 -0.0534 -0.3393
 4312W        W20786   9.647  10.139   4.956 -0.0457  0.0184 -0.1819
 4313W        W20787   7.418  10.505   1.662 -0.0595  0.2669 -0.1464
 4314W        W20788   3.790   9.751   2.554 -0.1038 -0.0048  0.2064
 4315W        W20789  13.085  11.471   3.271  0.1995  0.0127 -0.3901
 4316W        W20790  11.628  17.956  14.616  0.0047  0.0710 -0.0345
 4317W        W20791   8.598   0.910   5.089 -0.2085  0.1517  0.0624
 4318W        W20792   5.306   6.927   3.802  0.1384  0.1736  0.3955
 4319W        W20793   2.102   3.485   4.413  0.0986 -0.1059  0.1611
 4320W        W20794   9.353  15.149  13.808  0.0669 -0.4004 -0.1921
 4321W        W20795  12.438   6.829   3.204 -0.2436  0.0684  0.1726
 4322W        W20796   2.331  13.541   0.936 -0.0715 -0.0266 -0.3024
 4323W        W20797   9.346   5.898   3.956  0.1051 -0.4677  0.2809
 4324W        W20798   1.922   8.848  12.284  0.1223  0.2801 -0.0936
 4325W        W20799   8.044   4.713   2.528  0.0805  0.0772 -0.1546
 4326W        W20800   8.264   2.458  14.665 -0.1231 -0.0762  0.1419
 4327W        W20801   8.164  14.126  14.846 -0.1080 -0.1129 -0.2357
 4328W        W20802   2.495   2.518  13.656  0.1618  0.0210 -0.1584
 4329W        W20803   9.825  17.654   0.089 -0.0814 -0.1206 -0.1033
 4330W        W20804  10.229   0.263  11.996  0.0784 -0.2655  0.1035
 4331W        W20805   5.328  15.909  14.389  0.3559  0.2321 -0.0383
 4332W        W20806   2.575   1.301  12.605  0.1739 -0.2067 -0.0325
 4333W        W20807   3.340   4.240   4.832  0.2230 -0.0561 -0.0227
 4334W        W20808   7.329   5.189   0.452 -0.0247  0.0147  0.0249
 4335W        W20809   6.024   1.511   4.157 -0.1832 -0.1889  0.0832
 4336W        W20810  13.808  13.113   5.332  0.4069 -0.1632 -0.3091
 4337W        W20811  15.109   0.738   2.156 -0.1472  0.0914 -0.1036
 4338W        W20812   5.161   9.956  13.968 -0.0168  0.0754  0.0240
 4339W        W20813  18.115  14.610  13.942  0.4232  0.0096  0.0158
 4340W        W20814   4.006   3.462   4.869  0.0491 -0.1015 -0.2143
 4341W        W20815   3.141  13.216   6.111 -0.3601  0.1367  0.1600
 4342W        W20816   7.281   1.782  12.830 -0.1120  0.3154  0.0299
 4343W        W20817  13.997  15.856   2.177 -0.1030  0.2313  0.1389
 4344W        W20818   8.691  12.084   0.534 -0.1514 -0.0024  0.0422
 4345W        W20819   1.161  10.533  15.921  0.2118 -0.2487  0.2649
 4346W        W20820  15.696  12.694  14.957 -0.0231  0.2036  0.1086
 4347W        W20821  14.792   6.223   2.969  0.0660  0.0258  0.1084
 4348W        W20822  17.987   4.340   2.444  0.2882  0.1190  0.2577
 4349W        W20823   6.907   1.667   5.692  0.1232 -0.1308  0.0770
 4350W        W20824  12.735   9.491  11.810 -0.1682 -0.0494  0.1850
 4351W        W20825   9.182  15.223  15.709  0.0839 -0.1599  0.0516
 4352W        W20826  15.864  18.104  13.265  0.0672 -0.0626  0.0287
 4353W        W20827   9.401   7.309  14.086  0.2117  0.0353  0.0152
 4354W        W20828  10.247   7.097  16.126 -0.1589  0.1804 -0.1294
 4355W        W20829  13.352   0.537  14.662 -0.0732 -0.0471  0.3330
 4356W        W20830  15.847  17.965   0.030 -0.1397  0.2025 -0.1672
 4357W        W20831   2.855   0.988  12.320 -0.2321  0.2271 -0.1471
 4358W        W20832  12.382   8.176   0.271  0.2601 -0.0067  0.0043
 4359W        W20833  17.883  13.026   0.637  0.0499 -0.2507  0.1915
 4360W        W20834  11.997   8.031   2.226 -0.1582 -0.1546  0.2084
 4361W        W20835   8.613   2.444  11.924  0.2153 -0.0128  0.1505
 4362W        W20836   6.603   8.416  15.617 -0.1635  0.1191  0.0605
 4363W        W20837  18.117  11.842  13.036 -0.0567  0.4236  0.1711
 4364W        W20838   6.242  17.192  12.046  0.0502 -0.2445  0.5124
 4365W        W20839  10.677   0.464  12.135 -0.2078  0.6579  0.2249
 4366W        W20840   2.103  10.825  16.086 -0.0882  0.0184 -0.0134
 4367W        W20841   9.588  17.583   5.886 -0.4775  0.1149  0.0470
 4368W        W20842   0.181  12.197   3.731  0.1763  0.2495  0.0138
 4369W        W20843   9.726  12.760   3.595 -0.1006 -0.0629 -0.0303
 4370W        W20844  11.469   7.583   3.085  0.3287 -0.0576 -0.3308
 4371W        W20845   4.147  17.352  15.568  0.3070  0.0526  0.1012
 4372W        W20846   6.741   9.091  14.553 -0.1929 -0.1498  0.0625
 4373W        W20847   3.738   9.771  11.002 -0.0949  0.1459 -0.2259
 4374W        W20848   7.802   5.197  14.756 -0.2529  0.0310  0.0903
 4375W        W20849   2.075  15.525   1.566 -0.1000 -0.2284 -0.2882
 4376W        W20850  12.283   4.026  16.157  0.0571  0.2573 -0.0041
 4377W        W20851   8.662  12.101  11.259  0.1348  0.3044  0.0291
 4378W        W20852  17.516  12.833  14.461 -0.2697 -0.0951  0.1545
 4379W        W20853   2.443   2.607  11.556  0.0665 -0.0656  0.1096
 4380W        W20854  16.714   2.475  11.560 -0.2000 -0.1529 -0.0602
 4381W        W20855   4.726   9.017  11.268 -0.2236  0.1345 -0.2929
 4382W        W20856   9.887   8.154  14.117  0.0559 -0.1121  0.0230
 4383W        W20857  14.023   6.572   2.762 -0.1210 -0.0106  0.4391
 4384W        W20858  14.852   6.492   0.131 -0.0401  0.0131  0.0160
 4385W        W20859   5.310   9.478  16.322  0.1023  0.1596 -0.1786
 4386W        W20860  13.538  17.661  13.040 -0.1395 -0.1284 -0.0766
 4387W        W20861  17.347   1.040   2.002  0.2188 -0.0749  0.1236
 4388W        W20862  12.684  10.798   5.675  0.0004  0.2140 -0.0561
 4389W        W20863  15.850   3.421   0.458 -0.2614 -0.1608 -0.2808
 4390W        W20864  16.903  15.724  15.717 -0.0010 -0.0552  0.1514
 4391W        W20865   3.268  14.602   1.909 -0.1845 -0.1082  0.0932
 4392W        W20866  13.639   6.507   0.098  0.3035  0.0406 -0.0971
 4393W        W20867  16.611   6.670  11.570  0.1571 -0.1277  0.4763
 4394W        W20868   9.709   5.900  12.663 -0.0019 -0.1048 -0.2202
 4395W        W20869   1.347  15.555   0.265  0.1780  0.3716 -0.0981
 4396W        W20870  15.472  15.374   4.672  0.0021 -0.0458  0.1134
 4397W        W20871   5.459  17.272  11.852  0.1099 -0.2797 -0.0056
 4398W        W20872  13.903  10.626   0.590 -0.0111  0.1938 -0.1579
 4399W        W20873   3.324  13.891   5.346 -0.0690 -0.0359  0.0885
 4400W        W20874  10.775   4.972   5.220  0.1657  0.3439 -0.0843
 4401W        W20875   4.488   0.334  16.067 -0.0599  0.0167  0.1543
 4402W        W20876  15.855   2.223   0.632  0.2401 -0.0699 -0.3237
 4403W        W20877   1.053  16.573  13.699 -0.3672  0.1860  0.0813
 4404W        W20878  14.714   7.053   2.054  0.2406 -0.0261  0.1203
 4405W        W20879   6.888  10.286   3.797 -0.0743  0.1336  0.0534
 4406W        W20880   4.650   5.108   5.323  0.0939 -0.0748 -0.0385
 4407W        W20881  17.764   8.258  16.168  0.0862  0.0970  0.2517
 4408W        W20882   3.656  13.955   5.017 -0.4147 -0.2615 -0.2001
 4409W        W20883   4.662   0.879  14.853  0.0917 -0.0901 -0.0103
 4410W        W20884   9.476  14.035   3.306 -0.1235 -0.1530  0.3815
 4411W        W20885  16.553  11.923  14.540 -0.2354  0.0907 -0.1688
 4412W        W20886  15.278   8.458  13.636 -0.0950  0.1990  0.1888
 4413W        W20887   9.877   7.622   3.703  0.1264 -0.0154  0.0891
 4414W        W20888  12.855   5.556  10.990  0.0478 -0.0105  0.0906
 4415W        W20889   2.146   1.439   1.802 -0.1709 -0.0809 -0.3206
 4416W        W20890  11.588   5.657   2.948 -0.2478  0.2908 -0.0565
 4417W        W20891  15.743   3.533  15.855 -0.0246  0.2651 -0.1216
 4418W        W20892   8.083  10.114  14.662  0.2227  0.1444  0.2830
 4419W        W20893  15.007   9.071   0.402  0.1202  0.0914  0.3092
 4420W        W20894   5.142  11.430  15.157  0.3929  0.1603  0.1724
 4421W        W20895  10.070  11.801  14.412 -0.0339  0.3200  0.0825
 4422W        W20896  12.615   3.523   5.003 -0.1085 -0.3160  0.3327
 4423W        W20897  13.130  16.658   0.887  0.2377 -0.3941  0.3403
 4424W        W20898   3.012  17.716   1.914  0.0585  0.0897 -0.1864
 4425W        W20899  11.494  12.777   1.562 -0.0851  0.0427 -0.0964
 4426W        W20900   7.065   8.718  13.747 -0.0505 -0.3560  0.1857
 4427W        W20901  16.402   8.097   1.488 -0.0080  0.0618  0.0321
 4428W        W20902  13.352  17.289  11.180  0.0849  0.0841 -0.0894
 4429W        W20903   0.897   4.097   0.574  0.5283 -0.0910  0.0676
 4430W        W20904  17.416   2.082   2.019  0.1220  0.0433 -0.0546
 4431W        W20905  11.058   6.279   5.395 -0.4167  0.2156  0.0051
 4432W        W20906  11.124  16.869  11.274  0.0249 -0.3741 -0.1020
 4433W        W20907  14.583  10.653  12.525  0.3685 -0.2889  0.1627
 4434W        W20908   5.723   4.704  15.033  0.1328  0.1768 -0.2679
 4435W        W20909  12.930   2.591   1.837 -0.1787  0.0553 -0.2480
 4436W        W20910  15.143   7.098  11.420  0.1702  0.0985 -0.0214
 4437W        W20911   4.189   4.971  12.529 -0.0091  0.2639 -0.1812
 4438W        W20912   1.822  15.150   1.305  0.2742 -0.3762 -0.5894
 4439W        W20913  16.187   0.842  13.200 -0.0595  0.2510  0.0833
 4440W        W20914   3.109   6.544   0.547 -0.2451 -0.0960  0.1938
 4441W        W20915  13.786  17.088   0.749  0.0586 -0.0948  0.1736
 4442W        W20916  12.823   5.213  14.304 -0.0177  0.4956  0.2609
 4443W        W20917  17.312   0.816   5.191  0.2028 -0.3274  0.0674
 4444W        W20918   6.286  11.862  11.246  0.2805 -0.0253  0.3083
 4445W        W20919   5.620   1.218  13.748 -0.0366  0.1755 -0.1143
 4446W        W20920   4.710  18.104   4.443  0.2059 -0.0571 -0.2068
 4447W        W20921   5.913   9.295  15.082  0.1795  0.1428 -0.2322
 4448W        W20922   8.081   1.348  14.679  0.1189  0.0489 -0.1522
 4449W        W20923   1.012   7.255   1.571 -0.1421  0.1910 -0.1362
 4450W        W20924  17.456  11.922   2.680  0.0851 -0.1885  0.1864
 4451W        W20925  10.986   6.270   2.816  0.1580 -0.0250 -0.0461
 4452W        W20926  16.038   6.401   1.736  0.1846 -0.1223  0.1777
 4453W        W20927  11.495   3.440  13.887  0.1906 -0.1929  0.0060
 4454W        W20928   9.616   0.429  16.248 -0.0190 -0.1696  0.0194
 4455W        W20929   4.806  10.223   1.969  0.0240 -0.0088 -0.2369
 4456W        W20930   8.789   5.078   2.990  0.1745 -0.2086 -0.0612
 4457W        W20931  12.022   4.227   0.769  0.1702 -0.0274 -0.0331
 4458W        W20932   3.733   7.618  15.004  0.2794  0.0838 -0.2316
 4459W        W20933   0.718   7.626  11.264  0.2971 -0.0496 -0.2323
 4460W        W20934  10.766  10.215   4.032 -0.1830  0.0909 -0.1921
 4461W        W20935   1.210   8.131   2.767 -0.1461  0.3613  0.0648
 4462W        W20936   2.607   5.602   2.687 -0.0888  0.0258  0.1788
 4463W        W20937  15.488  12.718  13.297  0.0077 -0.3883  0.1282
 4464W        W20938   9.435   8.882  11.943 -0.0268  0.0624 -0.1566
 4465W        W20939  16.682  14.153   4.209  0.2293  0.0947 -0.2995
 4466W        W20940  10.273  16.291  15.108 -0.1119 -0.0648  0.0385
 4467W        W20941   1.941  17.722  12.715  0.0358 -0.0014  0.0303
 4468W        W20942   2.089   7.865  12.578  0.1431 -0.1777  0.1779
 4469W        W20943  16.795   9.339   5.102 -0.0270  0.0066 -0.4304
 4470W        W20944  14.493  17.158  12.466  0.0631  0.0027  0.4580
 4471W        W20945   3.919  16.802  13.930  0.0748  0.2953  0.1936
 4472W        W20946  17.262  14.488  11.282  0.0339 -0.2324 -0.0116
 4473W        W20947   4.206  14.142  13.584 -0.1074 -0.2536 -0.0126
 4474W        W20948  10.218  10.338   4.230 -0.0065  0.0623  0.0326
 4475W        W20949   2.136  18.119  15.455  0.2131  0.2084  0.0607
 4476W        W20950   6.849   5.074   4.973 -0.3987  0.0379  0.1700
 4477W        W20951  10.259   0.784  14.262  0.0415 -0.2972 -0.2809
 4478W        W20952  17.207   0.350   4.936 -0.0762 -0.0164  0.0876
 4479W        W20953   3.675   4.956  14.714  0.0182 -0.1334  0.0450
 4480W        W20954  12.754  11.624   5.238 -0.1115 -0.1111 -0.0508
 4481W        W20955   7.354   6.911   3.964  0.1406 -0.1773 -0.3443
 4482W        W20956   9.603  17.785  15.207  0.0224 -0.0851  0.1001
 4483W        W20957   4.161  15.252  15.797  0.1717  0.1937 -0.2316
 4484W        W20958   8.062   5.663   3.910 -0.0487  0.0044  0.2472
 4485W        W20959  18.110   9.273   1.622  0.1108 -0.4064  0.1353
 4486W        W20960   1.294  13.021  15.517 -0.1092 -0.2237 -0.4520
 4487W        W20961   6.977  17.691   2.125  0.0289 -0.0862  0.2683
 4488W        W20962  16.437   7.201  16.006 -0.0990  0.1164  0.1368
 4489W        W20963   3.336  12.537   4.016  0.1331 -0.0237  0.1876
 4490W        W20964   8.931   2.920  11.163  0.0606  0.0097 -0.2306
 4491W        W20965   1.671   8.873   2.870 -0.2121  0.1141 -0.2222
 4492W        W20966   4.766   8.859   2.235 -0.0689 -0.0119 -0.1173
 4493W        W20967   6.587  16.902   5.049  0.0496 -0.0850  0.0065
 4494W        W20968   0.888   8.375  14.430  0.0791 -0.0146 -0.0873
 4495W        W20969   5.353  14.915  13.727  0.3541  0.0142  0.0367
 4496W        W20970  15.580  17.954   1.936  0.0121 -0.1395 -0.2407
 4497W        W20971   0.741   2.704   0.459  0.2899 -0.2350  0.0140
 4498W        W20972  12.162   5.473   1.936 -0.1737 -0.0223  0.2578
 4499W        W20973  16.004  10.508   2.485 -0.1664 -0.0223  0.1698
 4500W        W20974  17.476   4.621   5.537  0.0414 -0.2369 -0.0553
 4501W        W20975  17.840   2.046   0.483 -0.2483  0.2422 -0.2729
 4502W        W20976   7.147   1.327  13.104 -0.0017  0.0544  0.0587
 4503W        W20977   8.373   8.573   1.698  0.0141  0.0947  0.2763
 4504W        W20978  13.967   3.634   2.613  0.0574  0.0950  0.1171
 4505W        W20979   1.141  18.125   0.155 -0.1490  0.0538 -0.1933
 4506W        W20980   2.672   1.500   3.305  0.1810  0.3388  0.1121
 4507W        W20981  10.396   1.864  12.666  0.0256 -0.3235  0.2341
 4508W        W20982  12.134  10.460   3.046 -0.1918  0.1039  0.1206
 4509W        W20983   6.117   9.805   1.914  0.0785 -0.2121  0.0698
 4510W        W20984   9.017   7.741  15.722 -0.1437 -0.1148  0.4117
 4511W        W20985  12.805  15.022  10.505  0.0613  0.2866  0.0409
 4512W        W20986   0.403   4.487  13.763  0.1101  0.2004  0.1115
 4513W        W20987   4.947  13.329  16.090  0.1108  0.0735  0.0150
 4514W        W20988  14.844   8.749  13.635  0.0542  0.0620  0.2355
 4515W        W20989   5.522  17.915   2.543  0.4863 -0.0165  0.0160
 4516W        W20990   9.481  16.378   4.345 -0.2092  0.0210  0.0433
 4517W        W20991  14.271   8.638   2.821 -0.0266  0.0874 -0.0458
 4518W        W20992   1.956   4.727  15.774  0.0291  0.0908 -0.1317
 4519W        W20993   6.971  16.769   3.716 -0.0555 -0.0148  0.1271
 4520W        W20994  14.832   4.156   3.822  0.2633 -0.3753 -0.1057
 4521W        W20995  16.584  14.908  13.291  0.1135  0.0027  0.1642
 4522W        W20996  17.752  14.434   0.352  0.0597 -0.3364 -0.1422
 4523W        W20997   8.278  14.756   1.834  0.0672  0.0520 -0.0930
 4524W        W20998   9.310  17.511   0.080 -0.2694 -0.2463 -0.2727
 4525W        W20999  15.177  17.555  13.088  0.2835  0.2020 -0.0166
 4526W        W21000  17.551  16.818   0.099 -0.1698  0.0420 -0.0508
 4527W        W21001   0.726  13.771  11.317 -0.2170  0.0595  0.0586
 4528W        W21002  18.033   3.085  12.834 -0.0872 -0.0411 -0.3437
 4529W        W21003  14.368  11.068   2.793 -0.0459  0.2840 -0.0156
 4530W        W21004  10.272   6.414  14.880  0.1200 -0.0092 -0.0394
 4531W        W21005  15.718  13.236  14.192  0.0719 -0.2242 -0.2746
 4532W        W21006   4.379   9.121   0.883 -0.0817  0.2029  0.0644
 4533W        W21007  12.618   7.597  13.914 -0.1053 -0.1124  0.3434
 4534W        W21008  12.873  14.483   3.661 -0.2812  0.0389 -0.0994
 4535W        W21009  13.593  12.059   3.552  0.0348 -0.1009  0.2777
 4536W        W21010   8.626  12.415   3.343  0.0798 -0.2301 -0.2410
 4537W        W21011  17.671  13.712   5.131 -0.1016 -0.0113 -0.0924
 4538W        W21012   8.896  11.353   1.904 -0.0533  0.0916  0.0580
 4539W        W21013   7.695   8.395  14.822  0.2249 -0.0886 -0.1318
 4540W        W21014   5.238  16.294   3.126 -0.2005 -0.1654  0.0024
 4541W        W21015  13.270   6.983  11.879 -0.2070 -0.1355 -0.1245
 4542W        W21016  14.368   3.115  11.832 -0.0856 -0.2893 -0.4112
 4543W        W21017  11.256  10.600  12.818  0.1780 -0.2270 -0.0739
 4544W        W21018   8.027   6.665   1.734 -0.0677 -0.0472  0.0417
 4545W        W21019   1.010  13.532  14.117  0.1930  0.1547 -0.1235
 4546W        W21020   8.108  15.730  15.469  0.2629  0.2934  0.2209
 4547W        W21021  12.724  12.252   0.462 -0.2096 -0.1980  0.1134
 4548W        W21022   4.508  10.330  12.396  0.3744 -0.0021 -0.3127
 4549W        W21023   2.287   8.358  10.227  0.0016 -0.0107 -0.0851
 4550W        W21024   4.910  16.019  11.229 -0.1284  0.1720 -0.2251
 4551W        W21025   6.446  14.549  13.966  0.2063 -0.0352  0.2007
 4552W        W21026   2.336  18.165   4.100  0.3920  0.0033 -0.1162
 4553W        W21027   4.088   0.844   1.392 -0.1813 -0.0983  0.1313
 4554W        W21028  16.091   9.549   0.037 -0.0364  0.1830  0.2348
 4555W        W21029  16.998  10.127   0.110 -0.0806  0.0937 -0.0343
 4556W        W21030  11.609   6.007   1.536 -0.0980  0.1288  0.1134
 4557W        W21031   3.235  11.108   5.608 -0.2951 -0.0708 -0.2510
 4558W        W21032   8.461   8.243  13.799 -0.1443 -0.1917  0.0491
 4559W        W21033  10.760  13.227   4.596  0.0998 -0.0108  0.0985
 4560W        W21034   9.735  15.782  12.285  0.0840 -0.1122 -0.1554
 4561W        W21035  16.805   3.299  14.250 -0.0240 -0.0637  0.1781
 4562W        W21036  11.805   9.350  11.645  0.1814 -0.0693  0.1033
 4563W        W21037   0.964  17.252   5.331 -0.1352 -0.0325 -0.4374
 4564W        W21038   9.838   3.406  16.124  0.0619  0.1320 -0.4193
 4565W        W21039   7.796   7.034   4.265 -0.1288  0.0221 -0.0634
 4566W        W21040  10.871  10.413  14.937  0.0360 -0.1522 -0.1505
 4567W        W21041   9.513   9.302   2.775 -0.0774  0.1580 -0.0376
 4568W        W21042   9.889  14.624  10.270 -0.1552  0.2770  0.0212
 4569W        W21043  15.007   7.378  16.024  0.3470  0.2243 -0.0202
 4570W        W21044  17.174   1.271   5.067 -0.2242  0.1223 -0.0432
 4571W        W21045  14.124  12.771   2.875  0.2842  0.2037  0.2455
 4572W        W21046   6.380   8.006  12.702  0.2136  0.2056 -0.0974
 4573W        W21047  10.491   5.448   4.973 -0.0157  0.1124 -0.0004
 4574W        W21048  10.175  14.481   5.032  0.0813  0.1628  0.0337
 4575W        W21049   9.014   3.679   4.901 -0.2912 -0.0866  0.0126
 4576W        W21050  12.033  11.825   0.008  0.2128  0.0863 -0.0419
 4577W        W21051  17.425   5.326  11.078  0.1714  0.1474  0.0784
 4578W        W21052  13.028   1.951   1.006 -0.2506 -0.1950 -0.3856
 4579W        W21053   9.903  13.206   3.345  0.0605  0.3108  0.0047
 4580W        W21054  13.541   3.741  12.809 -0.3092 -0.2960 -0.1588
 4581W        W21055  15.470  14.490   1.523  0.3228  0.2028  0.0587
 4582W        W21056  15.684  17.895   6.200 -0.1956 -0.3449 -0.0797
 4583W        W21057  11.597   8.580   4.948 -0.1943  0.0839  0.2370
 4584W        W21058   5.927   5.873   0.722  0.0825  0.0094  0.3264
 4585W        W21059   0.398  14.727   3.010  0.1601 -0.2240  0.1123
 4586W        W21060   0.112   0.867   5.884 -0.1838  0.0067  0.2357
 4587W        W21061   3.051  13.030  14.135  0.1589  0.3192 -0.0001
 4588W        W21062   2.800  10.045   2.644  0.0306  0.1350 -0.2162
 4589W        W21063  11.527  13.320  14.135  0.1075  0.0401  0.1565
 4590W        W21064   5.953  15.965   5.733 -0.1088 -0.1142 -0.0538
 4591W        W21065   7.964  17.539   2.072 -0.0543 -0.4109 -0.0917
 4592W        W21066   4.162  15.640   3.876 -0.4117  0.1790  0.2237
 4593W        W21067  16.906   9.230   3.488 -0.2430 -0.0474  0.1977
 4594W        W21068  11.691  12.346   1.250  0.2272  0.0620 -0.0005
 4595W        W21069  13.364  15.899  11.407  0.0629  0.0595 -0.1759
 4596W        W21070   2.209   9.980  16.123 -0.1307  0.1324  0.2826
 4597W        W21071  12.089  13.690   3.616  0.3382  0.1145  0.1248
 4598W        W21072  13.059   4.014  15.518 -0.0502 -0.0916  0.6328
 4599W        W21073  14.609   4.931   3.562 -0.0545 -0.0126  0.1965
 4600W        W21074  13.722   8.252  15.363 -0.0717 -0.0680  0.2325
 4601W        W21075  15.029   5.653  15.728 -0.0886  0.1452  0.0465
 4602W        W21076  10.716  16.718  13.416 -0.1242 -0.0723 -0.3535
 4603W        W21077   3.094  11.936   1.852 -0.1631  0.2699  0.0840
 4604W        W21078   2.043  17.847  13.252  0.1173  0.2058 -0.2149
 4605W        W21079   1.830   8.206  15.778 -0.0404  0.1000  0.0257
 4606W        W21080   8.831  17.409   2.565  0.0214 -0.1363 -0.0632
 4607W        W21081  17.767  12.877   2.424 -0.1471  0.1355 -0.2842
 4608W        W21082  11.551   1.409  12.808 -0.1926 -0.0913  0.1788
 4609W        W21083  11.219   5.771   5.360  0.0685 -0.3154  0.2163
 4610W        W21084  10.191  13.337  14.626 -0.0037  0.1206  0.2557
 4611W        W21085   7.179  13.477  15.263 -0.1192  0.0366  0.1386
 4612W        W21086  17.374   4.144   3.412 -0.0785  0.0583 -0.0528
 4613W        W21087  15.925   8.512   1.498 -0.2148  0.1126  0.1997
 4614W        W21088  16.435   7.388  13.648  0.1239 -0.0588 -0.0244
 4615W        W21089  17.147  10.210   4.863  0.2614 -0.5468 -0.1943
 4616W        W21090  17.596  16.616  14.467 -0.0027 -0.0326  0.2689
 4617W        W21091   1.063  15.047   2.030  0.0427  0.0570  0.1132
 4618W        W21092   9.216   4.156  11.875 -0.0034  0.0280  0.1617
 4619W        W21093  13.769  10.467  16.124  0.1724  0.0950 -0.2291
 4620W        W21094  10.286  17.667   1.849  0.1938 -0.2630 -0.1055
 4621W        W21095  15.096  17.254  13.888  0.1053  0.0401  0.0539
 4622W        W21096  15.551  10.582  15.065 -0.0286 -0.2151  0.1141
 4623W        W21097  14.053   2.584   0.520 -0.5777  0.0561 -0.2146
 4624W        W21098  17.423   8.125   2.990  0.0931  0.2643  0.1345
 4625W        W21099  18.057   2.715  15.316  0.0874  0.4502  0.1229
 4626W        W21100  18.139  18.175  13.089  0.0343 -0.0542 -0.3570
 4627W        W21101   6.801   3.014   4.252  0.1601  0.1783  0.0179
 4628W        W21102   0.268   0.793   1.172  0.3992 -0.0091 -0.1614
 4629W        W21103   7.737   9.742   1.384  0.0639  0.1014 -0.1414
 4630W        W21104   5.679  15.230  15.080  0.2998  0.0887 -0.0004
 4631W        W21105   1.901  16.939   5.656 -0.2540  0.2614  0.0644
 4632W        W21106  15.525  12.753  11.380 -0.0205  0.4285 -0.1023
 4633W        W21107   5.656   5.133   3.651 -0.0774  0.2703 -0.1899
 4634W        W21108  16.274   4.676   5.796 -0.1119 -0.1137  0.1416
 4635W        W21109  16.869   8.537  12.840 -0.0837 -0.0630 -0.2212
 4636W        W21110   1.520   7.892   4.543  0.2848 -0.0506 -0.1429
 4637W        W21111  12.676  11.160  11.732 -0.1810  0.3424 -0.0580
 4638W        W21112   8.894  13.499   5.580  0.1839  0.0494  0.0992
 4639W        W21113  10.938  17.975   2.889  0.0488  0.0355  0.1114
 4640W        W21114   6.091  15.629   0.188  0.0061  0.2555 -0.0471
 4641W        W21115   0.843  11.598  12.921 -0.0403 -0.0436 -0.0679
 4642W        W21116  12.847  12.762   1.293 -0.2723 -0.1502 -0.0729
 4643W        W21117   5.991   4.856  12.405 -0.1989  0.0439 -0.1951
 4644W        W21118   0.980   8.712  10.327 -0.2525 -0.0532  0.2324
 4645W        W21119   8.782   8.249  11.776 -0.2590 -0.1476  0.0070
 4646W        W21120   7.556   9.213  15.208 -0.1073 -0.1658  0.1853
 4647W        W21121  12.152   4.348  13.225 -0.0747  0.0674 -0.0350
 4648W        W21122  17.445  14.006   2.840  0.1613 -0.2021  0.1962
 4649W        W21123  12.051   2.426   5.115  0.1209  0.1334  0.2982
 4650W        W21124   7.460   8.583   1.721 -0.0217  0.3543  0.1392
 4651W        W21125   2.921  13.092   0.590 -0.0859 -0.0281 -0.2039
 4652W        W21126  11.102   6.274  15.166  0.1598 -0.1474 -0.0305
 4653W        W21127   9.573   2.514   4.308  0.1242  0.1739  0.1551
 4654W        W21128   0.044   0.191   3.457  0.1899  0.0043  0.0985
 4655W        W21129  17.807  14.325  15.896  0.0244 -0.1597  0.2533
 4656W        W21130   1.519   4.896   3.630 -0.1386 -0.1705  0.1845
 4657W        W21131  17.208  16.065  14.700 -0.1123 -0.2232  0.0101
 4658W        W21132   5.927   7.362  11.062  0.0304 -0.2824  0.1328
 4659W        W21133   5.252   2.800   0.043 -0.2913 -0.0260  0.1197
 4660W        W21134  11.602  15.702  13.232  0.1789 -0.0895  0.2569
 4661W        W21135   4.909  13.255  11.778  0.3718  0.0143  0.2714
 4662W        W21136   1.438   1.678  13.157 -0.2082 -0.4145  0.0589
 4663W        W21137  17.408   0.499  15.344  0.3741  0.0021 -0.4346
 4664W        W21138  15.422   8.091  13.958 -0.2138 -0.1587  0.0226
 4665W        W21139   5.025   1.985  11.334 -0.3322 -0.2261 -0.0243
 4666W        W21140  11.670  14.953  14.417  0.0602 -0.3359  0.1054
 4667W        W21141  15.907  16.634  11.559 -0.1048  0.2308 -0.0018
 4668W        W21142  15.388  14.056   4.072  0.2879  0.3250 -0.0406
 4669W        W21143  16.975   7.159   4.752 -0.0481 -0.1964 -0.0016
 4670W        W21144   4.732  14.548  15.998 -0.1694  0.0754  0.2715
 4671W        W21145  16.729  16.280  14.614 -0.0010 -0.0099 -0.2501
 4672W        W21146  11.674   3.159  12.359 -0.2492  0.1305 -0.0257
 4673W        W21147  13.596   9.103  13.267  0.0373  0.0202 -0.0089
 4674W        W21148   6.680  13.471  15.384  0.1108 -0.0914 -0.1487
 4675W        W21149  12.661   7.240   2.438 -0.1202  0.1250 -0.2040
 4676W        W21150   2.826  17.123   2.894  0.0507  0.1126  0.0572
 4677W        W21151   4.982  11.464  14.634  0.3487  0.0967 -0.1085
 4678W        W21152  13.639   7.751  11.366 -0.0063 -0.2329  0.0727
 4679W        W21153  15.760   2.552   5.141  0.1109  0.3604 -0.0606
 4680W        W21154  14.306   3.084  13.315 -0.0810  0.1552  0.0019
 4681W        W21155   7.128   7.785   5.294 -0.0596  0.0167 -0.0296
 4682W        W21156   9.175   3.687   0.173  0.0276 -0.2486  0.1470
 4683W        W21157   2.116   1.338   0.771  0.0631  0.2154  0.2128
 4684W        W21158  13.748  13.562  15.410  0.4104 -0.0270  0.0929
 4685W        W21159  13.629   1.266  13.211 -0.3278 -0.2191  0.1513
 4686W        W21160  14.801   2.034   2.847 -0.4237 -0.3696 -0.2166
 4687W        W21161   4.364  11.647   1.535  0.1228 -0.1075  0.1744
 4688W        W21162   5.064   4.970   4.206  0.0160 -0.1125  0.1361
 4689W        W21163  14.548   4.394   2.145  0.0893 -0.0338  0.0568
 4690W        W21164  17.099   8.380   5.371 -0.2014 -0.1366  0.0660
 4691W        W21165   4.942   1.115  16.130 -0.1762  0.2028 -0.1350
 4692W        W21166   1.518   9.917   2.353  0.3190  0.0226 -0.0758
 4693W        W21167   8.076  15.378   5.628  0.0056 -0.0477 -0.1578
 4694W        W21168   3.105   8.788   1.094 -0.2593  0.1719 -0.0890
 4695W        W21169   6.341   3.230   4.879  0.3000 -0.0321 -0.0273
 4696W        W21170   8.449   0.673  15.291 -0.1373  0.1870  0.0648
 4697W        W21171   0.005   8.746   3.269  0.1279  0.1194 -0.0449
 4698W        W21172   5.801   0.945   1.987  0.1337  0.1251  0.1467
 4699W        W21173  15.652   7.473  16.008 -0.1642  0.0421 -0.0595
 4700W        W21174  12.102  14.141  16.037 -0.1724 -0.0544  0.0013
 4701W        W21175   0.810   3.180  11.976 -0.1305 -0.0999 -0.1234
 4702W        W21176   0.047  13.049  14.924  0.0843 -0.0851 -0.3161
 4703W        W21177  17.479   2.735   5.251 -0.0886  0.1441 -0.0640
 4704W        W21178   1.799   3.608  14.978  0.3162 -0.1627  0.2663
 4705W        W21179  18.163   0.220   4.795  0.2174  0.2479 -0.1375
 4706W        W21180  10.293  14.585   1.269 -0.1570 -0.2293 -0.0832
 4707W        W21181  17.238  16.344  15.638  0.4551 -0.0861 -0.0257
 4708W        W21182   4.602   5.505  15.097  0.2321 -0.2126 -0.1446
 4709W        W21183  10.888   4.035   1.443  0.0676  0.2769  0.2515
 4710W        W21184   2.356   7.063  12.628  0.2564  0.2750  0.0144
 4711W        W21185   1.643   4.603  12.317 -0.1755  0.1048 -0.0249
 4712W        W21186  15.038  14.411   5.333 -0.1792  0.0396  0.0613
 4713W        W21187   5.269   3.247  12.547 -0.0014  0.2795 -0.2656
 4714W        W21188  18.145   4.566   3.485  0.3223 -0.0536 -0.1935
 4715W        W21189  17.667   4.073  13.601  0.0336  0.5311 -0.0283
 4716W        W21190  17.282   0.210   1.794 -0.0661  0.0336  0.1256
 4717W        W21191  13.505   6.854  15.171 -0.0511 -0.3900 -0.0927
 4718W        W21192  15.403  12.576   1.447  0.0302 -0.1363 -0.0414
 4719W        W21193   0.532   4.081   6.113 -0.0816  0.0506 -0.3195
 4720W        W21194   9.864   6.592   0.323 -0.1007 -0.1889  0.1389
 4721W        W21195  12.528   9.186  13.258  0.0473  0.3455  0.1437
 4722W        W21196  14.200  13.214   1.075 -0.2756  0.1577  0.2048
 4723W        W21197   8.800   4.080   2.934  0.0689  0.1702 -0.0398
 4724W        W21198   3.930  14.689   2.264  0.2503 -0.1106  0.0799
 4725W        W21199  16.237  15.335  14.979 -0.1048 -0.3371  0.0031
 4726W        W21200  15.526   5.751   3.846 -0.1441 -0.0389 -0.0255
 4727W        W21201   8.282  11.461  12.399  0.1339  0.3686 -0.0579
 4728W        W21202  15.171   8.897   2.549  0.0012 -0.0353 -0.2555
 4729W        W21203  13.386   3.650   4.023  0.0025  0.2592  0.0855
 4730W        W21204  16.264   2.068   3.704  0.0650 -0.2316 -0.0314
 4731W        W21205   6.668   2.636  15.437 -0.5677 -0.2485 -0.0510
 4732W        W21206  13.145   9.810  12.170 -0.0627 -0.2681  0.1516
 4733W        W21207  15.578   6.675  16.212 -0.1697 -0.2441 -0.1666
 4734W        W21208   9.778  18.025  15.592  0.1533  0.2510  0.3274
 4735W        W21209  18.151  16.842  13.588  0.1864 -0.0118 -0.1016
 4736W        W21210   5.374  10.245  14.341  0.0914 -0.3472 -0.0205
 4737W        W21211   1.522  10.385   4.722  0.2602  0.0344 -0.2829
 4738W        W21212   6.116   6.775   5.537  0.0826 -0.0139 -0.2504
 4739W        W21213   3.594   2.384   0.314 -0.0389  0.2387 -0.1244
 4740W        W21214   1.971  10.807   1.185 -0.1658  0.0882  0.1437
 4741W        W21215   8.101   2.804   4.796  0.0975  0.3729  0.0264
 4742W        W21216   3.609   7.963   0.542  0.0160  0.1496  0.2133
 4743W        W21217   2.527  17.910  16.132 -0.1539  0.3771  0.0286
 4744W        W21218  11.696   8.562   2.860  0.0688  0.1102 -0.2318
 4745W        W21219  12.854  14.818  15.885  0.1159 -0.1683 -0.1528
 4746W        W21220   8.500  11.116  16.096  0.0822  0.1168  0.1268
 4747W        W21221  16.973  14.680  15.783  0.0227 -0.0844  0.3753
 4748W        W21222   5.884   8.324   3.472 -0.1296 -0.1659  0.1085
 4749W        W21223   0.089  18.146  12.552 -0.1037  0.2269  0.2290
 4750W        W21224  14.849  15.379   5.291 -0.2685 -0.0294  0.0096
 4751W        W21225   7.874   2.383  15.237  0.0567 -0.1365  0.2191
 4752W        W21226   5.786  15.958  12.226  0.2555 -0.1154  0.2400
 4753W        W21227  13.010  10.649   1.709  0.1209  0.1747 -0.0610
 4754W        W21228   7.522  16.056  12.325 -0.0035  0.0623  0.1204
 4755W        W21229   7.592   2.252  16.058  0.3250  0.2689 -0.2165
 4756W        W21230   1.499   3.656   3.807  0.0551 -0.0723  0.2471
 4757W        W21231   7.632  16.927  11.767  0.1581  0.1243  0.2547
 4758W        W21232   1.676  15.950  15.149 -0.1861  0.0781  0.1377
 4759W        W21233  13.486   6.239   5.281  0.0629 -0.0031 -0.0253
 4760W        W21234   6.820  15.010   5.189 -0.2384  0.0242  0.0223
 4761W        W21235  10.000  10.791   3.882  0.1519 -0.1176 -0.0348
 4762W        W21236   8.838  11.753   2.886 -0.2075  0.1615  0.2285
 4763W        W21237   4.144   4.343   3.268 -0.0054  0.3397  0.2924
 4764W        W21238   2.927   8.725  12.695  0.0258 -0.1575 -0.0489
 4765W        W21239   6.640   0.410   5.192  0.3317  0.0473 -0.0005
 4766W        W21240   7.664   3.813  12.968  0.1240  0.2510  0.0731
 4767W        W21241   0.909  16.383   2.539  0.1630 -0.2388  0.0997
 4768W        W21242  14.547  10.098  15.873  0.0824  0.0165  0.1774
 4769W        W21243  11.094  14.804   5.372 -0.1777  0.1147  0.0904
 4770W        W21244   2.650  12.760  15.965  0.0885  0.0061 -0.0081
 4771W        W21245  15.185  12.116   3.215  0.2497  0.0467 -0.2145
 4772W        W21246   8.369   1.669   1.444  0.1125  0.3315  0.1945
 4773W        W21247  15.603  13.408   2.103  0.2566 -0.1082  0.1257
 4774W        W21248  10.946  12.337   1.731 -0.1118 -0.2929 -0.0949
 4775W        W21249  11.699   6.853   0.332  0.1097 -0.4177 -0.2025
 4776W        W21250   7.751   5.155   1.977  0.1196  0.0174  0.0921
 4777W        W21251  13.242   0.308   4.450  0.2394 -0.0939  0.0696
 4778W        W21252  14.027  11.465  12.350  0.1122  0.0407  0.3109
 4779W        W21253   3.933  11.157  13.352 -0.2771  0.0792 -0.5609
 4780W        W21254  10.105   0.597  16.182 -0.0651 -0.0208 -0.1516
 4781W        W21255  11.224  12.018  14.483 -0.1860 -0.2144  0.1467
 4782W        W21256  17.369   0.547  11.817  0.0319 -0.2784 -0.3356
 4783W        W21257   9.388  10.512  12.420 -0.0016  0.4847 -0.1749
 4784W        W21258  15.462   5.645  12.737  0.0142  0.0031 -0.0914
 4785W        W21259   3.224  15.835   1.726 -0.3262 -0.0784  0.1289
 4786W        W21260   9.045  10.770  13.626 -0.0007  0.1860 -0.1920
 4787W        W21261  15.591  12.160   5.166  0.1280  0.0482  0.0021
 4788W        W21262  16.430  11.803   2.257  0.2735  0.1549 -0.0998
 4789W        W21263  10.427  13.584  16.066  0.0890  0.0970 -0.1594
 4790W        W21264   9.936  11.864   0.974 -0.0435  0.1806  0.3358
 4791W        W21265  10.533  10.828  13.611 -0.3785  0.1327 -0.2139
 4792W        W21266  12.764   3.624  14.747 -0.2115  0.2206  0.1543
 4793W        W21267  17.700   3.812   4.239 -0.1357 -0.2342 -0.3314
 4794W        W21268   9.724  11.735  11.506 -0.1251 -0.2247  0.2260
 4795W        W21269  10.491  14.161   2.187  0.0630  0.1437 -0.0449
 4796W        W21270  16.241   2.208  15.828  0.0063 -0.0684 -0.1304
 4797W        W21271  14.500   3.866  15.031 -0.1144 -0.1534 -0.1638
 4798W        W21272   8.164  11.820  13.523  0.1295  0.0922  0.4032
 4799W        W21273   3.381   3.269  10.612 -0.0032  0.1246 -0.1019
 4800W        W21274   3.455  12.611  12.256 -0.2520  0.0874 -0.1922
 4801W        W21275  10.051   4.174   0.999  0.0481 -0.2637 -0.0503
 4802W        W21276  10.739   8.125  14.432 -0.0179 -0.0633 -0.3596
 4803W        W21277   3.152   5.539   0.516  0.3686  0.0502 -0.0461
 4804W        W21278  15.463  11.184   5.753 -0.0695  0.1103 -0.0372
 4805W        W21279  16.665  14.161   3.639  0.0324 -0.0801 -0.0324
 4806W        W21280   4.417   4.749  15.908  0.2273 -0.0573  0.0279
 4807W        W21281   2.041  13.367  10.791  0.0835  0.0106  0.0436
 4808W        W21282   2.297   7.355   4.445  0.4139  0.2700 -0.2790
 4809W        W21283   7.475  13.309   3.601 -0.2051 -0.3038  0.2233
 4810W        W21284  18.175   9.682  12.108  0.3439 -0.4297  0.2297
 4811W        W21285  14.992  11.274   1.528 -0.1600  0.1987 -0.3757
 4812W        W21286  16.687   2.767   1.058 -0.2017 -0.1113  0.0260
 4813W        W21287   5.173  13.489  11.293  0.0823  0.2945  0.2012
 4814W        W21288   2.693   5.321  15.164  0.3434  0.1540 -0.2419
 4815W        W21289   3.737  18.156  12.270  0.0115 -0.4619  0.1523
 4816W        W21290  17.123  17.487   3.685  0.0521  0.1192  0.3139
 4817W        W21291   8.891  13.495  14.499  0.2534 -0.2801 -0.2449
 4818W        W21292  12.996  14.063  12.135 -0.0797 -0.0570 -0.4624
 4819W        W21293  11.418  17.005  11.681  0.0128  0.0163  0.0353
 4820W        W21294  12.982   4.302   1.032  0.1128  0.1181 -0.1679
 4821W        W21295   5.104  10.622  12.744  0.2102 -0.0292 -0.1083
 4822W        W21296  16.002   9.542  11.078  0.1279 -0.0027  0.1066
 4823W        W21297  12.704  16.807  12.088  0.0065 -0.2206  0.0100
 4824W        W21298   5.218   1.558   4.626 -0.0576  0.2597  0.0173
 4825W        W21299  13.576   0.895  12.399  0.0294 -0.2906  0.0744
 4826W        W21300   7.154   0.680  15.876 -0.2254 -0.1303 -0.3437
 4827W        W21301   9.342  18.082  10.277  0.0233  0.0233  0.1774
 4828W        W21302  17.730   2.747   3.316  0.1098  0.2689 -0.1236
 4829W        W21303   5.948   8.036  14.368 -0.0454  0.3781  0.1499
 4830W        W21304  11.754   5.941   5.515  0.1082  0.0363  0.1861
 4831W        W21305   8.621   2.417   6.271  0.0459 -0.1490  0.2891
 4832W        W21306   7.329   3.516  13.264  0.0364 -0.2385  0.0937
 4833W        W21307  12.404   2.663   3.765  0.1527  0.0514  0.4956
 4834W        W21308  16.381   0.114   3.282  0.1041 -0.0536 -0.1134
 4835W        W21309   4.586   2.486  13.603  0.1281  0.1280  0.4139
 4836W        W21310  12.019  13.757   5.094 -0.2540  0.1209  0.1748
 4837W        W21311   2.013   6.043  10.719  0.1205 -0.1599  0.1202
 4838W        W21312   9.692   3.845   0.891 -0.3787  0.2474 -0.1933
 4839W        W21313  15.590  11.115   3.572 -0.1697 -0.0056 -0.2987
 4840W        W21314  15.917  17.800   1.069 -0.0570 -0.2773 -0.2023
 4841W        W21315   9.776  10.295  11.441 -0.0142  0.4925 -0.0520
 4842W        W21316   8.673   5.985  15.575 -0.1922  0.0483 -0.2205
 4843W        W21317   6.087   0.444   0.633  0.0222  0.0979 -0.1034
 4844W        W21318  13.900   5.868  14.478  0.0392  0.1196  0.1719
 4845W        W21319  17.010   0.808   3.345  0.0592 -0.0554 -0.0767
 4846W        W21320  13.987   6.690  10.128 -0.0145 -0.0266  0.1795
 4847W        W21321  12.081  13.493   0.199 -0.4055 -0.3355 -0.0808
 4848W        W21322  11.038   9.423  11.239 -0.2607 -0.0565  0.1618
 4849W        W21323   9.417   2.932   3.970 -0.2195  0.3061  0.1568
 4850W        W21324   6.563  16.573  13.399 -0.0428  0.1127  0.0570
 4851W        W21325   8.353   1.833   4.597  0.0884  0.1138  0.3425
 4852W        W21326  14.561  12.692  14.636 -0.1513  0.1847 -0.1533
 4853W        W21327  13.475  13.483   0.537  0.3577 -0.0496 -0.1176
 4854W        W21328  15.176  15.806   6.018  0.1746  0.2469 -0.1745
 4855W        W21329  12.679  13.402   4.657  0.0712 -0.0443 -0.1918
 4856W        W21330   8.887  17.409  13.566 -0.3151  0.2525 -0.0148
 4857W        W21331   6.902  17.428  11.723 -0.2793  0.1803  0.0093
 4858W        W21332   1.556   0.666  16.284 -0.3575 -0.3473 -0.1292
 4859W        W21333  15.697  14.396   1.946 -0.1311  0.4077 -0.2726
 4860W        W21334   7.393   5.237   3.705  0.0858  0.3609 -0.0168
 4861W        W21335   1.001   2.784   4.045 -0.1318 -0.0550  0.0754
 4862W        W21336   1.304  12.942   2.248 -0.2113  0.0946 -0.1092
 4863W        W21337   0.325   6.485  12.255 -0.1045  0.0240 -0.1074
 4864W        W21338  12.064  10.342   4.345  0.0496 -0.0183 -0.2789
 4865W        W21339   8.738  13.469  16.360 -0.1139 -0.1180 -0.0462
 4866W        W21340  15.451   8.017  12.190 -0.0743  0.0135  0.2382
 4867W        W21341  14.064   3.025  10.464 -0.0035  0.1069  0.1089
 4868W        W21342   9.917   5.167   5.442  0.0338  0.1714  0.0343
 4869W        W21343  14.946  16.168   1.185  0.3179 -0.1053 -0.0880
 4870W        W21344   6.786   4.571   4.476  0.0291  0.1078 -0.0449
 4871W        W21345   6.185  17.827   0.708 -0.1661  0.1830  0.1079
 4872W        W21346  14.500   9.867   0.600 -0.2815 -0.0687 -0.2419
 4873W        W21347  11.903  14.238   5.292  0.3556 -0.2472 -0.1748
 4874W        W21348   9.179   4.617  11.635 -0.1363  0.0971  0.1546
 4875W        W21349  15.161  15.348   5.730 -0.2988  0.1819 -0.0251
 4876W        W21350   0.546  14.109  13.845  0.3195 -0.0135  0.1566
 4877W        W21351   1.908  14.223   2.881 -0.1074  0.0164  0.3333
 4878W        W21352   6.917  13.783  13.877 -0.0917  0.1357  0.3120
 4879W        W21353  16.891  17.241   2.847 -0.0562  0.3546 -0.1680
 4880W        W21354  15.540   7.506  12.360  0.2394 -0.1015 -0.0078
 4881W        W21355  13.324  12.673   1.005 -0.0075 -0.0794  0.1549
 4882W        W21356   3.349  15.957  14.686 -0.1499  0.0356 -0.0510
 4883W        W21357  16.432   0.916   1.650  0.0238 -0.0339 -0.0505
 4884W        W21358   7.973  16.197   4.369  0.1591 -0.0625 -0.5050
 4885W        W21359   9.834  11.835  16.246  0.1988  0.3606  0.0620
 4886W        W21360   1.480   6.868  12.669  0.0195  0.1629  0.0528
 4887W        W21361  17.072  13.104   5.462  0.2790 -0.2473  0.1758
 4888W        W21362  16.437  16.823   3.230  0.1919 -0.2778  0.0519
 4889W        W21363  11.408   4.347  15.612 -0.2855  0.0477  0.2120
 4890W        W21364  16.301   2.067   3.194  0.0533 -0.1719  0.1513
 4891W        W21365  15.092   8.360  14.192  0.0683  0.0721  0.1095
 4892W        W21366  15.710  14.284   3.340 -0.0731 -0.3157 -0.1814
 4893W        W21367   3.583  10.331  14.806  0.0607 -0.0301 -0.0764
 4894W        W21368  12.044  17.642  11.883  0.0137  0.0416 -0.2870
 4895W        W21369   9.300   0.776   3.656  0.0972  0.0440 -0.3369
 4896W        W21370   4.906   8.538   4.070  0.2871  0.3901 -0.0423
 4897W        W21371   2.982   5.916   3.673  0.0337  0.1121 -0.0867
 4898W        W21372   4.537  14.630   3.218  0.0830  0.1959  0.1091
 4899W        W21373  17.147   4.996   5.705 -0.2897 -0.0303  0.1369
 4900W        W21374  12.436  14.797  11.838  0.0637  0.1247  0.0117
 4901W        W21375  12.137   1.996  15.488 -0.0146 -0.3548 -0.1231
 4902W        W21376  14.055   0.293  15.135  0.2152  0.0133 -0.2202
 4903W        W21377  11.307  17.003  14.820 -0.1444  0.0570 -0.1396
 4904W        W21378   7.769  11.317  12.721 -0.1182  0.1825  0.0384
 4905W        W21379   7.846   8.795   1.399  0.1095  0.0658  0.0615
 4906W        W21380   6.526  15.266   0.403  0.1896  0.1104  0.0163
 4907W        W21381  16.779   6.019   1.179 -0.0587  0.0002 -0.1174
 4908W        W21382  11.592   3.380  14.762  0.0655 -0.1310 -0.2096
 4909W        W21383   0.953   6.615   4.060  0.1779 -0.3490  0.1981
 4910W        W21384   7.684   1.048   2.781  0.1417 -0.0414  0.0446
 4911W        W21385   2.802   3.754   0.452  0.0184  0.4182 -0.0279
 4912W        W21386   7.495   2.404  11.358 -0.0757  0.2468  0.0926
 4913W        W21387   8.328   8.276   4.159  0.1890  0.0595  0.0378
 4914W        W21388   4.760  17.715  14.850 -0.1628 -0.0036  0.0569
 4915W        W21389  17.659   8.269  11.710 -0.0904  0.0670  0.0993
 4916W        W21390   5.508   0.619  12.349 -0.2155 -0.1861  0.1314
 4917W        W21391  16.863   9.089  11.383 -0.0063  0.1371 -0.0757
 4918W        W21392  16.400   1.369   1.463  0.0964  0.0495 -0.0468
 4919W        W21393  16.533  15.355   0.157 -0.1249  0.2924 -0.1409
 4920W        W21394   4.869   3.553   4.421  0.1704 -0.2359  0.0355
 4921W        W21395   2.336   3.350  13.437 -0.0093  0.0222  0.0380
 4922W        W21396  10.448  16.454  13.127 -0.1003 -0.1527  0.0602
 4923W        W21397  13.809   8.511  11.645  0.1505 -0.1893 -0.1554
 4924W        W21398   2.861  13.413  15.296  0.0504 -0.2230  0.0373
 4925W        W21399  11.400   8.478  15.259 -0.0097  0.3298  0.0402
 4926W        W21400   8.113   6.688  10.684 -0.1123 -0.0125 -0.2531
 4927W        W21401  14.168   4.062  11.616  0.1792 -0.3392  0.0082
 4928W        W21402  11.446   6.385  15.653  0.0997  0.1313 -0.1169
 4929W        W21403  18.177   0.832  15.868 -0.0295 -0.0778  0.0962
 4930W        W21404   9.912   5.681   5.666  0.2134 -0.0716  0.0625
 4931W        W21405   3.438  16.857  13.223 -0.0982 -0.0113  0.0841
 4932W        W21406   8.924   7.984   4.839  0.2727  0.0251 -0.1047
 4933W        W21407  14.082   1.800  12.425  0.0308  0.0129 -0.1076
 4934W        W21408   3.423   1.144  16.108 -0.0159  0.3133 -0.1420
 4935W        W21409   6.781   3.521   1.387 -0.1083  0.0856 -0.1357
 4936W        W21410   1.307  13.409   1.306 -0.2636  0.1017 -0.1354
 4937W        W21411   7.500   9.598   1.833 -0.1627  0.0866  0.0218
 4938W        W21412   0.503  11.250   3.199  0.0236  0.1013 -0.1971
 4939W        W21413  14.047   7.215   2.631  0.0406  0.0326  0.2580
 4940W        W21414  14.110  14.794  13.142 -0.3226  0.0246  0.0326
 4941W        W21415   2.139   4.367   0.283 -0.0723  0.1132  0.0296
 4942W        W21416   5.670  10.283  12.088  0.2419 -0.0846  0.0595
 4943W        W21417   0.090   3.914  15.790 -0.4514 -0.0412 -0.0411
 4944W        W21418   5.472   5.283   0.485  0.0545  0.1223 -0.1463
 4945W        W21419  14.443   3.189  11.361 -0.0639 -0.0892  0.1180
 4946W        W21420   4.824   7.115   2.405 -0.1226 -0.1500  0.0927
 4947W        W21421   6.478   0.203  12.440 -0.1694 -0.0324 -0.1910
 4948W        W21422   4.267  16.073   2.524  0.2975 -0.1990  0.1266
 4949W        W21423  12.668   4.986   2.768  0.1005  0.0465 -0.0643
 4950W        W21424   8.820  14.984  15.511  0.0710  0.0884 -0.4091
 4951W        W21425   7.092   7.748  14.811 -0.0022  0.0717 -0.1137
 4952W        W21426  10.319   2.706  11.386 -0.0997  0.0215 -0.1733
 4953W        W21427  14.253  13.441   3.023 -0.1713 -0.1606  0.0880
 4954W        W21428  12.086   1.350  13.048  0.0411 -0.2433 -0.0293
 4955W        W21429   9.255   0.939   1.708 -0.3234  0.0838  0.2566
 4956W        W21430  15.884  11.571  13.217 -0.0149  0.1732  0.1055
 4957W        W21431   9.704   8.448  15.411 -0.2623  0.0210 -0.3416
 4958W        W21432  14.488   3.218  13.769 -0.1517  0.1972  0.1939
 4959W        W21433   1.808  17.914  15.094  0.2888  0.1693  0.0145
 4960W        W21434   9.454  14.235   0.179 -0.3284 -0.1928  0.0252
 4961W        W21435  13.855   6.637   0.960  0.2433 -0.0107  0.1847
 4962W        W21436  17.553   3.123   2.054  0.0571  0.1167  0.0943
 4963W        W21437   0.699   9.880   1.717 -0.1106  0.2342 -0.5404
 4964W        W21438   9.568   8.339  16.335  0.1397 -0.0101 -0.0487
 4965W        W21439  13.467   3.274  15.807 -0.0190  0.0140 -0.0180
 4966W        W21440   5.963  12.191  15.931 -0.1674 -0.1429 -0.0745
 4967W        W21441   5.388  10.819   1.370  0.0401  0.0360 -0.0322
 4968W        W21442   5.918   2.516   1.098  0.4819  0.2154 -0.0252
 4969W        W21443  15.824   1.490   2.123  0.0304 -0.0378 -0.1732
 4970W        W21444  15.920   0.609  15.663  0.0107 -0.0173 -0.1923
 4971W        W21445  15.063   4.860   4.477  0.0866  0.2202 -0.2671
 4972W        W21446   4.093   5.904   1.208 -0.1479  0.1866  0.0731
 4973W        W21447   9.715  12.915   4.885  0.1905  0.0784 -0.0706
 4974W        W21448   9.779   6.337  14.619 -0.1353 -0.0632 -0.1163
 4975W        W21449   2.235   0.263  14.452  0.0275 -0.1434 -0.0553
 4976W        W21450  11.349   3.073   4.417 -0.1751  0.0512  0.0071
 4977W        W21451   0.657   9.057  15.966 -0.3234  0.0401  0.2061
 4978W        W21452   8.942   4.471   4.546 -0.0680  0.0427  0.0475
 4979W        W21453  11.533   4.757  15.891 -0.0838 -0.0953 -0.0681
 4980W        W21454  13.503  14.234  12.618 -0.2344 -0.1821  0.1328
 4981W        W21455   7.513  17.460   1.274 -0.0398 -0.0877  0.0961
 4982W        W21456   1.193  10.025  14.730  0.0553 -0.1118 -0.1102
 4983W        W21457   8.801   0.349   4.582  0.2025  0.1420  0.0306
 4984W        W21458   2.668   9.160   1.440  0.0663  0.0286 -0.0554
 4985W        W21459  16.349   4.029  13.188 -0.4508 -0.1960 -0.0241
 4986W        W21460  13.490  15.773   0.950 -0.2543  0.0973 -0.0431
 4987W        W21461  11.297   4.741   0.836 -0.1089 -0.1294  0.1184
 4988W        W21462  10.535   2.570   0.345 -0.1577  0.0902 -0.0827
 4989W        W21463   1.751   8.118  12.841 -0.0581  0.1456 -0.2232
 4990W        W21464   9.512  12.027   2.036 -0.0338  0.1606 -0.2036
 4991W        W21465  12.674   4.887  12.787  0.1008  0.1265 -0.1335
 4992W        W21466   6.394  11.215   2.079  0.2710  0.0436 -0.1950
 4993W        W21467   9.277   9.461  11.256 -0.3274 -0.2119  0.1233
 4994W        W21468   7.089  18.026   4.902  0.1023  0.1576  0.3165
 4995W        W21469  11.492  14.312   0.115  0.0285 -0.2141 -0.3076
 4996W        W21470  12.146  15.366   0.345  0.1188 -0.2309  0.1856
 4997W        W21471  17.447   7.553  15.157  0.0253  0.0154  0.1839
 4998W        W21472   5.782   7.558   3.077  0.0094  0.2409  0.1462
 4999W        W21473  12.882   7.319  13.104  0.1565 -0.0784 -0.1377
 5000W        W21474   7.188   3.752  11.523  0.3866  0.4054  0.0237
 5001W        W21475  12.929  15.441   4.907 -0.1843  0.3159 -0.0268
 5002W        W21476   5.576   8.592  13.616  0.1894  0.4047 -0.0667
 5003W        W21477   1.870  17.805  10.791 -0.1558  0.2488  0.0317
 5004W        W21478   6.231  13.676   5.458 -0.1518  0.0594  0.1381
 5005W        W21479   2.594   6.324  14.911  0.1261  0.2386  0.1242
 5006W        W21480   9.478   7.919  13.524 -0.1578  0.2203 -0.0512
 5007W        W21481  11.693   5.954  11.947  0.0284  0.0311 -0.0342
 5008W        W21482   3.384  11.528   2.781 -0.0202 -0.3727 -0.2157
 5009W        W21483   6.120   2.211  11.414  0.0775  0.1281  0.1261
 5010W        W21484  11.438   5.718   1.070  0.1712  0.0754  0.0213
 5011W        W21485  11.965  11.225   0.483  0.2435  0.1438  0.4266
 5012W        W21486   0.868  11.989  13.820  0.5097  0.1256  0.1009
 5013W        W21487  13.102   9.494  14.385  0.3109 -0.0317  0.0982
 5014W        W21488   1.515  14.479  15.692 -0.0293  0.2309  0.1209
 5015W        W21489   6.106   5.454  14.296 -0.0415  0.0402  0.0180
 5016W        W21490   8.566  12.734  16.105  0.1630 -0.1103 -0.0302
 5017W        W21491  17.801   8.619   3.575  0.0015 -0.0791 -0.4172
 5018W        W21492  17.263   2.027   4.207 -0.1628 -0.0775 -0.0762
 5019W        W21493   4.162  13.480   1.987 -0.2511 -0.1395  0.0533
 5020W        W21494   6.783  15.630   2.410  0.1377 -0.2980 -0.1349
 5021W        W21495  16.931   4.765   1.023  0.5762 -0.2838 -0.0401
 5022W        W21496   7.230  11.148  11.735 -0.3260 -0.1914  0.1010
 5023W        W21497   5.955   4.177   4.802  0.1173  0.1089  0.1852
 5024W        W21498   2.796  11.127   5.327 -0.0753 -0.0195 -0.0174
 5025W        W21499   3.068  15.140  13.584 -0.2813 -0.1570  0.0246
 5026W        W21500  10.166   1.863   2.037  0.0206  0.2267 -0.0872
 5027W        W21501   4.323   1.322  13.460  0.3400  0.0980  0.1004
 5028W        W21502   0.810   9.474   1.979  0.4762  0.3646 -0.1898
 5029W        W21503   9.101   1.331  15.209  0.0153 -0.0867  0.4959
 5030W        W21504   3.120   1.465  12.305  0.2119  0.2584 -0.1996
 5031W        W21505  14.732   2.848  13.542 -0.0962  0.1069  0.0152
 5032W        W21506   8.496   5.708  12.935 -0.1593 -0.2753  0.0368
 5033W        W21507   1.851  13.646   3.554  0.1609 -0.0148  0.0992
 5034W        W21508  15.073  16.186  13.893  0.0237  0.1132  0.1629
 5035W        W21509   5.857  18.106   0.257  0.2434  0.1426  0.1302
 5036W        W21510  13.209   8.802   0.991 -0.0292  0.0827  0.0248
 5037W        W21511  15.582   4.007  15.743 -0.0402 -0.0943  0.1006
 5038W        W21512   6.178   3.361   2.000 -0.1377  0.1959 -0.1904
 5039W        W21513   9.572  10.956   5.011  0.1899 -0.1548 -0.1258
 5040W        W21514  12.599   0.625  11.487  0.1400 -0.1958 -0.2227
 5041W        W21515  16.754   0.906   2.497 -0.0449  0.1281  0.0753
 5042W        W21516   8.493  13.613  15.941 -0.5046  0.0843  0.0647
 5043W        W21517  16.166  13.702  12.513  0.1831 -0.1581 -0.0868
 5044W        W21518   8.300   2.416   0.693  0.1988 -0.1658  0.1655
 5045W        W21519   3.704   1.083   4.132 -0.1097 -0.2451  0.0740
 5046W        W21520   2.903  12.168  15.209 -0.0233  0.3557  0.0423
 5047W        W21521   7.867   3.570  13.966  0.1755  0.2031  0.0649
 5048W        W21522   3.529  11.016   3.217 -0.2060 -0.0675  0.0043
 5049W        W21523  12.235   8.100   3.358 -0.0628 -0.3893 -0.1139
 5050W        W21524   8.513  11.436   3.103 -0.3952  0.0437  0.1338
 5051W        W21525   1.168   1.689   1.688  0.2117  0.1507 -0.1312
 5052W        W21526   1.083   5.220  13.379 -0.0412  0.3422 -0.0618
 5053W        W21527  11.698   7.303   4.475 -0.0425 -0.2320 -0.0989
 5054W        W21528   0.303   0.049  16.184 -0.3174  0.2589 -0.0486
 5055W        W21529   0.121   2.834  16.128 -0.0329 -0.1335 -0.1232
 5056W        W21530  10.799  14.668   1.277 -0.2343 -0.0006  0.0488
 5057W        W21531   1.027   9.921  11.187 -0.0199 -0.0521 -0.2695
 5058W        W21532  12.870   4.702  14.450  0.0911 -0.0725  0.1523
 5059W        W21533   2.823  15.374  13.170  0.1587  0.1765 -0.2487
 5060W        W21534  16.040   4.998  13.640 -0.1732  0.3893  0.1279
 5061W        W21535   7.034   0.061   4.314  0.0958 -0.5135 -0.1454
 5062W        W21536  13.917  11.986  14.014 -0.0198  0.0839  0.2020
 5063W        W21537   0.313  10.801  12.880 -0.0639  0.0570  0.3978
 5064W        W21538   4.310  14.071  15.365 -0.1166 -0.3022 -0.0430
 5065W        W21539  11.692   4.374  12.463 -0.0265 -0.1357  0.1083
 5066W        W21540   6.112   6.308   5.104 -0.2536  0.0876  0.2209
 5067W        W21541  13.955  10.404   1.436  0.0392  0.1021 -0.1775
 5068W        W21542   1.862   7.503   3.335 -0.0337 -0.0132  0.1359
 5069W        W21543   3.153  17.523   3.795 -0.1119 -0.0357 -0.2683
 5070W        W21544   6.759   6.066  13.149 -0.1475 -0.3391 -0.2740
 5071W        W21545   2.543  11.173   5.789 -0.1706  0.1112  0.1792
 5072W        W21546   9.428   1.341   3.663 -0.0417  0.2982 -0.2123
 5073W        W21547  17.065   9.275   5.541  0.0573  0.1609  0.4210
 5074W        W21548  11.011   2.564  15.516 -0.3415 -0.0748 -0.0372
 5075W        W21549  14.377   7.639  14.299 -0.1139  0.1766 -0.1337
 5076W        W21550   4.658   4.466  14.922 -0.0065  0.0653  0.2224
 5077W        W21551  17.381  11.194   3.546 -0.1087 -0.0043 -0.0072
 5078W        W21552  13.076   7.640  11.246  0.1344 -0.0681 -0.2297
 5079W        W21553  13.581  15.666   2.869 -0.1462 -0.1117 -0.0707
 5080W        W21554   0.683  17.870   0.039  0.0853  0.0658 -0.1960
 5081W        W21555  12.679  11.868   0.146  0.1205  0.0031  0.4189
 5082W        W21556  15.240  10.113   3.251 -0.1852  0.0116  0.1683
 5083W        W21557  11.736  10.502   4.789 -0.2169  0.1067 -0.1549
 5084W        W21558  15.030   5.303  13.536  0.1507 -0.2468  0.0833
 5085W        W21559   4.879  10.559  12.099  0.1619  0.1947  0.1015
 5086W        W21560  11.256  16.720  12.602  0.0169  0.1047  0.1127
 5087W        W21561  12.782  16.584   5.991 -0.4845 -0.1204  0.1232
 5088W        W21562   2.988   5.306   0.903 -0.1485  0.1407  0.1885
 5089W        W21563  14.122   9.947   1.238  0.1279 -0.1546  0.5293
 5090W        W21564  15.982   6.882  15.373 -0.1134 -0.0304  0.0332
 5091W        W21565   0.397   5.067  10.949  0.0194  0.0643 -0.1535
 5092W        W21566   2.126   0.298   2.691 -0.1234  0.1436  0.1281
 5093W        W21567  10.667   9.680   3.517 -0.1647  0.0957  0.0913
 5094W        W21568  15.294  14.256  13.427 -0.1410  0.1391  0.1698
 5095W        W21569   8.489  16.359   3.510 -0.3027 -0.0882 -0.1230
 5096W        W21570   5.485  10.451  15.577  0.0121 -0.3764 -0.0625
 5097W        W21571   9.331  13.369   2.705 -0.0747  0.0065 -0.0428
 5098W        W21572  15.423   5.293   3.611 -0.1178  0.0503 -0.2844
 5099W        W21573   9.304   9.944  13.911  0.0714 -0.1954 -0.0165
 5100W        W21574  17.977   3.055   0.723 -0.1035  0.0095  0.1254
 5101W        W21575   6.955  17.823  15.348  0.1375 -0.2909 -0.1775
 5102W        W21576   4.657   4.637   2.694  0.0328 -0.2522  0.1086
 5103W        W21577   2.696   6.680   0.283 -0.2161  0.0151 -0.0593
 5104W        W21578   5.070  13.652   3.466  0.0912  0.1061  0.2254
 5105W        W21579   0.249   6.398   5.526 -0.0230 -0.1970 -0.1478
 5106W        W21580  13.389  17.630   5.175 -0.0311 -0.1525 -0.2558
 5107W        W21581  14.556  14.028   1.345  0.0363  0.3388 -0.0065
 5108W        W21582  17.269   7.401   0.780  0.1279 -0.4529 -0.3224
 5109W        W21583  16.324  12.734  13.640 -0.0754  0.0934  0.0665
 5110W        W21584  11.689   1.430  11.797  0.3068  0.0120 -0.1232
 5111W        W21585   0.003  11.510  15.431  0.3872 -0.0061 -0.0737
 5112W        W21586   5.330   3.711  15.270  0.2509 -0.2122  0.0246
 5113W        W21587   7.424  17.310  10.877 -0.0010 -0.0468 -0.0961
 5114W        W21588  16.781   9.497  12.293 -0.2725  0.0607  0.0917
 5115W        W21589   5.202   6.607   0.298 -0.3893  0.0070 -0.1212
 5116W        W21590  17.979   8.125   0.910  0.0932  0.0124  0.1930
 5117W        W21591   7.095   4.253  15.545 -0.1321 -0.0945  0.0671
 5118W        W21592  17.484  15.401   5.155 -0.0045  0.0012 -0.2607
 5119W        W21593  12.798  11.234   5.495  0.0389 -0.0790  0.0966
 5120W        W21594   5.383   5.285   2.977  0.2615 -0.0196  0.0611
 5121W        W21595  14.723   5.536   0.316 -0.0623 -0.0108  0.0731
 5122W        W21596   9.934  16.938   0.847 -0.1325 -0.2108  0.1340
 5123W        W21597  13.604   8.634  15.777  0.0781  0.1317 -0.0169
 5124W        W21598  18.115  14.616  14.938 -0.3867  0.1371  0.3231
 5125W        W21599   4.012  15.737   1.244  0.1097  0.1595 -0.0564
 5126W        W21600  15.472  10.252  11.429  0.0422 -0.0230  0.0318
 5127W        W21601   5.583   8.392   4.827 -0.1012 -0.2150  0.2899
 5128W        W21602   0.033   3.442  13.200 -0.1084 -0.4149  0.2064
 5129W        W21603   1.698   3.490   1.093  0.0848 -0.1712 -0.0835
 5130W        W21604   7.770   9.007   5.113 -0.0730  0.3728 -0.0604
 5131W        W21605  10.703   1.798   0.122 -0.2108 -0.3735 -0.1608
 5132W        W21606   5.077  12.382  15.070 -0.2438  0.0122  0.1157
 5133W        W21607   5.007   5.221  14.277 -0.2206 -0.0810  0.1370
 5134W        W21608   0.457   6.490  16.267 -0.0848 -0.2346 -0.1302
 5135W        W21609   5.785  16.059   5.289  0.0951  0.1596 -0.0122
 5136W        W21610  10.300   2.163  15.599  0.3143 -0.0466  0.2917
 5137W        W21611   2.195   4.969  13.517  0.1224 -0.3287  0.1312
 5138W        W21612   7.149   3.312   0.505 -0.0208 -0.0036 -0.0162
 5139W        W21613   8.528   2.881  14.537  0.0512  0.0779  0.1750
 5140W        W21614  10.711  10.281  11.889 -0.2604 -0.0603 -0.3618
 5141W        W21615   1.431   5.691   5.778 -0.1696 -0.1585 -0.0199
 5142W        W21616   8.589  13.538  11.487  0.1139 -0.0396  0.2154
 5143W        W21617  11.161  13.519   2.038  0.1711 -0.1883  0.0324
 5144W        W21618   8.240  17.592   0.401  0.1196  0.3030  0.0653
 5145W        W21619  11.099   4.112  15.940 -0.0720  0.1372  0.0586
 5146W        W21620  15.919   9.246  16.068  0.0536 -0.1302  0.0453
 5147W        W21621   1.334   0.196  12.331 -0.0201 -0.0395  0.1744
 5148W        W21622   2.403  15.193   5.339  0.0692  0.1983 -0.1047
 5149W        W21623   1.201   1.169  12.648  0.1523 -0.4220  0.0891
 5150W        W21624   9.276   4.980   2.938  0.1788  0.1067  0.1455
 5151W        W21625   2.498   0.903  16.240  0.0230 -0.0156  0.2665
 5152W        W21626   0.686  12.676   4.271 -0.0828  0.2497 -0.2785
 5153W        W21627  10.585  16.155   3.393  0.1421 -0.0033 -0.0007
 5154W        W21628   6.584   2.316  11.586  0.2774 -0.1396  0.1610
 5155W        W21629  11.852   9.729   2.553 -0.0367  0.3963  0.1626
 5156W        W21630   0.763  14.791  16.114 -0.4241  0.3732  0.3011
 5157W        W21631   4.464   3.543   3.016  0.1609  0.1551  0.0415
 5158W        W21632   8.066  17.827   5.067 -0.3896  0.2571  0.0658
 5159W        W21633  16.142  12.241   0.448  0.1003  0.3099 -0.0627
 5160W        W21634   3.566   4.821  12.059 -0.1510  0.2400 -0.0154
 5161W        W21635  13.672  15.732  12.326  0.0634  0.0091 -0.1084
 5162W        W21636  16.762   3.899   4.929 -0.2573 -0.1589  0.0185
 5163W        W21637   3.295  12.969   2.521  0.1432 -0.2323 -0.0399
 5164W        W21638   4.591   3.471   3.561  0.0228  0.2777 -0.0487
 5165W        W21639  15.216   0.805  13.898  0.2012  0.1006  0.2205
 5166W        W21640  15.407   7.413   5.742 -0.0203  0.0235  0.2249
 5167W        W21641   2.653   9.455  14.458 -0.0477  0.1185  0.2287
 5168W        W21642  15.528   1.708  14.961  0.4153  0.2432 -0.0281
 5169W        W21643  13.201   0.697   2.234  0.0299 -0.1541 -0.1525
 5170W        W21644   6.874  15.878  15.072 -0.0278  0.0555  0.0652
 5171W        W21645  13.504  14.165  11.337 -0.2321  0.3857  0.1927
 5172W        W21646  11.992  18.009   2.737  0.2224 -0.2315  0.4250
 5173W        W21647   2.463   9.237  14.933 -0.1061 -0.0165 -0.3392
 5174W        W21648   5.819   4.004  12.937  0.2280  0.1367  0.0326
 5175W        W21649   1.149   0.835  13.058 -0.0356 -0.2904 -0.0867
 5176W        W21650   6.414   7.325  14.132  0.3708 -0.0924  0.0255
 5177W        W21651   4.365  14.772  13.685 -0.0981  0.1982 -0.0145
 5178W        W21652  15.503  14.163   4.571 -0.2001  0.2004 -0.1535
 5179W        W21653  10.298   2.433  13.667  0.1625 -0.0297  0.3399
 5180W        W21654  16.092  15.628  11.315  0.0978 -0.0752  0.3454
 5181W        W21655  13.263   4.385   2.823 -0.2247  0.1078  0.0544
 5182W        W21656   0.926   1.539   1.227 -0.1410  0.4408 -0.2521
 5183W        W21657   5.001   1.606  13.064 -0.0587  0.0503  0.0095
 5184W        W21658  14.882  13.699   0.519  0.2975 -0.1661  0.1622
 5185W        W21659   5.039   1.825   1.858 -0.1617 -0.2482  0.1026
 5186W        W21660  11.979   8.986   2.988 -0.1286  0.0560 -0.3120
 5187W        W21661  16.370  17.031  15.634  0.0173 -0.1618  0.0077
 5188W        W21662   1.263  17.262   0.401 -0.1290  0.2023  0.1327
 5189W        W21663   0.719   2.372  13.326 -0.0064  0.2897  0.0372
 5190W        W21664   2.857  10.010   4.997 -0.4404  0.0449 -0.1043
 5191W        W21665   0.746  11.322   0.260 -0.0235 -0.2525  0.2511
 5192W        W21666  14.153  14.918  15.385  0.2864  0.0143  0.0261
 5193W        W21667   4.985   5.008  10.988  0.0431 -0.1339  0.2477
 5194W        W21668   6.023  11.961   4.257 -0.2337  0.1240 -0.1599
 5195W        W21669   7.730  11.227   0.494 -0.1230  0.2870  0.0901
 5196W        W21670   4.756   7.083  13.731 -0.4662 -0.2388  0.1379
 5197W        W21671  17.765  17.087   4.828 -0.0486  0.2105 -0.1629
 5198W        W21672  16.669   9.977  12.160  0.1090  0.0688  0.1905
 5199W        W21673  12.250   4.941   2.031 -0.1987  0.2907  0.0333
 5200W        W21674   6.050  14.253   4.928 -0.0889 -0.3674 -0.2999
 5201W        W21675  16.477  13.701   2.321 -0.0495  0.0731  0.0880
 5202W        W21676   9.371   1.652   4.556  0.2688  0.2167 -0.0702
 5203W        W21677   5.048   0.032  14.554  0.0643  0.0627 -0.1232
 5204W        W21678  14.133   2.173  15.241 -0.1169 -0.0519  0.1129
 5205W        W21679   3.193   5.294   0.069 -0.2298 -0.2970  0.1104
 5206W        W21680  11.556   2.074  12.747 -0.2154 -0.1669  0.0771
 5207W        W21681   4.788  13.142  14.453 -0.1272  0.1614  0.3342
 5208W        W21682  16.929  14.000   1.345  0.3553 -0.1121 -0.2190
 5209W        W21683  17.208   9.912   4.456  0.2485 -0.2401 -0.0804
 5210W        W21684   3.413   4.744   3.071 -0.1933 -0.0524 -0.0661
 5211W        W21685  17.437  13.117  15.983  0.0027  0.4094 -0.1505
 5212W        W21686   6.338  12.112   4.669 -0.0339  0.0554 -0.0667
 5213W        W21687  16.255   8.384   1.076 -0.1801 -0.2018 -0.1994
 5214W        W21688  15.376  16.688  11.599  0.1501 -0.0812 -0.1402
 5215W        W21689  14.905  13.018  14.799 -0.0185 -0.0614 -0.0351
 5216W        W21690  14.342   2.383   1.531 -0.0226 -0.1109 -0.3803
 5217W        W21691   7.815  16.453   0.559  0.0861  0.4157  0.2194
 5218W        W21692  11.932  12.067   4.034 -0.1054 -0.0887  0.0277
 5219W        W21693  17.464  15.373   2.787  0.1610 -0.1229  0.0034
 5220W        W21694  10.969  17.757  11.846  0.0396  0.2237  0.1203
 5221W        W21695  13.898  16.130  11.997  0.0563 -0.1357 -0.2030
 5222W        W21696  15.203   3.760   0.414 -0.1303  0.1475 -0.2668
 5223W        W21697  16.471  10.847  14.105 -0.0453 -0.3604  0.0485
 5224W        W21698  18.149  13.583  14.904 -0.0976  0.0387  0.2221
 5225W        W21699   2.505   4.543   3.102 -0.4685 -0.4062 -0.1004
 5226W        W21700   4.560   6.824  12.577  0.1252 -0.0665 -0.0471
 5227W        W21701  14.058   5.073   0.825  0.0477  0.1920  0.1420
 5228W        W21702  15.603   9.819   0.639  0.1467 -0.1651  0.1610
 5229W        W21703   5.326  15.620  12.095  0.0832 -0.3367 -0.4736
 5230W        W21704   1.403   5.608   2.354  0.1721  0.0619  0.1044
 5231W        W21705  16.924  17.736   0.738 -0.0937  0.0741  0.0254
 5232W        W21706   4.156  11.058  14.862 -0.0166  0.0538 -0.1693
 5233W        W21707  12.291   5.980  15.263  0.0425 -0.0935  0.0309
 5234W        W21708   2.402   3.641   3.495  0.1501 -0.0599 -0.1643
 5235W        W21709  13.519  16.921   5.327  0.2343  0.0165  0.0659
 5236W        W21710  17.273   8.233  12.920 -0.2242  0.2329  0.1751
 5237W        W21711   4.632  11.755  11.369 -0.1140  0.2627  0.1142
 5238W        W21712  11.962   2.169   0.258  0.1690 -0.1405 -0.2763
 5239W        W21713  13.661   4.855   1.120 -0.0905 -0.2888  0.1367
 5240W        W21714   7.113  17.824   1.250  0.3382  0.1346 -0.1337
 5241W        W21715  15.872   2.350  11.373  0.4220 -0.1111  0.4686
 5242W        W21716   3.483   1.063   0.213 -0.4564 -0.4872 -0.1864
 5243W        W21717   3.614  16.641   1.481  0.0449  0.2244 -0.1864
 5244W        W21718  16.238   7.297  15.450  0.1041  0.1959 -0.0093
 5245W        W21719  11.945  14.666   2.613 -0.1096  0.1350  0.0638
 5246W        W21720   5.373   2.881  15.623 -0.1064 -0.0330  0.1230
 5247W        W21721  16.240  12.518  11.259  0.0756 -0.1387 -0.0065
 5248W        W21722  15.640   7.181  15.600 -0.0772 -0.0259 -0.1024
 5249W        W21723   6.980  11.503   5.157 -0.1363  0.1361 -0.1194
 5250W        W21724  15.600  16.657   0.750  0.1005  0.0059 -0.0321
 5251W        W21725  15.442  17.972   0.372 -0.1552  0.1140  0.1227
 5252W        W21726   3.747   2.869   1.032 -0.1272 -0.3224 -0.0972
 5253W        W21727   9.462  10.646   0.871 -0.3040  0.1037 -0.1865
 5254W        W21728   4.088  12.566  15.988  0.1907 -0.0263 -0.1708
 5255W        W21729   6.039  15.972  11.329 -0.0562  0.3160 -0.3228
 5256W        W21730  11.410   5.757   3.419 -0.2431 -0.1825  0.0276
 5257W        W21731  13.883   5.943   1.710 -0.0845  0.0358  0.0942
 5258W        W21732  15.890  15.913  13.304  0.2874  0.1409  0.1978
 5259W        W21733   4.608  10.583  15.108 -0.1725  0.1174  0.0748
 5260W        W21734   2.346   5.460   0.149  0.1379 -0.1142 -0.0827
 5261W        W21735   0.522   8.833   1.319 -0.0308 -0.2956  0.1906
 5262W        W21736   0.444   8.916   3.461  0.0876  0.0750 -0.3087
 5263W        W21737   6.503   7.645   1.050  0.0177  0.0328  0.1837
 5264W        W21738  18.000  14.261  12.028 -0.0868 -0.0239  0.1608
 5265W        W21739  10.811  15.269   3.297 -0.0205  0.0056  0.1374
 5266W        W21740   2.076   6.402  14.899  0.2143 -0.0538 -0.0930
 5267W        W21741  15.751  11.408  13.734 -0.0491  0.0681  0.1255
 5268W        W21742  11.151   5.858  12.883  0.0170 -0.0855  0.2531
 5269W        W21743   0.278  16.910   0.711 -0.1457  0.0420 -0.3171
 5270W        W21744  11.973   5.939   2.754  0.2674  0.1561  0.1842
 5271W        W21745  14.077  10.323  13.799  0.3093 -0.0065  0.0965
 5272W        W21746   0.071   5.237  14.018  0.2047  0.0908  0.0648
 5273W        W21747  17.461   4.251  10.558  0.2553 -0.2404 -0.1022
 5274W        W21748   2.487  15.925   3.760 -0.0325  0.3176  0.0237
 5275W        W21749   6.394   9.868  12.452 -0.0822  0.0978  0.1141
 5276W        W21750  12.646   5.596  11.494 -0.0911 -0.1333  0.0016
 5277W        W21751  11.610   7.370   5.078 -0.0863  0.3084  0.1149
 5278W        W21752   1.449  15.156   6.111  0.2305 -0.2056  0.1268
 5279W        W21753   6.978   4.606   5.690 -0.0287 -0.1462  0.0408
 5280W        W21754   4.454   7.437   2.182 -0.0974  0.1718  0.1614
 5281W        W21755   3.921   7.035   3.282 -0.0155  0.0185 -0.0866
 5282W        W21756  16.085  11.236  15.820 -0.0513 -0.1144 -0.1311
 5283W        W21757   7.429  14.393  16.359  0.1725 -0.0625  0.0903
 5284W        W21758   3.046  15.324   4.150 -0.0358  0.2889  0.0416
 5285W        W21759   7.885  14.512   4.998 -0.0654  0.0756 -0.2327
 5286W        W21760   1.341  15.595   4.052  0.1110  0.0072  0.0481
 5287W        W21761   6.948  10.105  14.317 -0.1631  0.1110 -0.0881
 5288W        W21762   4.459  13.302  16.216  0.1887 -0.0867  0.1222
 5289W        W21763   8.901   6.168  13.627  0.0181 -0.1011 -0.1932
 5290W        W21764  11.426  12.784   1.059  0.3845 -0.0239  0.1400
 5291W        W21765  12.616   8.215   2.829 -0.2905 -0.1033 -0.2941
 5292W        W21766   9.305  17.353   5.108 -0.1631 -0.1275 -0.0613
 5293W        W21767  11.488  14.917   1.906 -0.0133  0.1684  0.1569
 5294W        W21768  17.777  10.587  13.485  0.0946  0.0897 -0.1735
 5295W        W21769  15.116  17.884   2.861  0.2267  0.2714  0.0176
 5296W        W21770   5.808   4.171  15.268  0.2414  0.0194 -0.2703
 5297W        W21771  13.209   6.556  16.060  0.3130  0.1670 -0.0443
 5298W        W21772  15.193  11.420  12.779  0.1986  0.0613 -0.1209
 5299W        W21773  17.003   3.361   1.902  0.2070 -0.1765  0.0339
 5300W        W21774  13.675   9.420  15.910 -0.0915 -0.0019  0.2101
 5301W        W21775   8.421   8.682   4.537 -0.1481 -0.3343 -0.0010
 5302W        W21776   3.327  15.460  13.141  0.0104  0.0443 -0.1125
 5303W        W21777  13.193   2.833  12.464 -0.1430 -0.0913 -0.0413
 5304W        W21778   5.233   5.846   2.974  0.1149 -0.2096  0.3054
 5305W        W21779   3.599  16.790   4.349  0.0318  0.1152 -0.1339
 5306W        W21780   6.159   4.701  15.867  0.2717 -0.2559  0.2037
 5307W        W21781   7.092   6.709   1.261  0.1898 -0.0733  0.2567
 5308W        W21782   7.113  14.418  13.236 -0.1969 -0.0150 -0.1756
 5309W        W21783  14.857   5.113   0.050 -0.2691  0.2059  0.1771
 5310W        W21784  16.576   8.413   0.711 -0.3213  0.0864 -0.0972
 5311W        W21785   8.557  15.419  11.568  0.1478 -0.0686  0.0497
 5312W        W21786   2.109  12.443   4.259  0.2189 -0.2757 -0.1114
 5313W        W21787   7.467   1.941   2.658  0.0716 -0.2861  0.1370
 5314W        W21788   1.195   5.329  12.866 -0.1274  0.1639  0.2515
 5315W        W21789  13.825   7.593   2.300  0.4511  0.2919  0.2004
 5316W        W21790   9.093  17.935  16.220 -0.1886 -0.1098 -0.0601
 5317W        W21791  12.223  17.103   4.848 -0.0497 -0.1465 -0.0695
 5318W        W21792  17.960  15.518  15.195 -0.3485 -0.1616 -0.0021
 5319W        W21793   9.150   1.101  14.774 -0.1727 -0.0331  0.3752
 5320W        W21794   2.997   3.431  13.110  0.0196 -0.0986  0.2688
 5321W        W21795  15.392   7.604  14.650  0.2134  0.1873  0.0094
 5322W        W21796   5.321  12.010   5.673 -0.3135  0.4157  0.1866
 5323W        W21797   3.277  16.469   5.250 -0.0530 -0.1783  0.0960
 5324W        W21798   9.228   7.428   0.254 -0.0532  0.0817  0.0042
 5325W        W21799   1.092   4.743   1.744  0.0060 -0.1798  0.0051
 5326W        W21800   6.750   7.765   3.422 -0.0545 -0.0188  0.0677
 5327W        W21801  11.156  14.252   5.079  0.2693  0.1263  0.0578
 5328W        W21802   8.989   9.066  15.802  0.0560  0.1707  0.2064
 5329W        W21803   3.973   0.478  16.021 -0.2023 -0.0411 -0.0155
 5330W        W21804  15.465  18.031  15.028 -0.1497  0.2554 -0.0030
 5331W        W21805  14.561  10.185   1.900 -0.0814 -0.1481  0.1336
 5332W        W21806   2.962  14.548  11.399  0.1134 -0.0144 -0.1154
 5333W        W21807   5.849   7.428  14.718  0.2250 -0.2224 -0.2426
 5334W        W21808   9.816   6.775  11.610 -0.1963  0.2733  0.2075
 5335W        W21809   7.592  11.770  13.527  0.0224 -0.0549 -0.0299
 5336W        W21810  10.720   7.360   3.300  0.3248  0.1979 -0.0966
 5337W        W21811  11.854   5.021   2.849 -0.1364  0.1437  0.0932
 5338W        W21812   7.964   9.064   4.268 -0.0654 -0.1560  0.0884
 5339W        W21813   3.844   2.396  15.417  0.0252 -0.0427 -0.2253
 5340W        W21814   0.243   3.203   0.651 -0.1013  0.0931  0.1925
 5341W        W21815   3.450  11.032  13.603 -0.3050 -0.1793  0.0568
 5342W        W21816  15.220  14.860   3.467 -0.1611 -0.2109  0.0557
 5343W        W21817   9.696   9.561  14.067  0.0025  0.0481  0.1467
 5344W        W21818  12.324  10.992  12.032  0.0573  0.0356  0.1402
 5345W        W21819   0.461   2.798   0.856  0.2024 -0.0475  0.4132
 5346W        W21820   3.359   1.695   4.883  0.0291 -0.2173 -0.0270
 5347W        W21821  17.013   5.206  14.443  0.3090 -0.0618 -0.1342
 5348W        W21822  10.000   3.671  13.068  0.1589 -0.0250 -0.0425
 5349W        W21823   9.045   1.955   5.700  0.3089  0.0215 -0.2188
 5350W        W21824   8.312  15.291  15.470  0.1437  0.0356  0.0214
 5351W        W21825   6.109   0.642   3.544  0.1350  0.0658  0.2272
 5352W        W21826  10.230   1.352   4.821  0.2308 -0.3103 -0.1810
 5353W        W21827   6.173   0.103  15.261 -0.3046 -0.0654 -0.1046
 5354W        W21828  15.433   9.410   6.265 -0.0125 -0.1088 -0.0942
 5355W        W21829  15.932  13.483  13.400 -0.1853 -0.0460 -0.2319
 5356W        W21830  14.549   7.005   5.904  0.4217 -0.0219  0.2922
 5357W        W21831   9.414   3.687   2.118 -0.0563  0.0240  0.0777
 5358W        W21832  14.479  16.371   0.237  0.0573 -0.0111  0.2125
 5359W        W21833   3.488  11.589   1.932 -0.1655  0.0993  0.2280
 5360W        W21834  13.018   8.190  13.219 -0.3222 -0.2791  0.0586
 5361W        W21835   2.258   9.340  12.212 -0.1104 -0.0742  0.0508
 5362W        W21836   8.834   7.249  11.133  0.1870 -0.0308 -0.1048
 5363W        W21837  14.563  14.935  15.723 -0.0400  0.1257  0.2165
 5364W        W21838  14.636  12.550  13.856 -0.3796 -0.2651 -0.1050
 5365W        W21839   8.101   2.255  13.147 -0.1521 -0.0742  0.2926
 5366W        W21840   6.495  17.362   3.377 -0.0723 -0.1958  0.0658
 5367W        W21841  14.720   4.398  13.440 -0.0039 -0.2492  0.1239
 5368W        W21842   9.005   9.367   4.585 -0.2235 -0.0166  0.1096
 5369W        W21843   4.769   2.579  12.735 -0.0571 -0.0042  0.0157
 5370W        W21844  13.373  17.317   0.537 -0.0439  0.0136 -0.1828
 5371W        W21845   0.619  11.832   3.885 -0.2212 -0.3471 -0.3587
 5372W        W21846   9.750   3.175  13.178  0.2586 -0.4936 -0.0230
 5373W        W21847  11.773   3.811   0.829  0.0493 -0.3629 -0.3426
 5374W        W21848  12.743  17.547   4.148 -0.1903  0.0887 -0.5106
 5375W        W21849  13.348   3.525   1.927  0.0636  0.3548 -0.4396
 5376W        W21850  15.464  15.938   1.887  0.1532 -0.0364 -0.1699
 5377W        W21851   0.485  11.390  11.885  0.1638 -0.1760 -0.1499
 5378W        W21852  10.648   5.976  11.998 -0.0118 -0.0174  0.1021
 5379W        W21853   7.566  15.758  14.690 -0.3311  0.2825  0.1938
 5380W        W21854   2.435   3.555   1.634  0.0067 -0.1982  0.1260
 5381W        W21855   5.691   0.189  15.455  0.1783 -0.2321 -0.1526
 5382W        W21856   3.760   8.255   5.679  0.1686 -0.1562 -0.0946
 5383W        W21857  17.127  12.814  14.858 -0.3274 -0.0269  0.3572
 5384W        W21858  17.854  16.659   2.758  0.1069  0.3670 -0.0963
 5385W        W21859   0.778   9.789   5.155  0.0630  0.0015  0.2328
 5386W        W21860   7.674  11.608   4.309  0.1644 -0.0775 -0.0269
 5387W        W21861  12.670  12.478   5.739 -0.1105  0.0009 -0.0368
 5388W        W21862   6.694  16.195   1.460  0.1036 -0.2710  0.1500
 5389W        W21863   9.317   6.293  11.947  0.1875 -0.0798  0.1619
 5390W        W21864   2.696  10.929   4.839 -0.2467 -0.0908  0.1313
 5391W        W21865  15.577  16.454  13.960 -0.0050 -0.0353 -0.0274
 5392W        W21866  15.423  10.401  15.547  0.1866 -0.1658 -0.1432
 5393W        W21867   8.201  16.564   4.713  0.2707  0.0881  0.2821
 5394W        W21868   8.029   3.929  11.688 -0.1647 -0.2533 -0.1548
 5395W        W21869   4.832  10.058   4.977  0.2071 -0.0837 -0.4039
 5396W        W21870  16.608  13.761  14.171  0.0188  0.2425  0.0627
 5397W        W21871  17.056  10.209  13.927  0.2373  0.1480  0.4089
 5398W        W21872  14.779   6.868   1.580  0.3055  0.0042 -0.1528
 5399W        W21873   1.234   8.705   5.651  0.0495 -0.1719 -0.0806
 5400W        W21874  14.314  14.305  11.946 -0.1271 -0.1657 -0.1053
 5401W        W21875  16.398   6.343   1.282  0.1723 -0.1036  0.0578
 5402W        W21876  11.298  10.622  13.388 -0.0403 -0.2272  0.3061
 5403W        W21877   8.670   1.805  14.074  0.0282 -0.0280 -0.3300
 5404W        W21878   8.462   8.447  14.314  0.0037 -0.0435 -0.1988
 5405W        W21879   1.668   5.507   2.789 -0.1407  0.1567  0.1075
 5406W        W21880  10.476   7.162   0.209  0.0961  0.2863  0.3818
 5407W        W21881  14.648  17.124   3.130 -0.1655 -0.0610 -0.0100
 5408W        W21882   0.062   1.079  11.710  0.0542 -0.0558 -0.1132
 5409W        W21883   8.467  16.152   4.378 -0.1929 -0.1361 -0.2140
 5410W        W21884   6.767  10.811   1.228 -0.0665 -0.2122  0.3460
 5411W        W21885  14.184  10.174  11.442  0.1348 -0.2508  0.2681
 5412W        W21886  11.420  12.208  15.851 -0.3605 -0.1377  0.0783
 5413W        W21887  13.560   5.626  13.190 -0.0502 -0.1864  0.0453
 5414W        W21888   8.242   1.709  13.823  0.1795 -0.2442 -0.1576
 5415W        W21889  12.431   0.090  16.274  0.0557  0.3832 -0.2713
 5416W        W21890   1.214  13.193  11.310  0.0119  0.0552 -0.0207
 5417W        W21891   2.081   1.721  11.746  0.2734  0.1797  0.0795
 5418W        W21892   8.543  15.652   1.341 -0.0617 -0.0017 -0.0016
 5419W        W21893   6.136   8.832  13.229  0.2748  0.0256  0.0789
 5420W        W21894   1.006   4.695   3.537 -0.3549  0.1780  0.0540
 5421W        W21895   7.809   2.596   6.009 -0.4129 -0.0454 -0.1135
 5422W        W21896  16.353  17.735   5.501 -0.2455  0.2425  0.1667
 5423W        W21897   7.790  13.186  14.854 -0.1433  0.1357 -0.0398
 5424W        W21898   6.822   9.946   2.525 -0.0075  0.1702  0.3170
 5425W        W21899   0.603   5.261   5.516  0.1004 -0.0320 -0.0623
 5426W        W21900   6.997   8.676  15.360  0.1482 -0.2240  0.1309
 5427W        W21901  13.506   3.164   2.286 -0.3095 -0.0266  0.2101
 5428W        W21902   8.882   7.890  14.859  0.0015  0.0129  0.0725
 5429W        W21903  12.347   3.532  15.944 -0.1536 -0.1589  0.3157
 5430W        W21904   6.614   4.672  11.192 -0.2673  0.0454 -0.1652
 5431W        W21905  13.089   5.990  13.927 -0.0101  0.0267  0.0295
 5432W        W21906   7.895   8.466   5.306 -0.0393  0.2730  0.1911
 5433W        W21907   0.527   7.472  14.442 -0.0759 -0.0084 -0.0210
 5434W        W21908   9.733  17.731  12.368 -0.1452  0.0698 -0.2202
 5435W        W21909   6.060   7.341  16.221  0.0798 -0.1538  0.0068
 5436W        W21910   6.354   0.462  14.686  0.0548  0.0295 -0.0207
 5437W        W21911  16.888   9.233   2.560 -0.2881 -0.0376 -0.0078
 5438W        W21912   5.515   3.941  15.656 -0.2961 -0.2481 -0.1069
 5439W        W21913   5.393  17.099   2.943  0.2812  0.0582 -0.0598
 5440W        W21914   5.866  15.464  11.998  0.1419  0.1242 -0.2235
 5441W        W21915   1.634   1.957   1.410 -0.1253 -0.0920  0.0325
 5442W        W21916   7.671   0.421   0.273  0.1880  0.0105  0.1150
 5443W        W21917   5.430   4.239   5.896 -0.2374 -0.0615  0.0021
 5444W        W21918  11.661   1.522  14.869  0.1197 -0.0948 -0.1567
 5445W        W21919  10.532  10.585  11.421  0.0775  0.0104  0.1787
 5446W        W21920  12.732   5.686  12.768 -0.1226  0.2633 -0.0163
 5447W        W21921   8.085   2.829  16.134  0.0711 -0.0941 -0.0509
 5448W        W21922   8.474  14.307  14.383 -0.1049 -0.0499 -0.1023
 5449W        W21923   2.403  12.066   2.204  0.3642 -0.0436  0.0471
 5450W        W21924  14.518  16.050  12.823  0.4068 -0.0485 -0.0001
 5451W        W21925   0.303   0.102  14.435 -0.1914 -0.0252 -0.0575
 5452W        W21926  14.323  16.327  15.725  0.1507  0.0666  0.2060
 5453W        W21927   2.182   5.881   2.565  0.0775 -0.3531  0.0735
 5454W        W21928  17.360   8.634   0.586  0.0480  0.2327 -0.4421
 5455W        W21929   5.334   6.107   3.422 -0.0924  0.0250  0.1846
 5456W        W21930   8.178   0.687   5.223 -0.1681 -0.0043  0.0251
 5457W        W21931   2.497   4.933  11.377 -0.3082  0.3664  0.1438
 5458W        W21932   4.122   3.501  13.343  0.0166 -0.2190  0.0371
 5459W        W21933   8.726   4.230   4.924  0.0402  0.0823  0.3592
 5460W        W21934   3.185   6.462  13.384  0.0228 -0.0341  0.0254
 5461W        W21935  17.309   1.353  11.342 -0.1361 -0.1090  0.1812
 5462W        W21936  17.056   0.484  14.221 -0.2160  0.2657  0.0078
 5463W        W21937   8.822  17.635   0.197  0.1085  0.2136  0.4346
 5464W        W21938   0.635   4.636   0.367  0.0246  0.1585 -0.0299
 5465W        W21939  16.311   7.739  14.464 -0.1936 -0.2997  0.0745
 5466W        W21940   6.792  17.070  14.353  0.0276 -0.2804  0.0511
 5467W        W21941  18.125   4.299   0.827 -0.4578 -0.1032  0.2372
 5468W        W21942  11.458  10.169   5.179 -0.0229  0.0039 -0.0018
 5469W        W21943  15.516   4.095  11.156 -0.1769  0.0457 -0.0245
 5470W        W21944  16.427  15.683   2.563  0.3571  0.1675 -0.0988
 5471W        W21945  15.318  17.073   0.869 -0.2083 -0.0192  0.0699
 5472W        W21946  18.082   7.767  11.561 -0.2623 -0.0281 -0.3148
 5473W        W21947  17.482  15.896   2.869  0.2066  0.2315 -0.0123
 5474W        W21948   0.794  14.764   3.560  0.0374 -0.1169 -0.0225
 5475W        W21949   5.932  11.600   1.856 -0.0793 -0.1695  0.0556
 5476W        W21950   5.113  13.161   2.529 -0.0088  0.2922  0.0496
 5477W        W21951   9.104   4.566   3.772 -0.2774  0.2268 -0.2507
 5478W        W21952  16.950   2.792   5.047  0.0329  0.1938 -0.2205
 5479W        W21953  12.334  13.785   3.145  0.0051  0.4383  0.3312
 5480W        W21954   2.982   8.561  11.415 -0.1243  0.0550  0.0563
 5481W        W21955  12.137   7.207  11.482 -0.0286  0.0707  0.2289
 5482W        W21956  15.726  17.690  14.212 -0.2182 -0.0027 -0.0045
 5483W        W21957   9.618  15.099  11.423  0.1693  0.1549 -0.3611
 5484W        W21958   7.338  17.832   3.869 -0.2556  0.0838 -0.2216
 5485W        W21959   3.659   2.008  14.298 -0.0398 -0.1521  0.3766
 5486W        W21960   2.765   4.078  12.001 -0.1701 -0.0844  0.2225
 5487W        W21961  17.261  18.022   5.049  0.0092 -0.2942  0.0073
 5488W        W21962  15.892   7.722   5.165  0.3352 -0.0361 -0.1649
 5489W        W21963   3.206   6.558  12.109  0.4911  0.3548 -0.0776
 5490W        W21964   7.712  11.486   2.415  0.1350  0.2642  0.0533
 5491W        W21965   1.980   9.047   3.259 -0.1115 -0.1335  0.1845
 5492W        W21966   6.463   6.228  10.708  0.3387  0.0703  0.0856
 5493W        W21967   5.552  11.210   3.634 -0.1748 -0.1619 -0.2126
 5494W        W21968  16.221   2.967   0.967 -0.0939  0.0678 -0.2896
 5495W        W21969   6.651  17.405   1.878  0.0144 -0.3403  0.2122
 5496W        W21970   7.768  17.862  14.959 -0.0380  0.3564  0.0590
 5497W        W21971   5.668   5.894   5.083 -0.3346  0.3478 -0.1887
 5498W        W21972  16.619   3.484  12.911 -0.0199 -0.0492  0.0633
 5499W        W21973   8.974   7.504   1.648 -0.1503  0.0827 -0.0445
 5500W        W21974   5.368  12.138   0.784  0.2968  0.1991 -0.0168
 5501W        W21975   0.824   6.143   2.682  0.2233 -0.0133 -0.1849
 5502W        W21976   8.983  11.257  13.544  0.0617  0.1530  0.2820
 5503W        W21977   6.042  16.511   0.948 -0.2238  0.1474 -0.0073
 5504W        W21978   7.632   9.623   0.246 -0.0430  0.0850  0.1522
 5505W        W21979  10.026  12.246  13.489 -0.3204  0.1909  0.3340
 5506W        W21980   7.773   0.638   4.476  0.0224  0.0100  0.1229
 5507W        W21981  11.276   3.245   1.710 -0.2617  0.2207 -0.0105
 5508W        W21982   6.321   0.807  15.152  0.0728  0.2308  0.1570
 5509W        W21983  17.824   9.242   3.852  0.0497 -0.0074 -0.0470
 5510W        W21984   3.244  13.384  15.708 -0.1875  0.1440  0.0194
 5511W        W21985  16.543   5.777  16.102  0.1499  0.0379  0.1980
 5512W        W21986  15.731   7.140   2.564 -0.0701  0.0512  0.0934
 5513W        W21987  13.741   3.038   4.800  0.0205 -0.1782 -0.0523
 5514W        W21988   8.925   9.286  14.812 -0.3067 -0.0595  0.0310
 5515W        W21989  13.709   9.884   6.467  0.2213  0.1715 -0.1205
 5516W        W21990   4.370   3.183  14.804  0.0523 -0.1710  0.0621
 5517W        W21991   4.389  13.085   5.360 -0.1206  0.1870 -0.0725
 5518W        W21992  10.872   5.706   3.502 -0.2019  0.0782 -0.1399
 5519W        W21993  15.264  17.632   4.201  0.1314  0.1394  0.1471
 5520W        W21994   9.801   9.397   2.094 -0.0048 -0.0726 -0.1605
 5521W        W21995   0.917  17.561  12.978 -0.1962 -0.1029  0.0708
 5522W        W21996   1.228   9.748   0.956  0.0856  0.2043 -0.1046
 5523W        W21997   7.653   7.362  14.265 -0.0343 -0.0020 -0.1888
 5524W        W21998   4.810  16.611  14.121 -0.0402 -0.2315  0.2296
 5525W        W21999   4.784  12.416   2.333 -0.2989 -0.0667  0.1719
 5526W        W22000   3.669  10.608   5.252  0.2650 -0.0163 -0.0654
 5527W        W22001  17.262  15.947  15.993  0.0435  0.2152  0.0181
 5528W        W22002   4.695  16.220  11.665 -0.1074  0.1732  0.1048
 5529W        W22003  17.721   7.061   2.083 -0.0636  0.0014 -0.0817
 5530W        W22004   5.974   3.394   1.512 -0.0841 -0.1490 -0.0710
 5531W        W22005  17.189  12.083  12.823 -0.0895  0.1226 -0.0314
 5532W        W22006   4.643  13.336   0.863  0.0375  0.2916 -0.1201
 5533W        W22007   1.506   8.575   1.425  0.1685  0.1015  0.2196
 5534W        W22008  10.233   8.485   3.928  0.0426  0.2641 -0.2602
 5535W        W22009   1.999  14.341  12.878  0.0430 -0.1579  0.2736
 5536W        W22010   3.262  15.915   3.433  0.0995  0.1897  0.1351
 5537W        W22011   9.616   7.028  15.770 -0.0941 -0.3200  0.3022
 5538W        W22012   6.115  15.575   2.038 -0.0855 -0.0333  0.1018
 5539W        W22013  10.734   8.642  12.625  0.0635 -0.1834  0.0202
 5540W        W22014   2.025   3.844   3.854  0.2824 -0.0940  0.0950
 5541W        W22015  14.082   7.207   2.093  0.1138 -0.0465  0.2482
 5542W        W22016  10.840  13.509   3.883  0.0513  0.2289 -0.2085
 5543W        W22017  17.488  11.848   2.138 -0.0266 -0.2676  0.2478
 5544W        W22018   4.755  17.889   3.585 -0.0034  0.0616 -0.1016
 5545W        W22019   6.144  18.179  12.853 -0.3636 -0.2570 -0.3902
 5546W        W22020   4.845   9.037   1.175 -0.0667 -0.2772 -0.3713
 5547W        W22021   0.065   0.781   4.963 -0.1353 -0.1004  0.0402
 5548W        W22022   0.329  17.713  15.574 -0.0077 -0.1809  0.0112
 5549W        W22023  18.156  14.346  14.467  0.0857 -0.0297 -0.0899
 5550W        W22024  15.043   1.858   4.800 -0.0206  0.0037  0.0516
 5551W        W22025  13.101  10.646  14.753 -0.0051 -0.1976 -0.1084
 5552W        W22026   0.554   1.280   2.950 -0.1324 -0.0091  0.2145
 5553W        W22027   1.629  10.621   0.844 -0.1324  0.0453  0.0090
 5554W        W22028  17.586  11.793  13.505  0.2782 -0.0053  0.3304
 5555W        W22029   4.246  10.726   0.578 -0.0069  0.2560 -0.2445
 5556W        W22030  14.284   8.039   4.019  0.1899  0.3333  0.4579
 5557W        W22031   1.766   9.289   0.235  0.2785 -0.0223  0.0946
 5558W        W22032  15.731  14.933  13.769  0.1230 -0.1911 -0.2590
 5559W        W22033  13.975  16.836  10.780  0.0263 -0.1614  0.3048
 5560W        W22034  15.684   6.036   0.871  0.0555 -0.4806  0.1195
 5561W        W22035   5.595   8.064   3.147  0.0747  0.2683  0.1304
 5562W        W22036   4.347   0.755   1.770 -0.2702 -0.0692 -0.2299
 5563W        W22037  14.153   9.172  12.931 -0.1054 -0.0394 -0.1176
 5564W        W22038  14.484   8.631   2.159 -0.1205 -0.1458  0.0242
 5565W        W22039  15.504   5.132  13.193 -0.3989  0.4000 -0.0865
 5566W        W22040  16.820   3.167   2.464 -0.5164 -0.1798 -0.0154
 5567W        W22041  11.862  13.815   1.380  0.2845  0.2711 -0.2888
 5568W        W22042   2.194  14.004   3.342  0.3560 -0.1020 -0.3922
 5569W        W22043   4.006   2.690  14.888  0.0411  0.0819 -0.1919
 5570W        W22044   4.113   9.938   0.312 -0.0152 -0.0803  0.0689
 5571W        W22045   2.756  10.303  14.280  0.1494  0.2682 -0.0143
 5572W        W22046  15.325   1.376   4.849 -0.0452  0.1813  0.2060
 5573W        W22047  14.308  11.023   5.587 -0.0451  0.1220 -0.1542
 5574W        W22048   6.509   7.607  15.993 -0.0716 -0.0193 -0.1587
 5575W        W22049  17.575   2.524   2.953  0.0329  0.1448 -0.1494
 5576W        W22050   4.992  16.695   3.285 -0.0162 -0.1069  0.2808
 5577W        W22051  16.955   2.315  11.956 -0.1081 -0.1883  0.0815
 5578W        W22052  11.274   5.917  12.399 -0.1481 -0.2019 -0.2683
 5579W        W22053  15.475   1.987   0.474 -0.0671 -0.0195 -0.2633
 5580W        W22054  13.237   9.248  11.533  0.3246 -0.0397 -0.1535
 5581W        W22055  13.973   2.573  12.584 -0.2738 -0.0341 -0.1085
 5582W        W22056   8.642  18.139   5.815 -0.2560 -0.2775 -0.0595
 5583W        W22057   5.478  18.106  15.870  0.4900  0.3404 -0.3177
 5584W        W22058   5.554  13.850  14.585  0.0644  0.2381 -0.1354
 5585W        W22059  17.212   4.491  13.470  0.1029 -0.2385 -0.1885
 5586W        W22060   2.847   1.770   2.448 -0.0301  0.0617 -0.1322
 5587W        W22061   9.123  11.832  14.928  0.0796 -0.1629  0.1883
 5588W        W22062  14.748  11.127  12.813  0.1968  0.1501  0.0160
 5589W        W22063   7.318   3.813  15.575  0.0832 -0.1685 -0.0892
 5590W        W22064   9.313   7.427  13.291  0.2161 -0.1786  0.0857
 5591W        W22065   7.076  16.069   3.426 -0.0659 -0.0631  0.2443
 5592W        W22066  14.912   3.616   4.253  0.0557 -0.1852  0.3636
 5593W        W22067   3.333   2.376  14.214  0.1655  0.0778  0.2796
 5594W        W22068  13.940  16.559  15.934 -0.2002 -0.0684  0.2307
 5595W        W22069  10.029   5.021  12.134 -0.0570  0.0021  0.0650
 5596W        W22070   8.250  11.069  13.215 -0.0133 -0.1486 -0.1611
 5597W        W22071   5.166   6.501   5.426  0.0554  0.2130 -0.0992
 5598W        W22072  13.886   8.612   5.283  0.2628 -0.0581 -0.2003
 5599W        W22073   9.343  12.894  15.985 -0.1847 -0.0847 -0.1011
 5600W        W22074   4.023   2.647  13.635 -0.2001 -0.0190  0.2157
 5601W        W22075   0.405   8.443   3.270  0.1278 -0.2254 -0.1593
 5602W        W22076   4.227   8.133   5.076  0.1497  0.1556  0.1677
 5603W        W22077  17.078   1.234  14.922 -0.0845 -0.0467 -0.0694
 5604W        W22078  14.610   6.537  13.487  0.0372  0.0376  0.1730
 5605W        W22079  16.387  14.889   0.488  0.0318  0.0935 -0.2854
 5606W        W22080   9.533   9.480   4.407 -0.0681  0.1576 -0.0182
 5607W        W22081   2.390  13.971  11.154  0.2919 -0.1104  0.1350
 5608W        W22082  12.740  13.596  13.386 -0.3157 -0.1997  0.0863
 5609W        W22083   8.231  14.639   6.126  0.1172 -0.1106 -0.1001
 5610W        W22084   5.261  18.095   0.996 -0.0218  0.3306 -0.0609
 5611W        W22085  15.878  15.763  11.773  0.0276  0.1062  0.0716
 5612W        W22086  12.837   2.729   1.120 -0.0893 -0.4481 -0.1980
 5613W        W22087   0.772  14.376   0.714 -0.1022  0.1669 -0.1453
 5614W        W22088   0.224   2.553  13.984  0.0233 -0.0312 -0.1646
 5615W        W22089   3.343   2.832  11.368 -0.0769 -0.2345 -0.0531
 5616W        W22090   1.803   9.868  13.403  0.2534 -0.0027 -0.1653
 5617W        W22091   6.103   3.430   3.709 -0.1154  0.1220  0.0827
 5618W        W22092   7.545  13.634  14.964 -0.2451  0.1023 -0.1398
 5619W        W22093   3.446   3.101  14.915  0.1833 -0.0834 -0.0711
 5620W        W22094   9.472   1.910  11.834 -0.0487  0.1568  0.5038
 5621W        W22095  12.324   0.260  11.783 -0.0265 -0.0521 -0.0966
 5622W        W22096  12.984  15.842   1.213 -0.1138 -0.2538 -0.2405
 5623W        W22097   2.982  12.365  16.224 -0.1979  0.1088 -0.2070
 5624W        W22098   5.858   1.533  15.262 -0.1640  0.1627 -0.0386
 5625W        W22099  11.288   6.723  15.220 -0.1318 -0.1826 -0.2439
 5626W        W22100   2.558   5.067  13.868 -0.2919 -0.0755  0.0554
 5627W        W22101  17.402  13.250   5.865  0.0721  0.0798  0.5581
 5628W        W22102   6.204  12.859  12.648  0.0698  0.3827  0.1303
 5629W        W22103  13.109  16.531   0.039  0.0320  0.1040  0.0412
 5630W        W22104  12.905   9.333   3.783  0.1371  0.2105 -0.4306
 5631W        W22105  12.315   6.413   1.892 -0.1094 -0.2141 -0.2171
 5632W        W22106  16.874   4.860  16.078 -0.3609  0.1119  0.1729
 5633W        W22107   3.313   0.770  12.991  0.1523  0.1158 -0.2177
 5634W        W22108  13.447  16.542  14.693  0.1094  0.1325  0.0133
 5635W        W22109   2.944  13.835  12.053  0.1576 -0.4150  0.0317
 5636W        W22110   6.418  14.076  13.973  0.1213 -0.0436  0.0144
 5637W        W22111   6.293   8.720   0.587 -0.0398 -0.0566  0.0823
 5638W        W22112   4.629   5.090   0.323  0.2094 -0.2636  0.0110
 5639W        W22113   6.957  17.886  15.828  0.0288 -0.3119 -0.0243
 5640W        W22114  14.271  16.835   1.516 -0.1616 -0.2757  0.0508
 5641W        W22115  16.982  11.820   3.019 -0.1410 -0.0772  0.0159
 5642W        W22116   5.169  17.678  14.531  0.1918  0.1446 -0.0919
 5643W        W22117   7.425  12.985  15.257  0.2268  0.1268  0.0386
 5644W        W22118   7.057  11.416   0.689 -0.1638 -0.1540  0.1091
 5645W        W22119   4.371  17.216  11.080 -0.0467 -0.1577 -0.0462
 5646W        W22120  11.555   4.334   2.464  0.0778 -0.1512  0.1861
 5647W        W22121  13.118   0.692  12.316  0.4016  0.1397  0.1663
 5648W        W22122  18.134  15.634   2.185 -0.0011  0.1930 -0.0160
 5649W        W22123  10.661   2.034   3.532 -0.0862 -0.3528 -0.2043
 5650W        W22124  16.350  11.825   4.881 -0.0268 -0.0727 -0.0111
 5651W        W22125  15.063  12.599  13.574 -0.0394  0.0268  0.1063
 5652W        W22126  10.336  11.585   3.731  0.0350 -0.0563 -0.1043
 5653W        W22127   2.403   6.753  11.480  0.0567  0.1450  0.0580
 5654W        W22128   0.146   1.602   2.513  0.0826 -0.1968  0.3911
 5655W        W22129  10.925   9.522   1.084  0.2841  0.1101  0.0290
 5656W        W22130  16.572  17.426   3.183  0.1535  0.1325 -0.3788
 5657W        W22131   7.377  12.160   3.061  0.3741  0.1661  0.1108
 5658W        W22132  13.896  15.114  11.822 -0.1794 -0.3384  0.3117
 5659W        W22133  15.055   5.491   0.663 -0.0575  0.2709  0.2238
 5660W        W22134  15.089   1.681  15.450 -0.0820 -0.0010 -0.0651
 5661W        W22135  17.126  18.031   3.598 -0.1752  0.5256  0.0018
 5662W        W22136   8.375  12.769  13.675  0.0499  0.2061  0.1055
 5663W        W22137   2.179  12.049   3.084 -0.2837 -0.0812  0.3232
 5664W        W22138  13.871   8.994  16.088  0.2942  0.0298 -0.1785
 5665W        W22139   2.110  11.006  13.137  0.0216 -0.0464  0.0340
 5666W        W22140  18.081   8.649  16.155  0.0239 -0.1836  0.1598
 5667W        W22141   5.006   3.569  11.900  0.1239 -0.1796 -0.1052
 5668W        W22142   5.490   4.939  12.452  0.0971  0.0113  0.0338
 5669W        W22143  15.878   1.718  12.414  0.3013  0.0730  0.0285
 5670W        W22144   8.034   8.499   4.709 -0.0865  0.1236 -0.0880
 5671W        W22145   2.182  15.169  15.457  0.0887  0.0516 -0.5735
 5672W        W22146  18.036  16.713   1.663 -0.0109  0.0260 -0.2284
 5673W        W22147   7.694  15.941   5.774  0.3014 -0.2179 -0.2652
 5674W        W22148  12.464  13.029   1.940 -0.0181  0.1659 -0.2597
 5675W        W22149  15.069   4.142   1.539 -0.2939  0.0562 -0.1703
 5676W        W22150  13.748   8.423  14.020  0.0620 -0.0616 -0.0538
 5677W        W22151  15.793   2.453  13.789 -0.4122  0.0719 -0.1654
 5678W        W22152  11.147   9.972   3.263 -0.1667  0.1566  0.0218
 5679W        W22153   8.783   5.982  10.716 -0.0939 -0.0217  0.0189
 5680W        W22154   4.456  14.281   0.990  0.4155 -0.2140  0.5779
 5681W        W22155  12.192   5.147   0.101 -0.1515 -0.1568  0.0273
 5682W        W22156  18.011  18.022  16.176  0.2696  0.1654 -0.0784
 5683W        W22157  15.598   1.405  13.227  0.3297  0.2386  0.3498
 5684W        W22158  12.526   8.110   1.992 -0.1643 -0.0365  0.3212
 5685W        W22159   5.457  16.180   4.881  0.0035  0.0026 -0.1167
 5686W        W22160  15.673   9.849  13.766 -0.1323  0.0238  0.1279
 5687W        W22161  11.037  15.892   0.149 -0.0503 -0.1016  0.1391
 5688W        W22162   5.385  14.144  14.908 -0.0507  0.1926 -0.3566
 5689W        W22163   5.867   3.911   2.520  0.3478 -0.1343  0.1910
 5690W        W22164   1.771  18.098   4.700 -0.0981  0.1707  0.2094
 5691W        W22165   7.185  10.618   5.230  0.0799 -0.0675 -0.2712
 5692W        W22166  12.540   1.766  14.165 -0.0367 -0.1096 -0.0725
 5693W        W22167  16.027   6.937  12.575  0.0452 -0.3209  0.2091
 5694W        W22168  10.402   7.688  11.839 -0.0023 -0.2375 -0.2860
 5695W        W22169   5.684   8.888   1.265 -0.0362  0.2094  0.2178
 5696W        W22170   4.149   7.224   4.533  0.0238 -0.0325 -0.1987
 5697W        W22171   3.702  10.806  14.548  0.1167  0.0307  0.2456
 5698W        W22172   8.352  10.304   0.429  0.0431  0.1138  0.0870
 5699W        W22173  18.177  11.524  11.755 -0.0604 -0.0703  0.0083
 5700W        W22174   5.035  13.660   5.160  0.0561  0.1030  0.1824
 5701W        W22175  16.869   1.974  11.562 -0.1460  0.0588  0.0604
 5702W        W22176   6.995   1.531   4.245 -0.3176 -0.0863  0.2273
 5703W        W22177   8.194   9.055   4.780  0.1745  0.0725  0.0467
 5704W        W22178   0.428  10.171  12.547 -0.0289 -0.0663 -0.0005
 5705W        W22179   6.121   9.996   0.226  0.2978  0.1030 -0.1078
 5706W        W22180  18.071   3.144  13.960  0.2072  0.1196 -0.1919
 5707W        W22181   1.631   0.144  15.374 -0.2190 -0.1406 -0.1866
 5708W        W22182   1.663  11.208  15.409  0.0347  0.1698 -0.0452
 5709W        W22183   5.103   2.371  13.719 -0.1757  0.0181 -0.3347
 5710W        W22184   5.073  12.868   1.704  0.1408 -0.0199  0.0570
 5711W        W22185   6.873  11.423   1.736 -0.2222  0.1661  0.0534
 5712W        W22186  12.726   0.438   5.177 -0.1078  0.2317  0.0813
 5713W        W22187   4.339  11.122   1.515 -0.1947  0.0415  0.0921
 5714W        W22188  17.906  15.961   0.582 -0.1439 -0.2320  0.0444
 5715W        W22189   4.177   9.116  14.891  0.2852 -0.1775 -0.1594
 5716W        W22190   1.679  12.776   1.972  0.1407  0.0853  0.1833
 5717W        W22191  14.915   0.537   3.867 -0.0318  0.2296  0.0245
 5718W        W22192   1.311   6.225  14.484  0.2910 -0.0010 -0.2231
 5719W        W22193   8.196   8.021  15.380 -0.1384 -0.3017 -0.2059
 5720W        W22194   2.780   1.967   0.090  0.0005  0.0641  0.2740
 5721W        W22195  13.940  17.578  13.834  0.2768 -0.0762 -0.3761
 5722W        W22196  11.684  11.173   4.274  0.2913  0.2165  0.0517
 5723W        W22197   2.577   8.845   5.453  0.0128  0.0952 -0.0873
 5724W        W22198   8.615   2.477  12.455 -0.1079  0.1049  0.0586
 5725W        W22199  12.303  12.193   1.725  0.1598 -0.0330  0.0934
 5726W        W22200   1.730  10.637  12.813  0.1276  0.1722 -0.0429
 5727W        W22201  16.060   1.407  13.360 -0.1383 -0.0590  0.1389
 5728W        W22202   4.796  15.559   4.627  0.3106 -0.3149  0.0322
 5729W        W22203   7.681  11.748  11.508 -0.0410 -0.0934 -0.1396
 5730W        W22204   5.014  13.803  12.022  0.2395 -0.4691  0.1532
 5731W        W22205   0.561   2.184   4.002 -0.2125 -0.1708 -0.0632
 5732W        W22206   0.613  16.900   5.283 -0.2122 -0.1141 -0.1644
 5733W        W22207   8.602   7.770   1.869  0.0184  0.0623 -0.0118
 5734W        W22208  13.474   5.585  14.550  0.1913  0.0654  0.1045
 5735W        W22209   6.187  11.788   3.291  0.0734  0.0416  0.0526
 5736W        W22210   9.446  10.952   5.550 -0.3189 -0.0513 -0.0449
 5737W        W22211   3.098   9.703   4.616 -0.0878  0.0285  0.2066
 5738W        W22212  11.237   6.592   3.543  0.1113  0.1007  0.2123
 5739W        W22213  11.340   5.118   2.172 -0.3283  0.0206 -0.2051
 5740W        W22214   6.760   5.263  15.694 -0.2516 -0.2074 -0.1368
 5741W        W22215   0.598   2.763   4.937 -0.1452 -0.1097  0.0168
 5742W        W22216   9.034   2.877  11.989  0.1413 -0.1376 -0.3447
 5743W        W22217   0.714  11.108  11.518  0.0599  0.3186  0.0214
 5744W        W22218  16.785  11.742  11.396  0.2156  0.2450 -0.0579
 5745W        W22219   2.996  13.867   4.371  0.1307  0.1102  0.3452
 5746W        W22220   6.849  12.232  14.747 -0.0459 -0.0939 -0.0164
 5747W        W22221  14.413   1.013  12.209  0.1442 -0.0154 -0.1178
 5748W        W22222   1.110  15.569   3.444 -0.4857  0.2601 -0.0592
 5749W        W22223  10.708  14.394   0.096 -0.0611 -0.1266  0.2734
 5750W        W22224   2.989   5.382  12.928  0.3701 -0.2070  0.0957
 5751W        W22225   1.480   7.282  11.397 -0.0872 -0.2610  0.0377
 5752W        W22226   5.263   4.527   4.321 -0.2888  0.0605 -0.0389
 5753W        W22227  10.048   3.805   3.045  0.2470  0.2189  0.0559
 5754W        W22228  12.604  14.931   3.746 -0.1891  0.3364  0.2611
 5755W        W22229   7.390   7.368  12.822  0.1778  0.1861 -0.1523
 5756W        W22230   9.575   8.040   3.515  0.0983  0.1495  0.3398
 5757W        W22231  16.819   0.738  16.109 -0.3634  0.0297  0.0693
 5758W        W22232  13.760   0.830  12.904 -0.2335  0.1723 -0.0694
 5759W        W22233   7.626  15.748   4.206 -0.0031 -0.1623  0.0535
 5760W        W22234  16.713   0.089  15.901  0.0767 -0.1735  0.1844
 5761W        W22235   7.760  14.895  15.878 -0.0841  0.4259 -0.2194
 5762W        W22236  10.882  17.934   0.984  0.0666 -0.3020  0.0213
 5763W        W22237   7.567   7.552   1.158  0.0633  0.0646  0.0132
 5764W        W22238  16.790   3.236  11.663  0.0845  0.0792 -0.3275
 5765W        W22239  10.989   7.037   2.338 -0.0512 -0.0638  0.0543
 5766W        W22240  15.280   6.346   1.094  0.0460  0.0206 -0.2275
 5767W        W22241  16.521  15.297   5.880  0.1928  0.1730 -0.4137
 5768W        W22242   4.834  10.007  12.084 -0.1040 -0.0342  0.0564
 5769W        W22243   5.397   4.246  10.459 -0.1002 -0.0744  0.0224
 5770W        W22244  16.733  10.470   0.340 -0.1973 -0.1200  0.3137
 5771W        W22245   3.214   5.987  11.405 -0.1915 -0.0184  0.0108
 5772W        W22246   9.161  13.643   0.160 -0.4864  0.2788 -0.1886
 5773W        W22247  15.951   4.035   2.840 -0.1297  0.2163 -0.1291
 5774W        W22248   4.906  14.079   0.922 -0.0722 -0.0215 -0.0482
 5775W        W22249   7.787  12.128   4.341 -0.1651  0.4095 -0.1037
 5776W        W22250   6.479   6.795   4.357  0.2498  0.2715 -0.2892
 5777W        W22251  11.288   3.027   3.121  0.0854 -0.2901 -0.0186
 5778W        W22252   9.398  16.567   5.533 -0.1885 -0.2647 -0.0563
 5779W        W22253  14.543   8.916  12.529  0.1906 -0.2724 -0.0428
 5780W        W22254   8.855   6.550  12.000 -0.4289  0.2613  0.1405
 5781W        W22255   2.316   5.851   1.388 -0.0253  0.2286 -0.1666
 5782W        W22256   6.440  13.467   2.376 -0.0750  0.3066 -0.2498
 5783W        W22257  12.668  15.614  15.279  0.0732  0.2576  0.0158
 5784W        W22258  13.971  15.166  14.876 -0.3854  0.1740  0.2162
 5785W        W22259  18.140  18.021  12.075 -0.1173 -0.2551  0.1991
 5786W        W22260   2.510  15.621  15.529 -0.0479 -0.0936 -0.0062
 5787W        W22261   2.220   2.652   5.464 -0.2426  0.0347  0.0113
 5788W        W22262  12.929  12.239   2.945 -0.1312 -0.0037 -0.1165
 5789W        W22263  17.656  15.515   1.479  0.1417  0.0621  0.0244
 5790W        W22264   0.193  17.825   2.505 -0.1331 -0.0874  0.1470
 5791W        W22265  13.342  16.366  13.434 -0.1187 -0.0608 -0.0911
 5792W        W22266   4.297   2.714  14.493 -0.1636  0.1122 -0.1267
 5793W        W22267   6.893   5.290  13.788  0.1529 -0.0364  0.0001
 5794W        W22268  17.395  14.423   5.144  0.1075 -0.0872  0.0667
 5795W        W22269   8.992   1.922  13.610 -0.2092  0.3335 -0.2102
 5796W        W22270   3.496  11.335   6.064 -0.0499 -0.0055 -0.0570
 5797W        W22271  17.076   2.398   1.070 -0.1459 -0.2305 -0.0558
 5798W        W22272   5.354   3.401   5.161 -0.0351 -0.2209  0.0127
 5799W        W22273   8.490   5.680  13.501 -0.0168  0.2428  0.0387
 5800W        W22274   4.084   5.703  16.125 -0.0693  0.2049 -0.0833
 5801W        W22275   6.722   7.441   0.234  0.2452  0.0301  0.1144
 5802W        W22276  12.831   7.975  11.993 -0.1334 -0.1958 -0.0179
 5803W        W22277   0.608   6.115  15.908 -0.0829 -0.1300 -0.0266
 5804W        W22278   0.634   3.965   1.870  0.0386 -0.0766 -0.0717
 5805W        W22279   3.376  14.475   1.420  0.2716  0.3506 -0.1966
 5806W        W22280   2.255  13.245   5.334  0.1476 -0.2089 -0.0619
 5807W        W22281   3.775  11.602   5.673 -0.1016 -0.1744 -0.1272
 5808W        W22282   1.217  16.498   3.181 -0.0636 -0.1993  0.0030
 5809W        W22283   1.542  12.153  15.441 -0.2838 -0.2217  0.1864
 5810W        W22284  17.457   2.964   4.287 -0.2992  0.0992  0.2097
 5811W        W22285   2.748  14.375  13.537 -0.2104  0.0369 -0.0399
 5812W        W22286  15.503  15.797  11.283  0.0130 -0.0069  0.3074
 5813W        W22287   7.652  10.646   4.259 -0.0511  0.3151 -0.2395
 5814W        W22288  16.124   6.163  13.921  0.0898  0.0176  0.1009
 5815W        W22289  17.616  11.184   3.983 -0.0866  0.1560  0.4239
 5816W        W22290  17.441  14.092  12.120  0.0182 -0.0157  0.0982
 5817W        W22291   4.853   0.486   1.999  0.2776  0.0966 -0.0009
 5818W        W22292   0.216   0.369   2.949 -0.0133  0.1645  0.3102
 5819W        W22293  13.973   5.500   1.548 -0.5152  0.1966  0.2115
 5820W        W22294  17.977  13.904   4.325  0.1122 -0.1995 -0.0037
 5821W        W22295   9.923  16.679  15.322  0.3804 -0.4311 -0.2538
 5822W        W22296   6.575   7.875   5.850 -0.0081 -0.0369 -0.1573
 5823W        W22297  14.125   3.154   2.532  0.0079  0.1582 -0.0644
 5824W        W22298  16.367  11.874  14.070  0.3577  0.2033  0.0739
 5825W        W22299   5.870  14.940  13.313  0.4043  0.1487  0.2075
 5826W        W22300   1.444   9.656   4.580  0.3975 -0.2547 -0.1398
 5827W        W22301   1.541  17.002  12.834  0.3651 -0.1375  0.0654
 5828W        W22302   1.761   8.518   5.173  0.2240  0.1963 -0.0518
 5829W        W22303  14.141  11.468  14.500 -0.4529  0.0603  0.2474
 5830W        W22304   3.056   0.313  15.766  0.1488 -0.1171  0.0382
 5831W        W22305  11.045  13.148   1.124  0.0315  0.2003 -0.3066
 5832W        W22306  18.057   1.353  12.103  0.1564 -0.2651  0.0496
 5833W        W22307   4.151   5.889  11.757  0.0039  0.2899 -0.0882
 5834W        W22308  15.158   6.809   1.974  0.1716 -0.1899 -0.1690
 5835W        W22309   8.429  12.881   0.690 -0.0118 -0.1463 -0.1604
 5836W        W22310  16.064   1.640   4.946 -0.0547 -0.1441 -0.0342
 5837W        W22311  15.361  15.867   3.428 -0.0489 -0.2154  0.0652
 5838W        W22312   0.311   9.781   3.964  0.1022  0.1229 -0.0301
 5839W        W22313  14.731   4.077  14.668 -0.3137 -0.2774  0.0564
 5840W        W22314   9.316   1.874  12.338 -0.1171 -0.3495 -0.1936
 5841W        W22315   8.228   5.032  15.007 -0.0630 -0.0408  0.2110
 5842W        W22316   1.100   6.915   3.159  0.0494 -0.1569 -0.0093
 5843W        W22317   3.439   1.647  13.190 -0.4126 -0.0056 -0.1364
 5844W        W22318  17.497   1.956  14.087 -0.0943  0.2393 -0.1163
 5845W        W22319  12.767   2.415  16.080 -0.4155  0.0853 -0.2498
 5846W        W22320  17.413  17.744   0.964 -0.1536 -0.1507 -0.0460
 5847W        W22321  17.080  16.399  14.279 -0.0180  0.0424  0.2163
 5848W        W22322   7.422  12.971  14.055 -0.3428  0.0892  0.0152
 5849W        W22323   9.900  17.668   4.873  0.1961 -0.0340  0.1247
 5850W        W22324   8.743  12.379   1.281  0.2071  0.1178 -0.2870
 5851W        W22325   6.453  13.754  15.776 -0.1251 -0.0640  0.3824
 5852W        W22326  16.040   4.299  11.890  0.1450 -0.2429  0.0731
 5853W        W22327  15.424   7.666   1.981  0.0267  0.1393  0.1106
 5854W        W22328  18.133   9.461  14.180 -0.0423 -0.2017 -0.1748
 5855W        W22329   2.078  17.659   3.326  0.0413 -0.5266 -0.0705
 5856W        W22330   1.007  17.621  13.544 -0.0838 -0.0406  0.0055
 5857W        W22331   0.702   4.925  12.938  0.0651 -0.1268  0.1724
 5858W        W22332  14.060   5.195   2.523  0.0602  0.1905 -0.0035
 5859W        W22333  15.241   7.438   3.245 -0.1184  0.1550 -0.3392
 5860W        W22334  17.873  12.242  12.790 -0.2399 -0.1154  0.2176
 5861W        W22335  16.746   7.125   5.239 -0.0035 -0.2676 -0.0413
 5862W        W22336   1.995   0.950   5.159 -0.1315 -0.2205  0.0510
 5863W        W22337  11.778  11.717   0.455 -0.2526 -0.0813  0.2165
 5864W        W22338  14.430  17.831   3.478  0.2085  0.1229 -0.0106
 5865W        W22339  11.768  10.084  14.517  0.1285  0.0487 -0.0722
 5866W        W22340  11.458   0.177  12.829  0.0055  0.3453  0.2366
 5867W        W22341   9.094   2.168   5.267 -0.2147  0.2839  0.2802
 5868W        W22342   1.412  10.723  16.308  0.1355 -0.2096  0.0036
 5869W        W22343   8.582   8.477   4.984  0.0463 -0.2915  0.1439
 5870W        W22344   3.769  11.631  13.353  0.3621 -0.0049  0.0432
 5871W        W22345  12.648  16.841  11.264 -0.2686 -0.0316 -0.0958
 5872W        W22346   2.345  12.209  11.474  0.0187  0.1636  0.1004
 5873W        W22347  14.380   3.694  12.532 -0.2908 -0.0101  0.0681
 5874W        W22348  11.205   6.738   2.747  0.1067  0.1017 -0.1674
 5875W        W22349   3.924   4.647  16.280 -0.0428  0.0275 -0.0803
 5876W        W22350   6.107  14.078  12.778 -0.1170 -0.1807  0.2311
 5877W        W22351   8.672  13.568  13.925 -0.2918 -0.0575  0.1239
 5878W        W22352   4.124   2.084  15.783  0.1612  0.0568 -0.0525
 5879W        W22353  13.434  11.583  16.151 -0.0760 -0.5201 -0.0814
 5880W        W22354  16.056   3.244   4.930 -0.1821 -0.0599  0.0861
 5881W        W22355  10.378   3.711  12.010 -0.1404 -0.2212  0.0904
 5882W        W22356  11.413   9.666   5.057  0.0980 -0.1075  0.0293
 5883W        W22357   5.230  12.371  16.335  0.1514  0.2451 -0.1498
 5884W        W22358  16.515   0.898  15.571  0.2068 -0.1751  0.0519
 5885W        W22359   1.580  13.922  11.037  0.1528  0.0904 -0.2444
 5886W        W22360   0.012   1.403   2.930  0.1632 -0.0771  0.0934
 5887W        W22361  13.035   5.412   3.598 -0.0760 -0.0864  0.1999
 5888W        W22362   0.438  12.245   4.253  0.0411  0.3379  0.3750
 5889W        W22363  16.665  14.565   1.819 -0.0539 -0.1326 -0.2517
 5890W        W22364   5.997   2.882   2.282  0.0962  0.0102 -0.0451
 5891W        W22365   2.070  11.723   0.814 -0.1481 -0.0985 -0.1742
 5892W        W22366   3.208  13.987   1.165  0.1714 -0.0579  0.0644
 5893W        W22367  11.165   6.326  14.306 -0.0446  0.0295  0.3312
 5894W        W22368   3.831  12.878  11.941 -0.1569 -0.0310 -0.1379
 5895W        W22369  16.923   9.342  14.501  0.0351  0.3939 -0.1179
 5896W        W22370  14.476   3.840  11.271 -0.0216 -0.4060  0.0518
 5897W        W22371   5.952  16.110  14.810 -0.0498 -0.3345 -0.1414
 5898W        W22372   3.282   9.468   1.786  0.3906 -0.1973 -0.4182
 5899W        W22373  11.209   0.492  14.318  0.0863  0.1071  0.0568
 5900W        W22374   7.145   9.972  15.712 -0.0692 -0.1626  0.0574
 5901W        W22375  13.188  12.009   1.685  0.2320  0.0184 -0.0892
 5902W        W22376   8.284   2.003  15.421  0.0823  0.2598 -0.1151
 5903W        W22377   2.608   3.537   0.871  0.2048 -0.0619 -0.2019
 5904W        W22378   4.361   7.766  11.438  0.1231 -0.2706  0.0538
 5905W        W22379  11.325   0.732   2.343  0.2262 -0.2044 -0.2860
 5906W        W22380  13.563   5.787   1.231  0.2195 -0.0138  0.1458
 5907W        W22381   9.402  13.065  11.808  0.2320 -0.0205 -0.0964
 5908W        W22382  17.910   8.585   4.611  0.3382  0.0819  0.3602
 5909W        W22383   1.103  16.937  11.730  0.3456  0.1124 -0.1025
 5910W        W22384  14.057   9.349   0.027 -0.0373  0.2461 -0.1923
 5911W        W22385  14.030   5.961   5.385 -0.0969  0.1364 -0.1002
 5912W        W22386   0.944   9.633   4.673  0.1961 -0.4443  0.0016
 5913W        W22387  15.560  14.652   2.702  0.0670  0.2325 -0.0403
 5914W        W22388  17.180   8.093  11.757  0.2363  0.0981  0.0672
 5915W        W22389   6.480   2.229  15.634  0.0140 -0.2322  0.2973
 5916W        W22390  16.386   4.694  13.786 -0.1184 -0.2491  0.1305
 5917W        W22391   8.585   5.941  13.921 -0.0996 -0.1483  0.0440
 5918W        W22392  16.743   5.427  12.192 -0.2393  0.1957 -0.0557
 5919W        W22393   2.131  10.096   0.336 -0.0470  0.0668 -0.0927
 5920W        W22394  17.053   0.602   2.897 -0.0612 -0.1135 -0.0484
 5921W        W22395   7.628  15.450   5.424  0.0018  0.1686  0.1044
 5922W        W22396   2.473  12.919   1.412  0.5833  0.1540 -0.0729
 5923W        W22397  14.904  13.654  11.852  0.1472  0.0164 -0.2852
 5924W        W22398  10.112  15.548   0.011 -0.1123  0.0514  0.1307
 5925W        W22399  10.837   4.397   0.041 -0.1380 -0.1764  0.1293
 5926W        W22400   4.345   5.414  12.968 -0.2326  0.0248  0.2195
 5927W        W22401   8.793   9.038  16.307  0.1347 -0.0296 -0.0670
 5928W        W22402  15.415  10.371   1.424  0.4636 -0.1261 -0.1385
 5929W        W22403  10.473   1.917  14.997  0.0541 -0.0948  0.0842
 5930W        W22404   8.428   4.965  11.970  0.1454 -0.3708 -0.3129
 5931W        W22405  16.780  15.444  15.252  0.1357  0.4887  0.2008
 5932W        W22406  10.754  11.033   2.931 -0.0029 -0.1157 -0.0287
 5933W        W22407  14.484  10.274   1.385 -0.2925 -0.0133 -0.1926
 5934W        W22408  15.288   0.378   5.421 -0.0943 -0.0137  0.0672
 5935W        W22409  10.449   5.405   4.459 -0.3666  0.1700 -0.1038
 5936W        W22410  14.730  10.243  14.066 -0.1173  0.1307 -0.0746
 5937W        W22411   7.891   8.198   0.002  0.1105 -0.0297 -0.0700
 5938W        W22412  12.315   7.249  14.280 -0.1070 -0.2789  0.0228
 5939W        W22413  14.224   9.868   3.389 -0.0991 -0.2726  0.1469
 5940W        W22414  11.049   3.097  13.995  0.0121 -0.3010 -0.1313
 5941W        W22415  11.015   3.373   0.783 -0.0539 -0.2912 -0.0942
 5942W        W22416  15.895   2.729   1.332  0.1949  0.1928 -0.1522
 5943W        W22417   6.109   3.019   1.221 -0.2077  0.1521  0.0209
 5944W        W22418   0.928   9.524  12.605  0.0077  0.1971  0.1056
 5945W        W22419   2.580  15.657   4.185  0.1744 -0.0650 -0.3637
 5946W        W22420   9.367   3.057   3.452  0.1060 -0.3432  0.1628
 5947W        W22421  11.994  16.019   1.572  0.1423 -0.1863 -0.0262
 5948W        W22422  17.948   3.586   0.120 -0.1178 -0.0153  0.2474
 5949W        W22423  17.046  13.205   4.472 -0.4015  0.0703  0.0175
 5950W        W22424  17.539  17.661  15.574  0.0308 -0.1686 -0.3503
 5951W        W22425   4.994  14.577   2.101 -0.0727  0.0422  0.0440
 5952W        W22426   6.894   5.738  15.850 -0.1955  0.1035 -0.2170
 5953W        W22427   0.054   3.892  12.969 -0.1065 -0.2660  0.3953
 5954W        W22428   6.116  12.473   4.400  0.0079 -0.0386  0.0819
 5955W        W22429   8.993  13.673  15.988 -0.2844  0.1617 -0.0348
 5956W        W22430  13.730   1.712  12.773 -0.1050 -0.0479  0.0730
 5957W        W22431  14.527  16.833   2.267  0.1982 -0.1224 -0.1885
 5958W        W22432   8.744   8.949   1.571 -0.2095 -0.1532 -0.0511
 5959W        W22433  13.827  14.154   3.918 -0.1511  0.0143 -0.0596
 5960W        W22434  18.022   7.510   0.054 -0.0972 -0.1693  0.3122
 5961W        W22435   3.104   0.110   0.240 -0.0284  0.3334 -0.0335
 5962W        W22436   4.569   6.000  14.258 -0.2662 -0.2136 -0.0443
 5963W        W22437  14.433   0.437   2.873 -0.2099  0.2686 -0.1627
 5964W        W22438   6.774  13.040   3.898  0.0006 -0.0992  0.2628
 5965W        W22439  11.530  14.794  12.095 -0.1207 -0.1631 -0.1951
 5966W        W22440   4.806   4.338   4.446  0.3172  0.3571  0.4186
 5967W        W22441   0.514  11.730   3.398 -0.3010 -0.2008 -0.0059
 5968W        W22442   7.408  15.823   3.796  0.0174 -0.2005 -0.0781
 5969W        W22443  14.114  12.404  12.761 -0.2239 -0.0797  0.0557
 5970W        W22444   7.211   3.738   2.242  0.2816  0.1017  0.0361
 5971W        W22445   6.620  14.847  14.400  0.2687  0.3921  0.0330
 5972W        W22446   6.569  15.751  15.806 -0.0266  0.0026 -0.3623
 5973W        W22447   2.714  14.128  12.416  0.1979  0.2219 -0.0177
 5974W        W22448   5.408   4.222  12.177 -0.2200 -0.1390  0.0474
 5975W        W22449   6.897   3.873  13.364 -0.3749 -0.0044 -0.1295
 5976W        W22450   1.996  15.636  11.582 -0.0795  0.3549 -0.1801
 5977W        W22451   6.975   2.223   3.464 -0.0743  0.0417  0.1271
 5978W        W22452  15.785   2.112   5.872 -0.1672 -0.0059  0.1014
 5979W        W22453  13.064   8.710  15.000  0.3021  0.1422 -0.4326
 5980W        W22454   9.255   7.231  10.786  0.1233 -0.2949  0.2262
 5981W        W22455  16.474  12.854  15.641 -0.1585 -0.1037 -0.2876
 5982W        W22456  14.709  16.698   1.807  0.0283  0.2086 -0.1530
 5983W        W22457   4.141   7.170  14.751 -0.1507  0.1209  0.0658
 5984W        W22458  10.544  16.717   2.143 -0.0273 -0.3417 -0.1605
 5985W        W22459  16.792   6.537   0.596  0.0209  0.0535 -0.0160
 5986W        W22460  13.421  10.353   5.076  0.2393  0.2831  0.0207
 5987W        W22461  17.908   2.543  15.805  0.0905  0.0610 -0.1925
 5988W        W22462  12.327   0.433   2.199  0.0807 -0.1047  0.1793
 5989W        W22463  15.601   7.685   1.408 -0.1591  0.1219 -0.0220
 5990W        W22464   4.245   4.475  14.117 -0.0155  0.0420 -0.4280
 5991W        W22465  14.198   8.437  13.721 -0.1403 -0.3380 -0.0457
 5992W        W22466  10.139   0.470  13.820 -0.0971  0.3824  0.2198
 5993W        W22467   5.285  16.725  12.104  0.2050  0.1958  0.3591
 5994W        W22468   6.922   2.539  13.887  0.1479 -0.2406 -0.1071
 5995W        W22469  13.175   1.935   0.252 -0.0243  0.1218  0.1985
 5996W        W22470  16.933   4.832   4.697  0.2284  0.0185 -0.0870
 5997W        W22471   8.191   2.253   4.772 -0.1511  0.0909 -0.0357
 5998W        W22472  17.417   7.128  11.398 -0.0491 -0.1069 -0.2494
 5999W        W22473  11.773   0.591   4.421 -0.1634  0.3297 -0.0127
 6000W        W22474  13.984   6.320  11.291 -0.1395 -0.0821  0.0471
 6001W        W22475  13.499   8.363  13.376 -0.0227  0.0741 -0.0807
 6002W        W22476   6.638   4.618  14.557 -0.1127  0.1847  0.0983
 6003W        W22477   3.904   1.698  14.619 -0.1193 -0.2439  0.0198
 6004W        W22478   8.523   3.447   2.447 -0.0868  0.0598  0.0952
 6005W        W22479   3.252  15.912  12.772  0.0334 -0.0791 -0.2332
 6006W        W22480   5.328   6.988  11.938 -0.1300 -0.2592 -0.0198
 6007W        W22481  12.453   6.487   1.184 -0.1740  0.0281  0.0169
 6008W        W22482  14.502  11.321   5.980 -0.0462  0.0108 -0.2490
 6009W        W22483  17.413   2.245   0.240 -0.1499 -0.1563 -0.3389
 6010W        W22484   2.237   9.800   3.576  0.0469  0.1130 -0.0181
 6011W        W22485  13.623  12.196  11.976  0.0236  0.0094  0.0212
 6012W        W22486  15.961  14.066   1.596  0.1593  0.0607 -0.0655
 6013W        W22487  16.746   7.659   4.964  0.1049 -0.0929 -0.3239
 6014W        W22488  12.735  16.800   2.665  0.2942 -0.0600  0.1638
 6015W        W22489  15.654   3.102  15.706 -0.1353  0.2343  0.1279
 6016W        W22490   7.706   5.163  13.262 -0.0674  0.1641 -0.0218
 6017W        W22491   0.902   2.270   4.501  0.2316 -0.0084 -0.0883
 6018W        W22492   7.812   5.197   0.500  0.1177  0.1373 -0.3267
 6019W        W22493  11.507   3.300  11.771  0.2768 -0.0275 -0.1968
 6020W        W22494  15.332   9.927   2.425 -0.0117 -0.2083 -0.1466
 6021W        W22495   9.266  17.265   2.699 -0.0493  0.0791  0.2645
 6022W        W22496  12.212   6.065  11.335  0.1727  0.0348  0.0713
 6023W        W22497  16.128   0.480   4.461 -0.0350 -0.0464  0.1594
 6024W        W22498  16.556  15.534  14.097 -0.0226  0.1522  0.2000
 6025W        W22499   2.807   5.370  12.088  0.0814  0.0599  0.2258
 6026W        W22500  14.729  10.337  15.066 -0.1067  0.1749  0.0261
 6027W        W22501  15.812   1.448   5.965 -0.1152  0.1588 -0.0758
 6028W        W22502  17.847   1.487   3.293  0.0669  0.2042  0.1083
 6029W        W22503  10.498  12.977  10.101 -0.1408  0.1275  0.2436
 6030W        W22504   1.706   9.006   1.785  0.0626 -0.2217  0.2766
 6031W        W22505  17.971   3.445   2.049  0.1194  0.0401 -0.0759
 6032W        W22506   5.162   3.826   1.461 -0.3333  0.0777 -0.0110
 6033W        W22507  15.407   4.807   1.969 -0.0921  0.1555 -0.1160
 6034W        W22508  15.436   2.519  12.783 -0.2130  0.1526  0.2345
 6035W        W22509   5.668   4.615  12.095 -0.2954  0.0895 -0.0474
 6036W        W22510   4.035  13.853  16.269 -0.0924  0.3713 -0.1311
 6037W        W22511  13.986  11.812   2.881 -0.0980 -0.1497 -0.1103
 6038W        W22512   5.764  15.401  16.263  0.0783  0.0291  0.1908
 6039W        W22513   0.750  16.267  13.411  0.1595  0.1359  0.0429
 6040W        W22514   2.475   7.579  15.480  0.3525  0.3878  0.1640
 6041W        W22515  16.885   9.467   0.834 -0.1380  0.4394  0.4948
 6042W        W22516   1.616  13.029   1.037  0.2853 -0.0612  0.1223
 6043W        W22517  11.575   6.808   4.345  0.0824  0.0091  0.2272
 6044W        W22518  15.914   7.377  15.069 -0.0168 -0.0398 -0.2307
 6045W        W22519  10.450  16.315   0.446  0.1345  0.2785  0.0589
 6046W        W22520   0.664  17.426  12.587  0.3093  0.1512  0.0416
 6047W        W22521   9.236  13.753  14.262  0.0284 -0.1193  0.0618
 6048W        W22522   5.737   9.818  16.309 -0.0197  0.1319  0.0919
 6049W        W22523   0.453   5.261  15.273  0.1327 -0.2131 -0.1621
 6050W        W22524  16.124  12.965   5.388  0.1146  0.1212 -0.0556
 6051W        W22525  11.849   9.345  15.165  0.1607  0.2070  0.1287
 6052W        W22526  14.937   4.724   0.956  0.1037 -0.2520 -0.1041
 6053W        W22527   1.008  10.818   5.835 -0.0956 -0.0939 -0.1065
 6054W        W22528  10.491   4.837   3.030 -0.0097 -0.1743  0.0922
 6055W        W22529  11.233   4.872   4.514 -0.1459 -0.1500 -0.1396
 6056W        W22530   5.251   8.500  12.161  0.4696  0.0260 -0.0095
 6057W        W22531   1.231  14.824   4.509  0.0292 -0.0827  0.1500
 6058W        W22532  10.541   0.767  13.498 -0.0469  0.3169 -0.1338
 6059W        W22533  17.147  16.487   4.755  0.0035  0.2241  0.1843
 6060W        W22534   5.252   9.615  14.935 -0.1352 -0.0793  0.1588
 6061W        W22535   0.899   9.091  13.600  0.2957 -0.2882  0.3408
 6062W        W22536   8.037   5.423   4.466  0.0824 -0.0978  0.1283
 6063W        W22537  16.648   1.058   4.035  0.2977 -0.1156  0.0070
 6064W        W22538   5.424  12.109  14.096 -0.0429 -0.3581 -0.0188
 6065W        W22539  10.081  12.455  15.054 -0.1813  0.1821 -0.1593
 6066W        W22540  16.904   4.889  13.590  0.0191  0.0747 -0.2575
 6067W        W22541   6.822  12.810   1.537  0.1218 -0.0219  0.2083
 6068W        W22542   4.915   1.781   2.891  0.1934 -0.0710  0.0631
 6069W        W22543   7.109  14.136  11.681 -0.2794 -0.0262  0.3544
 6070W        W22544   8.263   1.367   2.686 -0.2663  0.0273  0.1925
 6071W        W22545  12.797  16.482   1.339  0.1286 -0.0635  0.3556
 6072W        W22546   6.179   1.599  11.633  0.0498  0.0059 -0.2581
 6073W        W22547   5.456  16.634   1.847 -0.0393  0.1805  0.0846
 6074W        W22548   4.653  16.773   4.404 -0.1822  0.3102 -0.0894
 6075W        W22549  13.245   8.855   2.942  0.0199 -0.1002  0.0249
 6076W        W22550   6.393   9.175   4.373  0.0627  0.1465 -0.2866
 6077W        W22551   8.937  15.926   4.582 -0.2007 -0.0307 -0.0132
 6078W        W22552  10.479   1.609   4.418 -0.0141  0.1053 -0.1245
 6079W        W22553   6.791  17.104   0.823  0.0712 -0.1700 -0.1190
 6080W        W22554   8.622   4.143   0.124 -0.1381 -0.0840  0.0581
 6081W        W22555   4.587  10.326  13.769 -0.0544 -0.0411  0.0385
 6082W        W22556  13.307   3.438  11.643 -0.3473 -0.0060 -0.1634
 6083W        W22557   7.638   5.710   1.926  0.5776  0.0133 -0.1838
 6084W        W22558   4.106   3.189   1.143  0.2855  0.1697 -0.0021
 6085W        W22559   9.046  17.747  13.906 -0.3323  0.2063  0.1215
 6086W        W22560   3.318  14.155   3.421 -0.0989 -0.1337  0.2400
 6087W        W22561   2.957   0.205  11.568  0.3255 -0.0922 -0.3297
 6088W        W22562   9.522  15.487   2.399 -0.0999  0.0013 -0.0862
 6089W        W22563  10.087   9.039   1.246  0.3267 -0.0703 -0.0986
 6090W        W22564   0.971  11.641   3.192  0.1977 -0.1851 -0.3214
 6091W        W22565   7.423   6.622  13.481 -0.0103 -0.1913  0.0274
 6092W        W22566   3.643   5.905  16.057 -0.1491 -0.3405  0.2480
 6093W        W22567   1.951   2.213   0.562 -0.0954 -0.0923 -0.1235
 6094W        W22568  13.975   4.206   0.251 -0.3792 -0.2182 -0.2611
 6095W        W22569   6.837   7.368  14.477 -0.1785 -0.1165 -0.2156
 6096W        W22570   9.076  10.998   5.076 -0.0998  0.0856  0.1457
 6097W        W22571  17.207   5.069  12.184 -0.0657  0.0267  0.0833
 6098W        W22572  12.164  12.666  12.107 -0.1636  0.2704 -0.1188
 6099W        W22573   7.258   1.235  10.501  0.1435 -0.0494  0.2460
 6100W        W22574   3.402  10.047   0.551 -0.2377 -0.0560  0.1752
 6101W        W22575  12.726  12.635   0.097 -0.2009  0.0360 -0.0611
 6102W        W22576  11.200  15.748  12.232 -0.1101  0.0879 -0.2230
 6103W        W22577  13.862  17.053   3.777 -0.2510  0.0705 -0.2048
 6104W        W22578  10.006  11.493   5.098  0.2255 -0.0769  0.1100
 6105W        W22579  11.394  10.129  13.550  0.0094  0.1738 -0.1034
 6106W        W22580  12.002   5.589  10.490 -0.0803 -0.1174  0.0958
 6107W        W22581   2.064  10.356  15.429 -0.0460  0.1037 -0.2003
 6108W        W22582  14.377  16.026  10.990  0.3144  0.1919  0.1123
 6109W        W22583   8.073   4.695   5.437  0.0951  0.1054  0.1249
 6110W        W22584  11.252  14.016  13.743  0.0545  0.1286  0.3349
 6111W        W22585   7.739  14.713   0.797 -0.0344  0.0339 -0.0146
 6112W        W22586   7.843   2.590  13.791 -0.0949 -0.0573 -0.3245
 6113W        W22587  13.056  10.375   2.545 -0.0403  0.3315 -0.1640
 6114W        W22588   4.928   7.453   0.736 -0.2750  0.0987 -0.2410
 6115W        W22589   7.181   4.574  14.248  0.1715  0.1271  0.0196
 6116W        W22590  11.688   7.902  16.180 -0.1732 -0.0296 -0.1606
 6117W        W22591  17.720   1.265   5.319 -0.0108  0.2299  0.2347
 6118W        W22592  16.836  13.281   3.151 -0.1198  0.0612 -0.0626
 6119W        W22593   8.511  17.476   1.881 -0.0851  0.0208  0.0510
 6120W        W22594   4.357   7.365  13.395 -0.0195  0.1070  0.2098
 6121W        W22595   6.948  15.286   2.062  0.1555 -0.1166  0.1009
 6122W        W22596   1.763  12.699   3.397 -0.1510  0.0350 -0.1843
 6123W        W22597   1.235  15.327   1.627 -0.0822  0.1240 -0.1950
 6124W        W22598  17.871   4.156  15.631  0.0100  0.0053  0.1865
 6125W        W22599   8.663  10.556  11.969 -0.2496 -0.4712 -0.0799
 6126W        W22600   2.029  11.319   1.149 -0.3801  0.1821  0.0736
 6127W        W22601   0.743  14.248  16.112 -0.1408  0.0120 -0.1514
 6128W        W22602   0.356  12.226  15.665  0.0908 -0.0554 -0.0232
 6129W        W22603  11.105   0.730   0.574  0.1886  0.0332 -0.1450
 6130W        W22604   2.403   1.342   4.146  0.3982  0.2295 -0.2268
 6131W        W22605   6.221   7.710   4.618 -0.1545 -0.0160  0.0903
 6132W        W22606   0.940  10.120  12.573  0.3430  0.0571  0.1040
 6133W        W22607  12.493   2.332   4.808 -0.3822 -0.2881 -0.2055
 6134W        W22608   2.336   3.667  11.015  0.0329  0.1039 -0.0141
 6135W        W22609   3.734  15.006   4.202  0.3138 -0.1504 -0.1039
 6136W        W22610   5.307  16.049   2.542 -0.0465  0.0404  0.2017
 6137W        W22611   7.523  12.412  16.161 -0.1379  0.1723 -0.1800
 6138W        W22612   5.986  12.078  15.019  0.0437  0.1885  0.0137
 6139W        W22613   8.261   1.638  16.334 -0.1374  0.0024  0.0493
 6140W        W22614  16.311   8.234  13.180 -0.1761 -0.1188 -0.4983
 6141W        W22615  10.067  17.299   1.597  0.0924  0.0520 -0.0648
 6142W        W22616  15.220   6.839   0.131  0.0840  0.0786 -0.0676
 6143W        W22617   9.508   4.929   0.091 -0.1875 -0.0100  0.0606
 6144W        W22618  10.281  13.781  11.165  0.0349 -0.0970 -0.1343
 6145W        W22619   9.245  17.030  15.378 -0.0009  0.1083 -0.2014
 6146W        W22620   7.937   5.148   1.128  0.2596 -0.2491 -0.1462
 6147W        W22621   4.204   7.912   3.283 -0.1405  0.0704 -0.3328
 6148W        W22622   7.676   8.131   1.455  0.2292 -0.0775 -0.0678
 6149W        W22623  10.547   9.694  11.300 -0.0425  0.2617  0.4136
 6150W        W22624  17.361   6.607   0.407  0.0249  0.0144  0.0389
 6151W        W22625   6.883  14.803   3.297  0.0972  0.0245  0.1333
 6152W        W22626  16.262   3.717   4.739 -0.0984  0.2786  0.3012
 6153W        W22627   2.095  12.770  10.883 -0.2146  0.2378  0.1535
 6154W        W22628   0.864  15.240  15.958  0.2261  0.1860  0.1044
 6155W        W22629  14.789  17.752   5.804  0.0561 -0.0600 -0.4381
 6156W        W22630   6.969   6.126   3.364  0.1294 -0.3029 -0.1580
 6157W        W22631   1.344  17.268   5.092  0.0670 -0.0482  0.0911
 6158W        W22632   6.884   1.555   2.765  0.2406  0.0436  0.1170
 6159W        W22633  12.089  14.460   1.256  0.1697 -0.2717 -0.0129
 6160W        W22634   6.132   8.255  15.260 -0.3016 -0.0192  0.0181
 6161W        W22635  15.663  15.665  16.310  0.1931  0.0821  0.0189
 6162W        W22636   3.726  10.432   4.763 -0.0528  0.2047 -0.1392
 6163W        W22637  13.086   2.842   3.422 -0.1142 -0.1465  0.3489
 6164W        W22638   8.093  12.303  12.792 -0.2318 -0.0698 -0.0483
 6165W        W22639  14.593   7.718   0.340 -0.0919  0.1252 -0.2100
 6166W        W22640  13.149  15.355  14.156  0.0935  0.1973 -0.0493
 6167W        W22641   1.669   9.437   2.920 -0.2015 -0.2424  0.0080
 6168W        W22642   5.232  15.483   5.297  0.0671  0.3263  0.1329
 6169W        W22643   7.509  17.715  16.147 -0.2184  0.1066  0.1554
 6170W        W22644  16.269   3.090  14.927  0.0525  0.0680  0.0505
 6171W        W22645   8.227  15.353   4.228 -0.0072  0.1299 -0.0346
 6172W        W22646   2.585   2.094   6.088  0.4910 -0.2155 -0.2191
 6173W        W22647   0.807  14.672  13.434 -0.2460 -0.2529  0.1655
 6174W        W22648   4.323   1.107   6.366 -0.2489 -0.0419 -0.2618
 6175W        W22649   3.813  17.241   4.315  0.1607  0.2521  0.1514
 6176W        W22650   8.677   5.244  13.727 -0.0854  0.1445  0.1172
 6177W        W22651   3.769   4.403  13.415 -0.0045 -0.2633  0.0424
 6178W        W22652  17.772   6.475   0.182  0.3915 -0.0863  0.0382
 6179W        W22653   7.738   0.830   4.910  0.0303 -0.2820  0.1061
 6180W        W22654  17.871  14.792  14.521 -0.0498 -0.2093  0.1149
 6181W        W22655   3.513   3.308  12.819  0.3706  0.0433  0.2271
 6182W        W22656   3.958  10.833   3.551  0.0205  0.1392  0.0566
 6183W        W22657   1.781   0.584   1.915  0.3225  0.1671  0.0714
 6184W        W22658   6.795  10.051   0.557 -0.1262 -0.2967 -0.0642
 6185W        W22659  15.222   0.279  12.075 -0.0531  0.2548 -0.0558
 6186W        W22660   9.715   7.041  13.304 -0.0724 -0.0289  0.4036
 6187W        W22661   8.749  14.417  14.817 -0.3531  0.2169  0.2852
 6188W        W22662  10.600  13.028  14.345 -0.0669 -0.0877 -0.0637
 6189W        W22663  10.821   4.033  12.826  0.0376 -0.2289 -0.0012
 6190W        W22664   0.260   7.036  15.475 -0.0845 -0.0343 -0.0946
 6191W        W22665  11.681   3.404   3.842  0.1583  0.0622 -0.1543
 6192W        W22666  14.025   1.260  16.221  0.0557 -0.0373 -0.0981
 6193W        W22667   9.963  15.788  15.914 -0.1469 -0.3635 -0.2745
 6194W        W22668   3.759  17.267  13.387 -0.0174  0.0069  0.1071
 6195W        W22669  14.762   8.580  15.416  0.0080 -0.0504  0.1626
 6196W        W22670   6.173   9.837  13.502  0.2417 -0.1401  0.1012
 6197W        W22671   5.918  16.337  13.790 -0.1875  0.0050  0.0210
 6198W        W22672   1.865  11.631   1.494  0.1551 -0.1052  0.0276
 6199W        W22673  12.090   8.565  13.183  0.0559  0.3897 -0.1649
 6200W        W22674   1.918   0.033  12.825 -0.3075  0.0694 -0.1796
 6201W        W22675  11.424   0.477  14.794  0.1625  0.1186  0.3702
 6202W        W22676   9.526  12.514  13.727 -0.1591  0.1730 -0.0840
 6203W        W22677  12.045   9.223  13.520 -0.0585 -0.1265  0.1188
 6204W        W22678   5.166   6.818  14.642  0.1814  0.1914  0.0820
 6205W        W22679   8.191   6.939   3.094  0.0478  0.0356 -0.2736
 6206W        W22680   0.806  18.085  15.380  0.0363 -0.0909  0.1221
 6207W        W22681   7.011   2.528  11.443  0.1898  0.2075  0.0840
 6208W        W22682   2.829  17.470  12.123  0.1786 -0.2245  0.1886
 6209W        W22683  15.457   9.355   3.314  0.1590 -0.4152 -0.2342
 6210W        W22684  16.592   7.278   3.882 -0.2134 -0.2927 -0.2067
 6211W        W22685   4.229  14.780   2.763 -0.0165 -0.1053 -0.0920
 6212W        W22686  13.695   0.334  11.696  0.3785 -0.0412  0.2579
 6213W        W22687   1.027   4.260  11.451 -0.1377  0.0119  0.0527
 6214W        W22688   6.046   6.627  11.425 -0.1619  0.0341 -0.1503
 6215W        W22689   4.072  14.890   3.224  0.1637 -0.1553  0.3818
 6216W        W22690   8.180   7.513   1.967 -0.0245 -0.0560  0.1699
 6217W        W22691   0.706   7.944   2.997 -0.0830  0.2119 -0.0346
 6218W        W22692  10.205  14.400   0.050 -0.0116 -0.3371 -0.1825
 6219W        W22693   1.415   5.420  15.387  0.1954 -0.3130  0.3574
 6220W        W22694  10.160   7.204  13.128 -0.3115  0.1336  0.1105
 6221W        W22695   2.127  17.631   0.067  0.3530  0.0285  0.0606
 6222W        W22696   2.846   5.527   5.612  0.0675  0.0180  0.0566
 6223W        W22697   1.423   1.542  15.914 -0.1253  0.0150 -0.0447
 6224W        W22698   0.238   4.951   2.722 -0.1904  0.3187 -0.3241
 6225W        W22699   0.793   5.985   4.307  0.1725 -0.0299 -0.0587
 6226W        W22700   4.743  11.333  11.647 -0.1862  0.0807 -0.0546
 6227W        W22701   2.626  10.011   1.470  0.2388  0.2464  0.0081
 6228W        W22702  17.189  11.771   1.592 -0.0898  0.0903 -0.0530
 6229W        W22703   2.286   1.287   5.565  0.3402 -0.1300  0.0672
 6230W        W22704   2.624  16.549  11.109  0.2770 -0.1469 -0.2146
 6231W        W22705   3.413  16.903   1.142 -0.1699  0.1004 -0.1939
 6232W        W22706  14.561  13.156   4.258  0.0345  0.4325 -0.0022
 6233W        W22707   4.737  13.403  12.362  0.1949  0.0581 -0.1196
 6234W        W22708   0.609   0.675   2.900 -0.0397 -0.0445 -0.1868
 6235W        W22709  14.306   5.470   0.640  0.0043 -0.3826  0.2375
 6236W        W22710  14.130   7.858   0.292 -0.0169 -0.0532 -0.1649
 6237W        W22711   1.040  13.189   0.027 -0.2212 -0.0363 -0.0657
 6238W        W22712  10.934  13.333   3.336 -0.1697 -0.0820  0.5306
 6239W        W22713  16.751  10.180   4.477 -0.0307 -0.1587 -0.0955
 6240W        W22714   8.383  13.137   4.901  0.0308  0.3022  0.1325
 6241W        W22715  10.455   8.193   2.380 -0.3104  0.4005 -0.1268
 6242W        W22716   8.192   6.502   2.254  0.2002 -0.2456 -0.0404
 6243W        W22717   3.172  14.677   5.138 -0.3379 -0.0203 -0.0700
 6244W        W22718  14.168   2.594  11.666 -0.2429  0.1301 -0.2215
 6245W        W22719  10.651  11.685   2.854 -0.1529  0.0029  0.4598
 6246W        W22720   4.933   8.893   0.177 -0.0641  0.0755 -0.0325
 6247W        W22721   3.460   7.224   3.384  0.2169  0.5619 -0.0256
 6248W        W22722  16.114   0.340  16.180 -0.1378 -0.0960 -0.0737
 6249W        W22723   2.102   8.729   5.582  0.1080  0.0360  0.1682
 6250W        W22724   2.911  17.016   2.320 -0.0400  0.1281  0.2980
 6251W        W22725   0.607   8.268   1.284  0.0997 -0.0948  0.1034
 6252W        W22726   5.404   6.454   3.916 -0.0404 -0.0801 -0.1319
 6253W        W22727  10.671  17.841  15.284  0.1909 -0.0254  0.1294
 6254W        W22728   6.514   2.433   2.709  0.3993  0.1596 -0.0485
 6255W        W22729  17.154  10.750  14.370  0.1076  0.1121  0.0820
 6256W        W22730   0.950   3.598  14.638  0.4750 -0.2035 -0.2073
 6257W        W22731  15.460   4.806   0.866 -0.0661 -0.1994 -0.0305
 6258W        W22732   7.101  16.397  15.205  0.0059  0.0334 -0.1193
 6259W        W22733   6.322  17.266  16.287 -0.1589  0.1902 -0.0169
 6260W        W22734   7.501  10.702   0.437 -0.1184  0.2375 -0.2681
 6261W        W22735   0.088   3.672   2.398 -0.1364 -0.3046 -0.1426
 6262W        W22736   6.337  11.046  12.393 -0.0550 -0.2645  0.0190
 6263W        W22737  17.172   6.276   0.809  0.0746 -0.2002 -0.4142
 6264W        W22738   8.871  10.684   4.069  0.0202 -0.2432 -0.1772
 6265W        W22739   2.925  17.931   5.199 -0.0279 -0.2258 -0.3248
 6266W        W22740  17.062  17.060  14.846  0.1273 -0.1012  0.1013
 6267W        W22741   5.293  13.208  14.659 -0.2717 -0.0951 -0.0821
 6268W        W22742   5.240   1.212  11.614 -0.0191 -0.1748  0.1237
 6269W        W22743   6.701  12.169  12.416  0.1270 -0.0151  0.0649
 6270W        W22744   7.577   7.867   0.417 -0.1330  0.1299  0.0489
 6271W        W22745   0.797   3.432   0.043 -0.1307 -0.0751  0.1333
 6272W        W22746  11.266   6.927  14.336  0.1361  0.2229  0.1101
 6273W        W22747   9.378  17.119  14.458  0.1051 -0.3692 -0.0647
 6274W        W22748   6.173  11.138   4.798  0.1647  0.1438 -0.3886
 6275W        W22749  13.862   6.707   1.871  0.1094  0.1112 -0.1162
 6276W        W22750   4.019   1.597   1.936 -0.0008 -0.0422 -0.0789
 6277W        W22751   0.722  15.956  15.407 -0.3939  0.0116  0.0743
 6278W        W22752   4.615   6.532  14.359 -0.0197  0.1828 -0.1496
 6279W        W22753  10.911  13.963   1.941 -0.2453  0.3181  0.1179
 6280W        W22754   4.691   5.428  13.548 -0.0635 -0.1453  0.1505
 6281W        W22755   9.915   9.754   4.193  0.1045 -0.0447 -0.1129
 6282W        W22756   8.820   3.805   1.514 -0.4163  0.0261  0.0286
 6283W        W22757  12.902  10.717  11.522  0.0402  0.3081  0.1460
 6284W        W22758  16.596  13.150  13.797  0.5555 -0.1446 -0.0084
 6285W        W22759  12.727   7.092  11.503  0.2774 -0.3828 -0.1841
 6286W        W22760  15.162   4.918  14.743  0.2674 -0.0949 -0.1196
 6287W        W22761   3.970   0.190   2.185 -0.2627  0.1117  0.1228
 6288W        W22762  13.014   3.228   2.497  0.0679  0.2031 -0.2872
 6289W        W22763  14.664   4.028  15.495 -0.1490  0.1667 -0.1130
 6290W        W22764   1.419   7.763   1.506 -0.4444  0.1410 -0.2014
 6291W        W22765  16.464  11.998  15.967  0.0447 -0.3524  0.0904
 6292W        W22766   0.298  11.174   0.157  0.0939  0.2441  0.1229
 6293W        W22767   4.567  16.135  13.313 -0.0069 -0.0281 -0.0319
 6294W        W22768   1.948  13.894   1.812 -0.0623  0.0999 -0.2069
 6295W        W22769   6.945  12.698  12.356  0.1185 -0.2227  0.0768
 6296W        W22770   7.068   6.039  14.873 -0.1342 -0.1522  0.2734
 6297W        W22771   7.511   2.582  15.505  0.1043 -0.1404  0.0406
 6298W        W22772   4.609   8.772  12.301  0.0784  0.0021 -0.1036
 6299W        W22773   8.163   1.102   0.750 -0.1431 -0.2783 -0.0162
 6300W        W22774   6.381   4.160  14.036 -0.2647  0.0285  0.2053
 6301W        W22775  11.851  10.323  15.014 -0.1017 -0.0849  0.1405
 6302W        W22776   6.664  16.669  12.229  0.1915  0.0654 -0.1302
 6303W        W22777   6.570   9.874  14.006  0.3272  0.2036  0.1990
 6304W        W22778   1.411  11.701  15.232  0.2393 -0.3061 -0.2493
 6305W        W22779  12.593  15.756  13.525 -0.0299  0.1648 -0.1229
 6306W        W22780   3.414  12.392   0.771 -0.2054  0.0273  0.0292
 6307W        W22781  13.464  16.282  13.998  0.0398 -0.1605  0.0446
 6308W        W22782  13.188   4.803  14.872  0.0780  0.0233  0.1370
 6309W        W22783  17.674   6.208   2.464  0.0291  0.2603  0.0472
 6310W        W22784   8.983  10.250   4.920 -0.2285  0.0165 -0.1608
 6311W        W22785  12.408   1.638  15.649  0.0790  0.2003  0.2828
 6312W        W22786  15.332   8.656   4.340  0.1709 -0.1097  0.2310
 6313W        W22787  17.879  17.824   5.394 -0.1522 -0.3178 -0.2127
 6314W        W22788  17.598  13.143   4.859  0.2357  0.0438 -0.0356
 6315W        W22789  11.419  13.641   4.060  0.1252  0.0555  0.0252
 6316W        W22790  15.506   0.170   2.788 -0.1156 -0.0220  0.1753
 6317W        W22791   5.314   5.601   4.850 -0.2083 -0.1147 -0.2285
 6318W        W22792  14.008   6.425   1.503 -0.0024  0.1411  0.1923
 6319W        W22793   1.430  15.777  14.324  0.0655  0.2319 -0.2495
 6320W        W22794   1.106  12.651  14.115  0.0679  0.1054  0.1235
 6321W        W22795  16.988  10.609   2.266  0.1152  0.0162  0.0897
 6322W        W22796   1.595   3.977   5.236  0.1509 -0.1446 -0.0460
 6323W        W22797   0.833   7.887  14.448 -0.2254  0.0822  0.1342
 6324W        W22798  11.287  12.053   0.411  0.1553 -0.3081  0.1388
 6325W        W22799   8.723  11.497   0.986  0.3597 -0.1313  0.3576
 6326W        W22800   6.529  11.509  14.949  0.1229  0.3980 -0.1057
 6327W        W22801   7.059   4.049   5.079 -0.0826 -0.2261 -0.0472
 6328W        W22802  15.448  14.470   0.341 -0.1940 -0.1523 -0.0940
 6329W        W22803   6.133   9.333  11.229 -0.1205  0.2577  0.0861
 6330W        W22804   8.466  17.752   2.820  0.0762 -0.0116  0.0415
 6331W        W22805   7.931   7.947  14.955 -0.1288  0.0498  0.0111
 6332W        W22806  11.913   9.609   0.318 -0.1803 -0.0171 -0.0892
 6333W        W22807   4.795  11.443   4.394 -0.2680  0.2716  0.2543
 6334W        W22808   8.555   8.778  10.868  0.0459  0.0052 -0.0599
 6335W        W22809   3.431  18.018   5.170  0.2032 -0.3398  0.1089
 6336W        W22810   4.100   2.180  14.451  0.0380  0.0915 -0.1692
 6337W        W22811   0.407   6.838  13.432 -0.3313 -0.0915  0.0624
 6338W        W22812  16.157   5.098   2.044 -0.0176 -0.1302 -0.0560
 6339W        W22813   3.711   8.590   3.348 -0.3276  0.1467  0.0561
 6340W        W22814   0.135  13.796   0.971 -0.0982 -0.0527  0.1413
 6341W        W22815   7.253   6.445   4.127 -0.4954  0.2231 -0.0788
 6342W        W22816   8.724  14.636  14.028 -0.0910 -0.4448  0.0768
 6343W        W22817   8.207  16.995  13.020 -0.0907 -0.0520 -0.0863
 6344W        W22818   3.927   1.438  13.830 -0.0311  0.0971 -0.0006
 6345W        W22819  10.852  16.860  14.264 -0.3509 -0.0716  0.0945
 6346W        W22820  13.127  16.583  13.784  0.1464 -0.0867  0.1151
 6347W        W22821  14.734   8.255   2.896 -0.0846  0.3462  0.0422
 6348W        W22822  12.864  11.088   3.584  0.2810 -0.0759  0.2876
 6349W        W22823  17.714  16.218  15.933 -0.1287  0.1084 -0.0111
 6350W        W22824   3.808  11.861  12.118 -0.1415 -0.0488  0.2081
 6351W        W22825   1.037  13.771   1.509  0.2366  0.0788  0.0264
 6352W        W22826   3.183   2.987  16.327  0.2802  0.0035 -0.3265
 6353W        W22827   2.314  10.929   5.309  0.1684 -0.0237  0.0634
 6354W        W22828   3.109   2.329   1.047 -0.0509  0.0385  0.0569
 6355W        W22829   2.709   5.230  16.169 -0.1263 -0.1093  0.1761
 6356W        W22830   4.467   9.230  12.127 -0.1022 -0.0961 -0.0488
 6357W        W22831  16.933   9.998   4.053 -0.1761  0.1677 -0.0090
 6358W        W22832   5.585  12.853  12.962 -0.0507 -0.1194  0.4940
 6359W        W22833  11.435   8.960  15.643 -0.0697 -0.3097 -0.1296
 6360W        W22834  15.630  11.499   2.165  0.3339  0.1656  0.1117
 6361W        W22835   6.620   3.476  14.688 -0.1094  0.0758 -0.1197
 6362W        W22836   9.718   8.289   0.994  0.0124 -0.2752  0.0912
 6363W        W22837   9.745   0.929  14.884  0.2892  0.1629 -0.0692
 6364W        W22838  17.328   9.140   0.378 -0.2306 -0.0128 -0.0070
 6365W        W22839  10.026   8.566   1.773 -0.2082 -0.2357  0.1437
 6366W        W22840  13.792  17.840   4.938  0.0672  0.0987 -0.0503
 6367W        W22841   0.293  10.799   3.016 -0.0919 -0.0962  0.0396
 6368W        W22842   8.497  13.521   3.370 -0.1440  0.0104  0.2476
 6369W        W22843   4.829  17.942   0.211  0.0168 -0.2737 -0.2101
 6370W        W22844  15.493   0.409   3.212 -0.0037  0.1194  0.2138
 6371W        W22845   7.122   5.063   5.353 -0.1183  0.1966 -0.2013
 6372W        W22846  12.520   7.714   5.687  0.1241  0.1094  0.2565
 6373W        W22847   1.054  16.474   1.069 -0.1445 -0.1962 -0.2353
 6374W        W22848   8.711   7.624  14.062 -0.1061  0.1517 -0.5266
 6375W        W22849  15.660   3.450   4.742  0.0979  0.1083  0.2878
 6376W        W22850  10.182  18.006  11.689  0.0030 -0.0597 -0.2057
 6377W        W22851  17.933   9.242   3.353 -0.0549  0.1239 -0.2702
 6378W        W22852   9.978  15.402  14.951  0.0514  0.1296 -0.0222
 6379W        W22853  13.039  11.189   2.223 -0.2538 -0.0178 -0.0989
 6380W        W22854   9.321   7.926  14.097 -0.3448  0.0053  0.1486
 6381W        W22855   9.930  10.447   3.501 -0.0786  0.1428  0.1454
 6382W        W22856   0.554   9.439   5.501  0.3219 -0.0786 -0.0229
 6383W        W22857  15.112  15.703  11.006  0.1604  0.0532 -0.0935
 6384W        W22858   3.938  15.204   2.866  0.4936 -0.0350 -0.1543
 6385W        W22859   2.976   4.153   3.626  0.1776  0.1724  0.0521
 6386W        W22860   7.694   9.855   3.547 -0.0244 -0.0324  0.0027
 6387W        W22861  16.565   6.895  13.815  0.1165 -0.0920 -0.2777
 6388W        W22862  13.558  18.118  12.021 -0.0835  0.0369  0.1597
 6389W        W22863   4.360  12.192  12.676  0.0756  0.1427 -0.1148
 6390W        W22864   3.285   2.225   4.984  0.1432 -0.1329  0.0055
 6391W        W22865  11.773   5.915   4.613  0.3498  0.0765  0.0865
 6392W        W22866   2.051  13.763   0.522 -0.1784  0.0563  0.1153
 6393W        W22867   8.018   1.962   0.780  0.1661  0.0249 -0.2009
 6394W        W22868   1.635   1.267  16.298  0.0093 -0.1149  0.0701
 6395W        W22869  13.135   6.477   4.600  0.3447  0.1325 -0.0493
 6396W        W22870  15.957  11.869   2.017 -0.0946  0.1627 -0.1254
 6397W        W22871   1.102  10.586   4.610 -0.1766 -0.0839  0.1876
 6398W        W22872   8.699   9.351  14.354  0.0168 -0.0930  0.2846
 6399W        W22873   0.197  11.139  15.049 -0.0550  0.0134  0.1264
 6400W        W22874   6.320   9.769   0.621 -0.1386  0.0241 -0.0126
 6401W        W22875  16.792   8.790  14.291  0.0877 -0.0344  0.2060
 6402W        W22876  10.066   5.162   0.670 -0.2616  0.1317 -0.0677
 6403W        W22877   3.737  14.974  13.033  0.2903 -0.0850 -0.0337
 6404W        W22878  10.109  12.705  15.514 -0.1958 -0.0021 -0.0151
 6405W        W22879   0.415  10.539  11.463  0.0905 -0.0781  0.0307
 6406W        W22880   9.572   7.799   0.112 -0.1202 -0.2276  0.0989
 6407W        W22881  15.092  12.553  11.544  0.0233 -0.1860  0.0967
 6408W        W22882  13.412   7.263   1.356  0.1157 -0.0472  0.0150
 6409W        W22883  10.775  10.263  16.191 -0.1373 -0.1658  0.1060
 6410W        W22884   5.160   3.750  14.255 -0.2511 -0.0116  0.1504
 6411W        W22885  10.747  16.904   3.954 -0.3041  0.3977 -0.3384
 6412W        W22886  11.970  16.286   2.283 -0.0916  0.0791  0.1834
 6413W        W22887   8.214  12.372  16.128  0.1333 -0.2587  0.1519
 6414W        W22888   4.059   2.131   4.365  0.0697  0.1363 -0.1084
 6415W        W22889   4.459   0.931  15.975 -0.3063  0.0635  0.1809
 6416W        W22890   8.266  14.950  11.687 -0.0313  0.0028  0.0334
 6417W        W22891  10.998   4.119  15.299 -0.3011  0.2613  0.0230
 6418W        W22892  12.382   5.261   3.024  0.1620  0.0567 -0.0683
 6419W        W22893   4.244   5.128   3.952 -0.1256 -0.1996 -0.0617
 6420W        W22894   1.648   8.529   2.002  0.0941 -0.2941 -0.0290
 6421W        W22895   7.922  15.581  12.698  0.0353  0.6354 -0.1224
 6422W        W22896   3.032  16.444  15.720 -0.1663  0.1599  0.2903
 6423W        W22897  16.641   6.552  14.158  0.0779  0.0955  0.1396
 6424W        W22898   6.001   1.870  14.424 -0.1255 -0.5589  0.1046
 6425W        W22899  11.035   2.172   3.863  0.0610  0.1889 -0.0378
 6426W        W22900   6.641   8.003  13.559  0.2156  0.2144  0.0734
 6427W        W22901  16.432  10.612   0.710 -0.0119 -0.2233  0.5895
 6428W        W22902   2.608  16.063  15.323  0.1544  0.1646 -0.1370
 6429W        W22903   8.006   3.565   0.649  0.0379  0.3317  0.0768
 6430W        W22904   2.247   9.330  11.594 -0.1764  0.1881 -0.1253
 6431W        W22905   9.130  16.657   2.302  0.1698 -0.2032 -0.1800
 6432W        W22906   2.933   1.680   0.449  0.0681 -0.0228  0.1998
 6433W        W22907   4.276   7.562  12.117  0.1436  0.3503 -0.0377
 6434W        W22908  15.130  11.055   3.869  0.0216  0.1021 -0.0737
 6435W        W22909  11.822  13.703   5.619  0.1649  0.0976 -0.1130
 6436W        W22910   8.731   7.952  15.392 -0.0415 -0.2300 -0.0585
 6437W        W22911   3.136   9.113   6.241 -0.0217 -0.0361  0.1754
 6438W        W22912  17.158  12.501   1.393  0.1214 -0.2511  0.3068
 6439W        W22913   6.221  14.672   5.678  0.0686 -0.1082  0.3074
 6440W        W22914   1.080  14.288   5.016  0.0510  0.1943  0.1006
 6441W        W22915  16.015   0.653  12.355 -0.0821 -0.5191 -0.1715
 6442W        W22916  13.001   5.828   1.404 -0.1245  0.2150 -0.1375
 6443W        W22917  15.245   1.544  13.524  0.1343 -0.1770 -0.0674
 6444W        W22918  17.185   3.875  12.183  0.0036  0.2145  0.0199
 6445W        W22919  15.899  16.565  16.276  0.1810  0.0219  0.0217
 6446W        W22920  10.460  10.611   4.681 -0.1548 -0.0357  0.0167
 6447W        W22921  11.707  14.872   3.862  0.1590 -0.1970 -0.2502
 6448W        W22922   9.253  12.531   2.001 -0.2505 -0.2341 -0.1162
 6449W        W22923  12.764  14.696  11.113 -0.2170  0.0015 -0.1471
 6450W        W22924   6.674  15.744   0.460 -0.1289 -0.1766  0.2112
 6451W        W22925   9.710   2.406   2.343  0.0616 -0.0706  0.0416
 6452W        W22926   3.621  10.428  11.552  0.1489  0.2320  0.2282
 6453W        W22927  13.915  18.076   4.406 -0.2339 -0.0686  0.0566
 6454W        W22928  10.886  11.049   4.981 -0.0429 -0.0381  0.0849
 6455W        W22929  17.560  15.889   4.998 -0.0709 -0.1527  0.2069
 6456W        W22930   6.123   3.006   0.334 -0.1051 -0.5145 -0.0754
 6457W        W22931   7.563  10.980  15.876 -0.0028 -0.1913  0.0221
 6458W        W22932   3.676   0.484   3.300  0.2663  0.1781 -0.1028
 6459W        W22933   8.971  11.884  12.041  0.0281 -0.0594  0.1377
 6460W        W22934   9.149  14.252  11.852  0.2175  0.2555  0.0459
 6461W        W22935   0.388   5.829   4.665 -0.2690  0.2764 -0.1528
 6462W        W22936   3.882  13.194  14.468  0.2490  0.0680  0.2279
 6463W        W22937   9.241  16.059  13.969 -0.2469  0.1306  0.0354
 6464W        W22938   7.013  16.248   3.920 -0.1484  0.2142 -0.3131
 6465W        W22939   4.560  10.174   2.396  0.2154 -0.2784  0.0032
 6466W        W22940   8.557  18.141  14.674 -0.0036 -0.2525 -0.0792
 6467W        W22941   9.012   3.933   4.477  0.3048 -0.1644 -0.0909
 6468W        W22942   9.350  13.388   1.261 -0.2329  0.2066 -0.2785
 6469W        W22943   2.546  15.634   6.175  0.1657 -0.5736 -0.1360
 6470W        W22944   5.083  17.673   4.600  0.1479 -0.3863  0.1357
 6471W        W22945   2.132   5.108   5.447  0.1325  0.0413 -0.1531
 6472W        W22946   4.533   1.941   2.590 -0.0102  0.2559 -0.1013
 6473W        W22947   4.539   7.958  14.840  0.0839  0.0785 -0.0423
 6474W        W22948   5.091   1.021   4.463 -0.0949  0.0198 -0.1889
 6475W        W22949  12.068   8.763   4.777 -0.3182  0.4021 -0.1383
 6476W        W22950   9.761  10.603  11.807  0.0295  0.2278 -0.0959
 6477W        W22951   4.339  14.261   3.610 -0.3680  0.0825 -0.2115
 6478W        W22952  17.594  13.608   1.964 -0.2938  0.3329 -0.1185
 6479W        W22953  16.716   5.589  13.052  0.2818 -0.2007 -0.0593
 6480W        W22954  11.513   6.540   5.775  0.4323 -0.2042  0.1410
 6481W        W22955   7.042   6.625  12.061 -0.0711 -0.1454 -0.2237
 6482W        W22956  10.544   5.894  15.984  0.0475  0.1350  0.0354
 6483W        W22957   4.517   1.809  13.390 -0.0483  0.1398  0.2325
 6484W        W22958   8.986  13.603  15.040 -0.0563 -0.1536 -0.1340
 6485W        W22959  17.359   2.587  11.999  0.1178  0.0695  0.3778
 6486W        W22960   6.674   5.316   3.227 -0.1454  0.3470  0.0170
 6487W        W22961  10.816  11.579   3.449  0.1532 -0.0862  0.0519
 6488W        W22962  15.942  16.295   5.367 -0.0472  0.3258 -0.0294
 6489W        W22963  11.049   3.178  15.654  0.0278  0.2169 -0.0208
 6490W        W22964  16.921   8.502  16.328 -0.2890  0.0660  0.1478
 6491W        W22965  12.164  15.830   0.694 -0.2246  0.1132 -0.0348
 6492W        W22966  16.974  12.993  15.634  0.2821 -0.0585  0.1055
 6493W        W22967   6.884  13.212  11.500  0.1105  0.1102 -0.2140
 6494W        W22968  11.023  10.475   1.754  0.0683 -0.0033  0.1765
 6495W        W22969  13.010   9.755   3.442  0.2412  0.0753 -0.0274
 6496W        W22970   0.900  12.615   0.499  0.2197 -0.0606 -0.2323
 6497W        W22971  16.028  12.826   4.482 -0.2385  0.0188 -0.0418
 6498W        W22972  13.239   8.104   4.626  0.0323  0.0433 -0.0987
 6499W        W22973  14.675   0.865  14.952  0.0782  0.2482 -0.1025
 6500W        W22974   9.988  11.175  11.252 -0.0107  0.0075 -0.3697
 6501W        W22975  14.415   2.135  16.086  0.0056  0.0839 -0.0806
 6502W        W22976   2.551  11.195  13.782  0.1110  0.0696 -0.2678
 6503W        W22977  11.845   5.239  11.380  0.0015 -0.1752  0.1470
 6504W        W22978  15.802  11.703   5.080  0.1656 -0.1202  0.3007
 6505W        W22979  12.703  15.324   2.899 -0.0996 -0.1716  0.2349
 6506W        W22980   6.322   4.830   4.345 -0.2196 -0.0882 -0.0817
 6507W        W22981   2.467  14.330   0.282 -0.0183 -0.0585 -0.2907
 6508W        W22982   9.012   6.416   2.683  0.1497  0.0093  0.1249
 6509W        W22983   7.032   3.805  12.907 -0.1961 -0.0186 -0.5652
 6510W        W22984   4.648   2.878   2.287 -0.1906  0.0849  0.2567
 6511W        W22985   4.337  16.545  14.275 -0.2953 -0.0797  0.0100
 6512W        W22986   5.285   1.860  15.133 -0.1959  0.1299 -0.0635
 6513W        W22987   2.245   1.331  15.350  0.1716  0.0065  0.1770
 6514W        W22988   8.540  14.921   3.352 -0.1324 -0.0279  0.0791
 6515W        W22989  15.653   1.764   4.481 -0.2000 -0.0744  0.0036
 6516W        W22990  10.398  12.256   2.966 -0.3511 -0.0584 -0.0856
 6517W        W22991  17.909   5.533  16.133  0.1210  0.1784 -0.0550
 6518W        W22992   2.764  11.324  14.940  0.1379 -0.0158  0.0783
 6519W        W22993  17.426   5.529  13.647 -0.0789  0.0647  0.2158
 6520W        W22994   1.941   9.906  15.308 -0.0152  0.1099  0.3572
 6521W        W22995  11.888  17.898   3.225  0.1047  0.2509  0.2710
 6522W        W22996   4.829   1.779   3.930  0.1261  0.0017  0.0041
 6523W        W22997   8.239   2.706  14.159  0.2434 -0.2059  0.1626
 6524W        W22998  16.702   1.036   5.146  0.1844 -0.1574  0.1409
 6525W        W22999  16.951   1.648   0.248  0.0300  0.0917  0.1516
 6526W        W23000   4.145  11.736   2.589  0.0891 -0.2701 -0.4715
 6527W        W23001  15.451  13.016   2.371  0.0296 -0.0549 -0.1348
 6528W        W23002   2.768   3.828   1.891  0.0833  0.0077  0.0073
 6529W        W23003  15.129   4.464   0.565  0.0340  0.0476  0.2124
 6530W        W23004  15.197   0.749   0.048 -0.0538  0.2866 -0.1243
 6531W        W23005   6.913  17.786   3.677 -0.2588  0.2011 -0.0210
 6532W        W23006  10.542   6.263   3.122  0.0572 -0.1470 -0.0496
 6533W        W23007   7.693   2.343   5.565  0.0332  0.2852 -0.1911
 6534W        W23008  10.425  10.158   0.148  0.1127 -0.1888 -0.1150
 6535W        W23009   6.459   7.938   5.350  0.0050 -0.0141 -0.3691
 6536W        W23010   8.055  11.849  12.604 -0.0154  0.0385  0.3386
 6537W        W23011  17.941   5.259   2.656  0.1175  0.1003 -0.2567
 6538W        W23012  12.298  12.447  12.556 -0.0700  0.1295  0.0054
 6539W        W23013   0.269  16.837  16.072 -0.0333  0.1476  0.2288
 6540W        W23014   9.693   8.272   1.989 -0.2806  0.1436 -0.1272
 6541W        W23015   3.785  13.143   0.668  0.4269  0.1791 -0.1585
 6542W        W23016  15.185   6.552  12.737 -0.0173  0.1359 -0.0503
 6543W        W23017   8.487  14.151   1.626  0.2322  0.0241 -0.2842
 6544W        W23018   1.227  10.258   0.848  0.0102  0.1564 -0.0654
 6545W        W23019   6.504  13.828   0.693  0.0773 -0.0701 -0.1950
 6546W        W23020   2.847   4.999  12.552  0.0882 -0.0445  0.0518
 6547W        W23021  15.265   4.935   1.387 -0.0415  0.2089 -0.1604
 6548W        W23022  16.324  14.200   5.052  0.2337  0.0537  0.1160
 6549W        W23023   1.629  14.540   5.210  0.2861  0.0971  0.1626
 6550W        W23024   4.686   8.013  12.914 -0.0373 -0.0080 -0.1231
 6551W        W23025  16.558  17.746  14.382 -0.0260  0.3147 -0.1609
 6552W        W23026   8.558   9.895   5.798  0.0971  0.2923  0.4199
 6553W        W23027   7.191   9.373   4.663 -0.0254 -0.0210 -0.3262
 6554W        W23028  11.328  13.136  12.298 -0.1575 -0.1471  0.1471
 6555W        W23029  14.234  15.176  11.468  0.4011 -0.4514 -0.1035
 6556W        W23030   6.868  12.264  13.005  0.2324 -0.1294 -0.1899
 6557W        W23031  15.653   2.693   4.074 -0.0557  0.1046 -0.2938
 6558W        W23032  11.007   6.035  13.347  0.0748  0.0653 -0.0852
 6559W        W23033  13.005  13.579   4.285 -0.1000  0.0045  0.3592
 6560W        W23034  14.488   0.593   5.465 -0.3367  0.2538  0.0869
 6561W        W23035   9.784   7.000  12.461 -0.2908 -0.1530  0.0582
 6562W        W23036   7.106   4.746   0.504  0.0498 -0.2015 -0.4070
 6563W        W23037   4.217   5.544   3.670 -0.0536  0.0538  0.4333
 6564W        W23038   8.833   7.595   5.197  0.3254  0.3312  0.1728
 6565W        W23039   1.819  13.080  14.746  0.2755  0.0724  0.0094
 6566W        W23040   9.097   5.846  14.788  0.1527 -0.2192 -0.1323
 6567W        W23041   2.049   8.491   0.346 -0.3222  0.1593  0.0941
 6568W        W23042   0.583  16.976   4.483  0.2289 -0.1963 -0.0626
 6569W        W23043   9.076   9.010   0.958  0.0735 -0.1376 -0.0315
 6570W        W23044   1.229   8.840   0.012  0.0445  0.0789  0.2688
 6571W        W23045   8.658   2.546   3.963  0.1042 -0.0266  0.0418
 6572W        W23046   1.769   1.783  12.271  0.1216 -0.0586 -0.2991
 6573W        W23047  17.895  11.354  14.302  0.1435  0.0380 -0.3844
 6574W        W23048   5.536  10.802  13.549  0.2213  0.1542 -0.1792
 6575W        W23049   1.553   7.585   4.912  0.0751 -0.0608  0.0317
 6576W        W23050   6.073  11.350   3.029  0.1604  0.3492 -0.0539
 6577W        W23051  11.430  17.350  12.542  0.2420 -0.3089 -0.0965
 6578W        W23052   2.633   6.484  11.042 -0.1142 -0.0690  0.1324
 6579W        W23053  13.459  17.527  13.932 -0.2429  0.0831 -0.0208
 6580W        W23054   9.184   6.405   2.198  0.2774  0.2316  0.1051
 6581W        W23055   4.397  17.214   4.386  0.1700  0.0040 -0.0427
 6582W        W23056   4.708  10.897   1.710 -0.1428  0.0724  0.1879
 6583W        W23057  13.533  12.331  13.225  0.2223  0.1626  0.1150
 6584W        W23058   2.866  12.342  15.739  0.2431  0.0357 -0.0784
 6585W        W23059   1.116  10.091   1.859  0.0051 -0.1867 -0.1682
 6586W        W23060  14.857   2.661  12.217 -0.1884 -0.5718  0.2963
 6587W        W23061   7.338   7.525   1.650 -0.1007 -0.0569 -0.1310
 6588W        W23062  17.883   6.282  13.430  0.0414  0.1680 -0.2272
 6589W        W23063   4.448   3.859   4.240 -0.1750  0.1520 -0.1243
 6590W        W23064  15.096  12.130  12.747 -0.0498  0.2359 -0.0490
 6591W        W23065  18.151  16.431   0.720 -0.0401  0.0528 -0.1713
 6592W        W23066   5.859   2.872   1.628 -0.0158 -0.1942  0.1287
 6593W        W23067  11.669  14.948  13.866  0.1155 -0.3028 -0.0066
 6594W        W23068  12.889   4.599   0.332  0.1216 -0.2721 -0.0847
 6595W        W23069   4.559  10.151  11.160 -0.5588  0.3776 -0.2112
 6596W        W23070   6.870  15.315  15.188 -0.0835  0.2070 -0.0167
 6597W        W23071  12.440   7.795  14.316 -0.1097 -0.1261  0.1120
 6598W        W23072  10.497  15.799  13.755  0.0612 -0.1760 -0.1780
 6599W        W23073   8.147  13.485  11.763 -0.0694  0.2453 -0.1466
 6600W        W23074  15.809  17.882  15.545 -0.2433 -0.0952  0.2176
 6601W        W23075   0.198  13.657   1.970 -0.1163  0.1535 -0.0635
 6602W        W23076   9.291   0.437   2.352 -0.1984  0.1487  0.1560
 6603W        W23077   7.258   8.009   1.713  0.1400  0.1558 -0.0684
 6604W        W23078   7.604   2.827   4.810  0.0907  0.0468  0.1036
 6605W        W23079   5.419  15.662  13.406  0.1745 -0.2996 -0.0952
 6606W        W23080   2.419  15.163   3.263 -0.3600  0.2571 -0.0537
 6607W        W23081   3.659   6.447  14.795 -0.2984  0.0193  0.1936
 6608W        W23082  14.032   4.993   1.968 -0.1462 -0.3418  0.2034
 6609W        W23083  17.008  12.163   0.963  0.2813  0.0777  0.0442
 6610W        W23084  17.736   6.224  11.838  0.0851  0.0855 -0.2415
 6611W        W23085  10.549   9.714   0.491 -0.1716 -0.1263 -0.3091
 6612W        W23086  17.325   8.345   3.904  0.2276 -0.1950  0.0665
 6613W        W23087   0.677   7.480   2.539 -0.1664  0.2204 -0.0400
 6614W        W23088  16.842  13.225   2.432 -0.3278  0.0710 -0.0518
 6615W        W23089   9.561   9.925  11.130 -0.1073 -0.3959  0.0275
 6616W        W23090   6.091   7.101   3.999  0.0435  0.0035  0.0744
 6617W        W23091   4.559   0.140  13.374  0.0013  0.1004 -0.2393
 6618W        W23092   3.120  10.707   5.319  0.0994  0.0286  0.2361
 6619W        W23093   9.724  16.084  11.881  0.0970  0.0169  0.0234
 6620W        W23094  18.035   7.595   3.018 -0.0125  0.0654 -0.4949
 6621W        W23095   5.548   5.584   0.033 -0.0240  0.0796 -0.1164
 6622W        W23096   3.372   0.425   1.801 -0.0145 -0.0026 -0.0334
 6623W        W23097   5.597   6.126   2.068  0.0031  0.0078 -0.5661
 6624W        W23098   5.731  10.654   3.660 -0.0379 -0.1309 -0.0253
 6625W        W23099  11.536  10.214   0.988 -0.0723  0.0884 -0.2310
 6626W        W23100   1.778   9.352  11.219 -0.2801 -0.1019 -0.1342
 6627W        W23101  10.074   4.088  13.892  0.0231  0.2232 -0.0447
 6628W        W23102  11.141   2.780  14.504 -0.0935  0.0869  0.0266
 6629W        W23103   9.669   2.093   2.834 -0.0243 -0.2345  0.0317
 6630W        W23104  16.312  16.888  16.214 -0.2319  0.0456  0.1758
 6631W        W23105  12.715  13.298   2.277  0.0840 -0.0776 -0.1309
 6632W        W23106   7.826  11.736  14.768  0.1562 -0.1650  0.2170
 6633W        W23107  13.599   0.646   1.715  0.1504 -0.0577  0.1144
 6634W        W23108   4.891  13.944  15.347  0.1284  0.2560  0.1840
 6635W        W23109   5.654   0.819  15.820  0.2610  0.1756  0.1386
 6636W        W23110  11.024  10.000   2.702  0.0827 -0.0951  0.1212
 6637W        W23111   7.866   2.812   1.900  0.0183 -0.3594  0.2385
 6638W        W23112  14.728   5.274   3.240  0.1375 -0.0049 -0.3661
 6639W        W23113   0.248  17.392  12.990  0.0749 -0.1270 -0.0086
 6640W        W23114  15.334  13.002   3.292  0.1502 -0.1597 -0.2786
 6641W        W23115   0.162   7.587  15.601 -0.2044  0.4711  0.0272
 6642W        W23116  13.763   2.862   1.337  0.1131  0.1429 -0.0810
 6643W        W23117  17.601   0.153   4.677 -0.0431  0.0153  0.0555
 6644W        W23118   9.489  14.570   1.644 -0.3461 -0.0593 -0.0132
 6645W        W23119   3.660  15.576   3.583  0.1182  0.2006 -0.1771
 6646W        W23120  13.963   4.368  14.015  0.0469 -0.0757  0.2543
 6647W        W23121   0.316  11.901  13.959 -0.0897 -0.0605 -0.0187
 6648W        W23122  10.658   3.052   1.165 -0.0546  0.3849  0.2728
 6649W        W23123   9.882   0.009   3.502 -0.3456 -0.3241 -0.0916
 6650W        W23124   5.332  13.126  14.187  0.0199 -0.0422  0.1488
 6651W        W23125  14.777   8.793   3.591 -0.0310 -0.3457 -0.1961
 6652W        W23126  13.742  12.422   1.149 -0.1575  0.1501 -0.2112
 6653W        W23127   0.052  17.591  15.131 -0.3194  0.1061  0.0900
 6654W        W23128  11.117  18.049   2.021  0.1084  0.0382  0.0478
 6655W        W23129   0.817   7.073   4.429 -0.1751  0.0322  0.1157
 6656W        W23130   6.617  17.898   0.959 -0.1063 -0.0831  0.2154
 6657W        W23131   3.885  18.129  11.629 -0.0198  0.2895  0.0052
 6658W        W23132   4.170  12.461  13.766 -0.1198  0.3773  0.3597
 6659W        W23133   6.715   3.920  11.649 -0.1290  0.0768 -0.0051
 6660W        W23134  14.654  13.238  14.385  0.1074 -0.0075  0.4565
 6661W        W23135   1.783  16.152   4.346  0.2716  0.0357  0.1150
 6662W        W23136   3.270   2.117  13.071 -0.1862 -0.0921  0.1957
 6663W        W23137  13.279   0.525  14.170 -0.0229 -0.0524 -0.2435
 6664W        W23138   1.253  17.995  13.053 -0.3425  0.1684 -0.1192
 6665W        W23139   3.613   1.282  13.471 -0.0150 -0.1607  0.3610
 6666W        W23140   7.752   9.636  15.377 -0.0023 -0.0942 -0.0153
 6667W        W23141   4.405   1.423   3.475  0.0508 -0.0797  0.0560
 6668W        W23142  11.782   5.615  13.714 -0.1760 -0.1299  0.0584
 6669W        W23143   8.563  12.207  14.556  0.0020  0.1929  0.2529
 6670W        W23144   9.158  11.964  14.004  0.1900 -0.1280 -0.2749
 6671W        W23145   0.070  12.170  14.835 -0.0620 -0.1087  0.0256
 6672W        W23146   8.352   6.493  12.990  0.0349 -0.0540 -0.1740
 6673W        W23147   9.645   3.304  15.215 -0.0754  0.4368 -0.0656
 6674W        W23148   1.258  13.193  12.549 -0.2889  0.0747  0.1776
 6675W        W23149  17.231   6.894  15.796  0.0418 -0.2272 -0.0650
 6676W        W23150  14.630  15.938  13.325 -0.2077  0.4876 -0.1554
 6677W        W23151   9.771  12.404  14.606 -0.0493 -0.0124  0.1188
 6678W        W23152  16.613  13.602  14.741  0.3914  0.0394  0.0713
 6679W        W23153  13.462  12.798   6.172 -0.1648  0.0155 -0.1476
 6680W        W23154  13.137   3.835  12.256  0.1176  0.1453  0.0706
 6681W        W23155  12.842   7.931   3.778  0.0318  0.1149 -0.0940
 6682W        W23156  10.677   6.973  13.656 -0.1007  0.1930 -0.0485
 6683W        W23157  17.732   0.143  11.859 -0.1713 -0.0468 -0.3315
 6684W        W23158   0.779  12.973  14.859 -0.1295 -0.1648  0.0306
 6685W        W23159   6.871   0.466  12.135  0.1108  0.3218  0.1390
 6686W        W23160   7.499  14.801  13.080  0.2695 -0.3813 -0.1136
 6687W        W23161  10.356  12.073  14.856  0.0227 -0.3042 -0.4016
 6688W        W23162   3.091  14.348  15.590  0.1091  0.1333 -0.0926
 6689W        W23163  17.035  13.306  12.374 -0.3151  0.1155 -0.0005
 6690W        W23164   6.838   9.846  12.759  0.0794  0.1527 -0.0084
 6691W        W23165  13.616  13.806  11.641  0.0508 -0.0528 -0.0822
 6692W        W23166  16.240   0.603  11.302 -0.3209 -0.1465  0.1450
 6693W        W23167   7.034   9.151   3.877  0.3271 -0.1653 -0.2279
 6694W        W23168  14.516   0.138   0.706 -0.1606 -0.3163 -0.0070
 6695W        W23169  17.791  16.086   2.065  0.3972 -0.2909 -0.2447
 6696W        W23170   6.244  17.768   0.130 -0.1614  0.1264 -0.3210
 6697W        W23171   3.015  15.015  16.207 -0.0353  0.1686  0.3642
 6698W        W23172   8.698   7.106  13.447 -0.3994 -0.3283  0.3189
 6699W        W23173  18.173   8.625   4.154 -0.0687  0.2375 -0.2372
 6700W        W23174   6.282   7.712  14.580  0.1383  0.0517  0.0766
 6701W        W23175   0.532   0.051   5.631 -0.1422  0.2865  0.0489
 6702W        W23176  13.326  16.072  12.133  0.1432  0.2327 -0.1772
 6703W        W23177  10.361   7.105   3.599 -0.1043  0.0881  0.1818
 6704W        W23178   9.237   4.623   2.554 -0.0575  0.2802 -0.2133
 6705W        W23179  14.262  13.126   0.054  0.3047 -0.0107 -0.1890
 6706W        W23180   0.012   2.273   3.927  0.2302  0.0929 -0.0690
 6707W        W23181   2.351  13.693   5.122  0.1302 -0.2478 -0.1964
 6708W        W23182   5.487  11.552  15.923 -0.3484 -0.1809 -0.1939
 6709W        W23183  17.539  17.398   2.792 -0.1619  0.1574  0.1329
 6710W        W23184   4.855  10.150  14.334  0.0202  0.0957 -0.0378
 6711W        W23185  10.874   4.843  11.384  0.2079 -0.0894 -0.0830
 6712W        W23186   3.375  11.241  12.002 -0.0755  0.0726  0.0303
 6713W        W23187  14.247   5.117  11.487  0.1432  0.1151  0.1256
 6714W        W23188  14.900   0.741  13.386  0.0190 -0.2921 -0.0691
 6715W        W23189   3.155   1.119  11.917 -0.0087  0.2185 -0.0534
 6716W        W23190   5.024   2.210   5.977 -0.1507 -0.2961  0.2723
 6717W        W23191   5.095   2.126  12.688 -0.1236 -0.2851  0.0519
 6718W        W23192  11.726  14.562   0.958 -0.0610 -0.0959  0.1707
 6719W        W23193   0.662   1.686   1.653 -0.1152  0.0951 -0.1142
 6720W        W23194  11.601   7.407   3.995  0.0554 -0.0463  0.2466
 6721W        W23195  10.940   4.374  10.614 -0.4373  0.0279 -0.2222
 6722W        W23196   3.220  17.043  11.653  0.2520  0.2026 -0.2537
 6723W        W23197   2.936   7.641  12.752 -0.2306  0.2371 -0.0107
 6724W        W23198  13.066   5.572  14.851 -0.0429 -0.0791  0.0837
 6725W        W23199   7.605   4.701   0.423  0.0326 -0.2097 -0.1130
 6726W        W23200  14.111  12.408  13.788 -0.2738 -0.0318 -0.1143
 6727W        W23201   3.348   9.847   5.022  0.1961  0.1134 -0.1764
 6728W        W23202   2.640   8.876  13.959  0.1014  0.0240 -0.1126
 6729W        W23203  10.570   9.973  13.914 -0.1140 -0.2399  0.0169
 6730W        W23204  14.881  11.377  14.802 -0.4095 -0.3182  0.1652
 6731W        W23205  11.000  10.701   2.549 -0.1900  0.1106  0.0025
 6732W        W23206   5.806  16.868  14.536  0.1091  0.4430 -0.0343
 6733W        W23207   8.440  12.126   5.158  0.1757  0.0940  0.0500
 6734W        W23208  13.693   3.224   3.994  0.1388  0.4051  0.1300
 6735W        W23209   4.306   4.869   1.973  0.3028  0.1937 -0.0757
 6736W        W23210   7.135  10.365   2.958 -0.0937 -0.1129  0.2067
 6737W        W23211  12.431   8.994   1.382 -0.0716 -0.1926  0.1590
 6738W        W23212  13.583   2.167  12.503 -0.2300  0.0024  0.0397
 6739W        W23213   7.418  13.776   2.292 -0.0492  0.1327 -0.2515
 6740W        W23214  10.686  12.637  13.232  0.1501  0.1704 -0.2119
 6741W        W23215   1.344  13.080  13.989  0.3667 -0.0489  0.2760
 6742W        W23216   2.115   8.595  13.227  0.1183  0.0768 -0.0859
 6743W        W23217   2.813   2.223  13.400 -0.0207  0.1749  0.0537
 6744W        W23218   8.654  17.160  14.501  0.0802  0.0163  0.0426
 6745W        W23219  15.104  15.488   3.277 -0.0681 -0.3078 -0.0984
 6746W        W23220   4.678   0.549   1.494  0.1450 -0.0628  0.1001
 6747W        W23221   6.871   3.360  12.005  0.0883 -0.1444 -0.2652
 6748W        W23222   2.540  16.234  14.412  0.3130 -0.0644 -0.1815
 6749W        W23223   0.957  11.181   3.385 -0.0315  0.2280  0.2603
 6750W        W23224   9.218  17.318  13.992  0.0388  0.2259  0.2168
 6751W        W23225  13.681  16.401   1.556  0.3241  0.0237  0.2766
 6752W        W23226   1.425   0.580  15.531 -0.0008 -0.2707 -0.0836
 6753W        W23227   6.700  16.476   4.822  0.0935  0.2894  0.2143
 6754W        W23228   4.726  12.024   1.997  0.0025 -0.0915  0.0217
 6755W        W23229   6.014  16.170   0.146  0.0871 -0.0398  0.1004
 6756W        W23230   9.235   3.302  13.360  0.2235 -0.3264  0.1073
 6757W        W23231   7.970  17.060   3.777 -0.0199 -0.0235 -0.0082
 6758W        W23232   8.725  13.301  13.056  0.1557  0.2320  0.1116
 6759W        W23233   0.844  11.058   2.870 -0.0550 -0.0135 -0.0560
 6760W        W23234   6.580   2.326  15.055 -0.1135 -0.0304  0.2577
 6761W        W23235  14.035  17.388  12.970 -0.1308 -0.4000 -0.1059
 6762W        W23236  13.991   3.766  11.179  0.0273 -0.0533  0.0650
 6763W        W23237   1.837   4.429   5.795  0.1516  0.3464 -0.0519
 6764W        W23238  11.895  12.080   0.877 -0.1924  0.0264 -0.2359
 6765W        W23239   5.041   7.577   1.266  0.1738  0.0012  0.0858
 6766W        W23240   2.737  17.681   3.481 -0.0386  0.0241 -0.0208
 6767W        W23241  18.078  17.571  16.342  0.4016  0.1344  0.2362
 6768W        W23242  17.717  14.598   1.622 -0.2426 -0.1556  0.0167
 6769W        W23243  17.297   3.902   3.841  0.1713 -0.0400  0.1372
 6770W        W23244   8.606  13.056  14.478  0.3459  0.1011 -0.1823
 6771W        W23245  17.168  11.344  16.310 -0.2387  0.2594  0.1280
 6772W        W23246  11.013  14.121   1.293  0.2657 -0.0411 -0.0784
 6773W        W23247   8.503  14.337  15.356  0.2959  0.1182  0.3141
 6774W        W23248  16.679   3.100  14.663 -0.4449 -0.1087 -0.2806
 6775W        W23249   9.203   7.249  15.572 -0.0589  0.1369  0.1220
 6776W        W23250  10.519  11.098   4.572 -0.0224 -0.2578  0.0417
 6777W        W23251   6.254   4.356   4.479 -0.0742 -0.2259 -0.2753
 6778W        W23252  17.156  16.878  12.353  0.3073  0.1331  0.1649
 6779W        W23253   8.196  12.381   2.564  0.2188  0.1322 -0.0783
 6780W        W23254  14.055  16.262   5.173 -0.1354 -0.0849 -0.2375
 6781W        W23255  14.524  13.884  11.236  0.0936 -0.0582 -0.3410
 6782W        W23256   8.664  10.369  11.288  0.1123 -0.0903  0.0541
 6783W        W23257   8.430   0.930  13.462 -0.1143 -0.1819 -0.2294
 6784W        W23258   2.697   2.063   4.148  0.0303  0.0840  0.0209
 6785W        W23259   1.665  10.666   3.131 -0.0184 -0.1250 -0.0595
 6786W        W23260   9.225  17.619  11.527 -0.0238  0.1476  0.0372
 6787W        W23261  12.204  14.061  15.405 -0.1800  0.0064  0.2943
 6788W        W23262  10.060  14.164  12.321  0.1054 -0.0596 -0.2055
 6789W        W23263   4.406   8.385  15.926  0.0744 -0.0598  0.0166
 6790W        W23264   8.956   8.758   2.049 -0.1166 -0.3156  0.1012
 6791W        W23265   5.439  13.976  12.194 -0.3163  0.1271 -0.1467
 6792W        W23266  11.290   7.606  15.585  0.0908 -0.0099 -0.2002
 6793W        W23267   6.481  15.683  13.291  0.0907  0.2005  0.3678
 6794W        W23268  10.604   9.069  12.442 -0.2368  0.0624 -0.3368
 6795W        W23269   4.159  10.982   0.069 -0.0751  0.0731  0.0195
 6796W        W23270   1.631   5.377   3.824 -0.1465 -0.1641 -0.1181
 6797W        W23271  10.473   9.750  11.906  0.1027  0.0608  0.1303
 6798W        W23272   8.421  16.098   1.375  0.1415 -0.4369 -0.0338
 6799W        W23273   7.310  15.092  15.850  0.0898  0.1253  0.1002
 6800W        W23274   0.203  15.129   1.531 -0.0857 -0.2131 -0.1505
 6801W        W23275  17.483   4.319   4.225  0.0241  0.0465 -0.0881
 6802W        W23276   3.066  14.496   3.740  0.2843  0.1831  0.1059
 6803W        W23277  16.783   8.846   1.851  0.1775 -0.0434  0.0966
 6804W        W23278   0.398   9.014  13.834  0.2074  0.0021 -0.3000
 6805W        W23279  15.734  17.457   0.295  0.0116  0.2732 -0.0407
 6806W        W23280  15.269   4.902  14.224  0.4087 -0.4704  0.0259
 6807W        W23281   5.344   5.000  16.358 -0.1970 -0.3817 -0.2491
 6808W        W23282  16.579  11.483   3.214 -0.3940 -0.3275  0.0635
 6809W        W23283   5.406   5.256   1.637  0.0614 -0.0297  0.0905
 6810W        W23284   8.375   4.423   3.915 -0.0310  0.0777  0.0377
 6811W        W23285   9.446   9.041  11.113  0.0217  0.0088  0.4348
 6812W        W23286   0.213   3.887  12.373  0.0053  0.1748  0.2421
 6813W        W23287   8.429  17.766  13.051 -0.2134  0.3118 -0.0120
 6814W        W23288   6.057   3.668  14.174  0.1650  0.0578  0.1657
 6815W        W23289   1.610   0.055  11.862  0.1556  0.0415  0.1478
 6816W        W23290  17.523  10.414   3.042  0.2152 -0.0294 -0.1664
 6817W        W23291   9.161   7.068  16.014 -0.1225 -0.1035 -0.1720
 6818W        W23292   8.255  17.744   0.894  0.1208  0.2899 -0.0154
 6819W        W23293   0.909   5.067  14.244  0.1739  0.0830 -0.0526
 6820W        W23294  17.203  16.564  14.769  0.0370  0.2796  0.2052
 6821W        W23295   5.973  14.824   2.331  0.2402  0.0058  0.1482
 6822W        W23296   5.805  16.081   1.243 -0.1636  0.2514 -0.1210
 6823W        W23297  13.280   6.577  12.151  0.2184 -0.2490  0.0195
 6824W        W23298  14.766  14.257   2.955 -0.0725  0.1931  0.0786
 6825W        W23299  14.483   0.463  12.430 -0.1158 -0.0271 -0.0349
 6826W        W23300  10.981   8.889   5.655  0.3828  0.0784  0.1483
 6827W        W23301  16.681  17.317   0.496  0.0992 -0.0187 -0.0104
 6828W        W23302  17.796  15.794  11.724 -0.0277 -0.0470  0.0361
 6829W        W23303  11.772  17.538  13.760 -0.0833  0.3495  0.0206
 6830W        W23304  17.818   0.003   1.098 -0.0589  0.1837  0.1826
 6831W        W23305   5.078   3.259   2.560  0.0977 -0.0266 -0.0027
 6832W        W23306  11.569  13.675  13.066 -0.0448 -0.0785 -0.1452
 6833W        W23307   3.507   9.176   1.135  0.3487 -0.2482 -0.0026
 6834W        W23308   3.406   9.772   1.088 -0.3345 -0.0610  0.1928
 6835W        W23309  15.432   8.339   0.105 -0.0213 -0.0400 -0.1377
 6836W        W23310  17.060  17.509  13.433 -0.1034  0.2278 -0.1020
 6837W        W23311  11.651  13.365  11.279  0.2371 -0.1716  0.0659
 6838W        W23312  12.535  16.173   2.383 -0.5680  0.0903  0.1817
 6839W        W23313  13.296   4.328  13.084  0.0818 -0.0194  0.3198
 6840W        W23314  16.864   6.774   2.489  0.3962 -0.1570  0.2685
 6841W        W23315  11.612   6.585  14.109  0.0400 -0.0615 -0.0633
 6842W        W23316   9.332  11.610   1.704 -0.2119  0.3920 -0.2582
 6843W        W23317   7.805  13.795  13.173  0.1013  0.1649  0.2072
 6844W        W23318   9.872   4.366   4.265 -0.0148  0.1889 -0.0691
 6845W        W23319   0.834  16.226   4.003 -0.1833 -0.1840  0.2258
 6846W        W23320  14.430   4.980   5.318 -0.1051 -0.3640 -0.0194
 6847W        W23321  14.151  17.924   0.874  0.1044 -0.0211 -0.1942
 6848W        W23322  14.067   5.776   0.985 -0.0623  0.2133  0.2666
 6849W        W23323   5.067   8.086   1.507  0.1061  0.2023  0.2383
 6850W        W23324  12.287   9.411  14.587  0.1669 -0.2425 -0.4665
 6851W        W23325   2.481   3.327  12.984 -0.0086 -0.1544  0.1827
 6852W        W23326   7.225  16.119  14.763  0.2554  0.0710  0.1579
 6853W        W23327   2.088  14.764  11.428 -0.0319 -0.1810 -0.1481
 6854W        W23328  17.357  16.746  11.868 -0.2112  0.1192  0.0164
 6855W        W23329  14.228   4.010  15.726 -0.0387  0.1415 -0.1363
 6856W        W23330  12.576   1.830  11.899 -0.0063 -0.1204 -0.0616
 6857W        W23331  12.241   2.163  11.649 -0.2057 -0.2540 -0.1761
 6858W        W23332  14.903  10.819   0.671  0.1454  0.2349  0.3395
 6859W        W23333  10.853   9.249  15.097 -0.2223 -0.2126  0.1359
 6860W        W23334   8.434  14.482   3.730 -0.0373 -0.2404 -0.2580
 6861W        W23335   2.925  14.110  14.368 -0.0171  0.0787  0.0087
 6862W        W23336   2.047   6.836   1.141  0.2174  0.0141 -0.1922
 6863W        W23337   3.293  16.187   1.338  0.0475  0.1252 -0.0100
 6864W        W23338   0.811  17.654   1.814  0.0727  0.3373 -0.1861
 6865W        W23339   7.428   7.648  13.298  0.0728 -0.1784 -0.1718
 6866W        W23340  13.982   5.936   4.885  0.1219  0.3383  0.2212
 6867W        W23341   0.972   4.729  11.444 -0.0177 -0.1707 -0.0208
 6868W        W23342  15.717  14.861  11.963  0.0978 -0.0240  0.0912
 6869W        W23343   0.153  11.630  14.934  0.3325  0.0316 -0.1568
 6870W        W23344   7.449  16.724   2.140  0.1342  0.0747 -0.1365
 6871W        W23345  14.022  10.075  14.894 -0.3967 -0.0039 -0.1082
 6872W        W23346   2.742  17.564  14.206  0.2838 -0.1109 -0.0913
 6873W        W23347   4.207  14.384  15.763  0.0856 -0.0221  0.0652
 6874W        W23348  11.878   6.313  13.115 -0.0677  0.1466 -0.1690
 6875W        W23349  14.281  11.472   1.926  0.2124  0.0913  0.0015
 6876W        W23350  10.586  10.670   4.175  0.0354  0.1296  0.0886
 6877W        W23351   2.546   3.312  11.690 -0.1828  0.1450  0.2402
 6878W        W23352  16.288   7.393   5.208  0.0634 -0.1243 -0.1839
 6879W        W23353   3.699  10.969   1.998  0.0729 -0.1455 -0.2012
 6880W        W23354   8.268   5.330  14.573 -0.1286  0.0072  0.1247
 6881W        W23355   7.227   6.525  14.990 -0.0450  0.2847  0.0238
 6882W        W23356   9.796   4.263   5.145  0.1227  0.1322 -0.1984
 6883W        W23357   1.417   3.228  14.812  0.0354 -0.1514 -0.1381
 6884W        W23358   4.299   1.672   5.229  0.0777  0.0580  0.4001
 6885W        W23359   6.963   2.425  11.965 -0.0739 -0.1470 -0.0313
 6886W        W23360  12.484  13.915  12.093 -0.0475  0.1543  0.3039
 6887W        W23361   5.746   6.618  12.871  0.1180  0.0680 -0.0258
 6888W        W23362   6.119   6.947  11.903  0.1677  0.1960 -0.0259
 6889W        W23363  11.854   5.160  15.623  0.2568  0.0302  0.1168
 6890W        W23364  16.581   1.915  13.607  0.1194 -0.1512  0.2576
 6891W        W23365   1.527  11.201  11.343  0.1442 -0.3565  0.2330
 6892W        W23366   1.058  11.867   4.634 -0.1447  0.0485 -0.0775
 6893W        W23367   3.324  13.652  11.144  0.1246  0.1450  0.2640
 6894W        W23368  15.734   2.999  15.123 -0.0220  0.1286  0.0464
 6895W        W23369   8.969  12.311  12.610 -0.3566  0.0950  0.0702
 6896W        W23370  16.431   9.454  12.650  0.0765  0.1412 -0.0638
 6897W        W23371   4.305  10.521   1.792  0.2656 -0.3743  0.1492
 6898W        W23372  16.138  16.335  12.951  0.0348  0.3274 -0.0296
 6899W        W23373   5.158   0.469   4.509  0.0725  0.2433 -0.3731
 6900W        W23374   0.156   6.510   3.774 -0.3120  0.2220 -0.0676
 6901W        W23375  11.700   3.340   5.989 -0.1686 -0.3392  0.1954
 6902W        W23376   2.679  14.226   3.576 -0.0621  0.2370  0.0937
 6903W        W23377   7.373   8.390   3.241  0.2579  0.0743  0.0711
 6904W        W23378  12.891  17.151  15.135  0.3078 -0.1829 -0.0242
 6905W        W23379   3.857  10.363   0.449 -0.1045 -0.1201  0.1780
 6906W        W23380   9.218  13.864  15.559  0.0745  0.0918  0.0080
 6907W        W23381   3.684  16.740  12.659 -0.0028 -0.1057 -0.0928
 6908W        W23382   7.295   1.578   1.812 -0.0937  0.1371 -0.0842
 6909W        W23383   3.898   0.113  14.542  0.0729 -0.2444  0.0735
 6910W        W23384  11.001  14.025  11.570 -0.2209  0.1513  0.4056
 6911W        W23385   0.915   3.147   4.985  0.0899  0.3124 -0.2076
 6912W        W23386  17.945   3.541   2.851 -0.3294 -0.2777 -0.0740
 6913W        W23387   4.707   4.750  13.994  0.0486  0.0126 -0.0568
 6914W        W23388  11.565   0.065  12.281 -0.0215 -0.1025 -0.1138
 6915W        W23389   5.795   9.203   0.137 -0.3163 -0.0440  0.1185
 6916W        W23390  10.330  14.780  12.593  0.1743 -0.1321  0.1499
 6917W        W23391   2.129  17.568   2.779  0.1601 -0.0682  0.0590
 6918W        W23392  16.402   0.476  15.779 -0.2704 -0.0819  0.1258
 6919W        W23393  15.447   0.365   2.279 -0.2660  0.1629  0.0444
 6920W        W23394   0.378  12.974   1.093 -0.1252 -0.0264 -0.0754
 6921W        W23395  10.637   2.485  15.800 -0.0442  0.0321 -0.4929
 6922W        W23396  11.123  14.520   1.663  0.0507  0.0008  0.0970
 6923W        W23397  10.466   6.295  15.728 -0.0801  0.0486 -0.1901
 6924W        W23398   0.910  12.228   2.561  0.2321 -0.1348 -0.0714
 6925W        W23399   9.254   2.712  14.056 -0.1269  0.0086  0.0405
 6926W        W23400   4.309   2.297  12.683 -0.0527 -0.0131 -0.1775
 6927W        W23401   6.093   3.163  13.982  0.1005  0.3064  0.0832
 6928W        W23402  18.034   8.373   2.983  0.3180 -0.2783 -0.0984
 6929W        W23403   1.914   6.926   2.080  0.3247  0.0556  0.0352
 6930W        W23404   4.973  12.839  16.176  0.2989 -0.0309 -0.3698
 6931W        W23405   1.170   4.829  13.083  0.2355 -0.1156 -0.3750
 6932W        W23406   6.827   7.916  16.336  0.2487  0.1911  0.0558
 6933W        W23407  16.256  10.737  14.892 -0.1314 -0.1896 -0.2636
 6934W        W23408  13.338  17.438  11.666 -0.1183 -0.0627  0.0036
 6935W        W23409   7.711   6.377  16.101  0.1123 -0.2238 -0.0191
 6936W        W23410   3.663  14.012   4.129  0.0943  0.0699  0.0804
 6937W        W23411  13.366   6.059  14.466  0.2653 -0.1023 -0.0061
 6938W        W23412  13.508  10.457  15.113 -0.0571 -0.3000 -0.0696
 6939W        W23413  16.771   1.456   2.706 -0.1390 -0.2637 -0.0418
 6940W        W23414  14.698  12.464   0.852  0.0152 -0.4309 -0.1286
 6941W        W23415   6.335   4.678  12.728  0.1199  0.1292  0.2648
 6942W        W23416   0.486   1.971   2.722 -0.0729  0.1370  0.3255
 6943W        W23417  15.487  11.193   1.756 -0.1760 -0.1543 -0.2339
 6944W        W23418   7.804  17.269   6.546 -0.1309 -0.0421  0.0602
 6945W        W23419  16.384   5.436  11.655 -0.1343 -0.0983  0.1322
 6946W        W23420   1.912   6.582   4.079 -0.2015 -0.0618 -0.2207
 6947W        W23421   9.729   2.677  10.659 -0.2076  0.0861  0.2057
 6948W        W23422   5.151   8.011   3.380 -0.0784 -0.0373  0.1716
 6949W        W23423   7.112  17.493   1.678  0.3621 -0.1309 -0.0416
 6950W        W23424   6.460  15.135   3.184 -0.0230 -0.1452  0.0010
 6951W        W23425  14.763   9.393  14.639  0.1079 -0.0266 -0.1095
 6952W        W23426  15.765   8.809   4.503 -0.1340  0.0439  0.1353
 6953W        W23427   0.236  16.341  13.446 -0.0577  0.0751  0.2190
 6954W        W23428   2.015  12.837  13.203  0.2999  0.2139  0.1880
 6955W        W23429   7.926  11.916  16.199 -0.0753 -0.0363  0.3976
 6956W        W23430   2.193   7.126   3.394 -0.3746 -0.1537 -0.1679
 6957W        W23431   6.051  13.884  14.435  0.1688 -0.1168 -0.2647
 6958W        W23432  10.184   4.447   2.973  0.0096 -0.1592  0.1016
 6959W        W23433   8.748   5.197   2.063  0.1655 -0.1438  0.0560
 6960W        W23434   3.826   2.999   3.828 -0.0207  0.1835  0.1848
 6961W        W23435   0.343   9.550  11.769 -0.0934 -0.1118 -0.1033
 6962W        W23436   1.814  15.999   5.670 -0.2296 -0.0154  0.0222
 6963W        W23437  14.718   4.619   4.129 -0.1240  0.0120 -0.2620
 6964W        W23438  15.690  16.220   4.353 -0.0816 -0.2128 -0.0852
 6965W        W23439   2.324   9.758   1.740 -0.0803 -0.3657 -0.1372
 6966W        W23440  14.944   6.462   0.632 -0.2193  0.0415  0.2781
 6967W        W23441   3.332   5.676   5.419  0.1304 -0.0629  0.1702
 6968W        W23442  17.339  13.211   3.494 -0.0196  0.0178  0.0578
 6969W        W23443   0.181   0.537  16.286  0.2043 -0.2976 -0.1486
 6970W        W23444   9.625  14.135   5.582  0.3685  0.2469 -0.1497
 6971W        W23445  14.044  13.550  11.681  0.1232  0.3627 -0.0743
 6972W        W23446  15.887   1.857  14.609  0.1101 -0.1774 -0.0555
 6973W        W23447   0.839   4.970   2.586 -0.1354 -0.0638  0.3135
 6974W        W23448   8.777   4.159  14.678  0.2161 -0.0412 -0.0800
 6975W        W23449  10.994  16.219   3.052  0.0350  0.0413 -0.0056
 6976W        W23450   5.511   4.806   5.026 -0.0813  0.0133 -0.0242
 6977W        W23451  11.051   6.535   4.016  0.1524  0.0780  0.1415
 6978W        W23452  15.667  10.086   1.108 -0.2292  0.0733  0.4221
 6979W        W23453  15.587  15.639   5.659 -0.1903 -0.0102 -0.1193
 6980W        W23454   0.574  14.898   1.988  0.1122 -0.0164 -0.4038
 6981W        W23455  13.733   8.523   1.928  0.2314 -0.2162 -0.0633
 6982W        W23456  16.982   5.595   0.938  0.1795 -0.1119  0.1541
 6983W        W23457  12.462   9.948  12.747  0.0628 -0.3687 -0.1522
 6984W        W23458   3.090   2.750  14.799  0.2736 -0.4970 -0.0823
 6985W        W23459   4.920  15.817   1.820 -0.1128  0.0525  0.1479
 6986W        W23460  17.563   2.624   1.975 -0.3136 -0.0513 -0.2063
 6987W        W23461   3.593   2.263   2.515 -0.1383 -0.0271  0.1411
 6988W        W23462   3.369   3.340   5.291  0.1269  0.0019  0.0877
 6989W        W23463  18.173  17.090  11.155  0.1469  0.2198  0.0582
 6990W        W23464   0.965  16.085   5.554 -0.1615  0.0113 -0.0029
 6991W        W23465  12.324   2.763   0.365 -0.0134 -0.2635  0.0387
 6992W        W23466  16.845   1.510   3.743  0.0191  0.2833 -0.2027
 6993W        W23467  17.025   5.825  16.337 -0.2523 -0.2172 -0.0149
 6994W        W23468   0.691  16.519   0.060  0.1008 -0.1800 -0.0631
 6995W        W23469   4.309  17.736   5.056  0.0629 -0.0795  0.1407
 6996W        W23470   1.278  16.168   4.202  0.0558 -0.1391  0.1644
 6997W        W23471  13.683   8.786   3.620  0.0153 -0.1393  0.0523
 6998W        W23472   4.499   1.494  12.958 -0.0642 -0.1414 -0.2873
 6999W        W23473  17.052   6.453  12.431  0.0537 -0.0219 -0.1607
 7000W        W23474   4.851   8.977   0.716 -0.2272 -0.2581 -0.1659
 7001W        W23475  12.879   0.932   1.724 -0.1715  0.5403  0.1366
 7002W        W23476  12.929  13.243  16.104 -0.2519  0.0858  0.1224
 7003W        W23477  14.107  16.142  16.101  0.2958 -0.0422 -0.0119
 7004W        W23478  15.231   5.985   3.167 -0.1300 -0.2192 -0.0466
 7005W        W23479  17.378  15.467   0.912  0.1437 -0.0910 -0.0208
 7006W        W23480  11.144  15.716  13.140  0.0726  0.0892 -0.1048
 7007W        W23481   2.152  15.222   2.682  0.0978  0.1488  0.1302
 7008W        W23482  14.109   7.663  14.779  0.1452 -0.1558 -0.0741
 7009W        W23483   9.004   2.628   4.504  0.0183  0.1116  0.1387
 7010W        W23484   1.508   6.508  13.603 -0.0949 -0.0348 -0.0872
 7011W        W23485   1.614   5.792  14.170  0.2071 -0.1256  0.1119
 7012W        W23486   9.694   8.607  13.777  0.0935 -0.1112  0.2194
 7013W        W23487  17.425  15.952   0.707  0.0512 -0.0366 -0.5131
 7014W        W23488   9.352   3.565   0.647  0.0220  0.0329  0.1213
 7015W        W23489   7.194   1.134   2.851  0.1936  0.3487 -0.2186
 7016W        W23490   5.697  11.692   3.238  0.0460  0.1692  0.0445
 7017W        W23491  10.263  11.797   4.198  0.0250 -0.1436  0.2068
 7018W        W23492   5.904  12.916   2.742 -0.1162  0.0971 -0.0038
 7019W        W23493  15.097  13.396   3.113  0.0817  0.1550 -0.0233
 7020W        W23494  17.870   6.703   4.949  0.0790 -0.3272 -0.0420
 7021W        W23495   3.022  10.871  12.498  0.1404  0.1296  0.1789
 7022W        W23496   7.373  13.596   1.834  0.2455 -0.2155 -0.0926
 7023W        W23497   6.265  12.698  14.421 -0.1486  0.3622 -0.4524
 7024W        W23498   5.876  11.369   0.866 -0.1520 -0.2912 -0.0845
 7025W        W23499  15.390   2.213   5.301 -0.0352 -0.2400  0.1953
 7026W        W23500  14.302   5.443  16.116 -0.2605  0.0610  0.1340
 7027W        W23501   0.884   5.830  12.459  0.0599  0.2396  0.0244
 7028W        W23502  13.953   7.608   4.732 -0.0808 -0.0150  0.1150
 7029W        W23503  16.529  15.334  13.578 -0.5281 -0.1138 -0.1629
 7030W        W23504   1.650  11.941  12.613  0.0392 -0.1252  0.1882
 7031W        W23505   8.671  16.396  15.951 -0.1855  0.0615 -0.2563
 7032W        W23506  17.948  16.861   0.770 -0.1034  0.1177  0.0630
 7033W        W23507   2.703   4.219   4.446 -0.1270 -0.1357  0.1449
 7034W        W23508   7.822   0.098   2.260  0.1344 -0.1887 -0.2502
 7035W        W23509   1.911   1.155   4.289 -0.0403 -0.2341 -0.1247
 7036W        W23510   8.591   6.150   5.547  0.1330  0.1600  0.0952
 7037W        W23511   0.256   6.853  11.269  0.3550  0.1500  0.0507
 7038W        W23512  12.516  17.172   0.805 -0.1594  0.1909 -0.3316
 7039W        W23513  15.802   7.481   4.276 -0.0088 -0.2251  0.1714
 7040W        W23514   6.389   8.011   2.384  0.0405 -0.2011  0.0138
 7041W        W23515  17.809   5.760  15.209  0.0775 -0.2828  0.1056
 7042W        W23516   1.954  10.922  11.423 -0.1938 -0.0025 -0.0807
 7043W        W23517  12.361  14.547   3.567  0.1871  0.0494  0.2999
 7044W        W23518   3.930   2.589   3.540 -0.0274 -0.1530  0.1730
 7045W        W23519   8.618  14.998  15.056  0.0763 -0.0191 -0.2616
 7046W        W23520   7.865   3.023   4.454  0.0570  0.2854 -0.0634
 7047W        W23521   9.173   4.870   4.338 -0.1316  0.2623 -0.2226
 7048W        W23522   7.728   1.899   5.332 -0.1350 -0.1221 -0.0160
 7049W        W23523  12.504   9.967   4.538 -0.2185 -0.0137 -0.2052
 7050W        W23524  11.517   6.426   0.635 -0.1198 -0.1646 -0.0043
 7051W        W23525   1.305  16.334   4.687  0.4968 -0.1054 -0.2398
 7052W        W23526   2.743   7.264  13.042  0.0535  0.0050 -0.0119
 7053W        W23527   4.852   4.036   1.137  0.0112  0.2947 -0.0941
 7054W        W23528  15.909  11.795  13.943 -0.0308  0.0990 -0.1242
 7055W        W23529  12.566  11.552  13.738 -0.0859 -0.0153 -0.0939
 7056W        W23530  12.002   0.929   2.032 -0.0009 -0.0052 -0.0959
 7057W        W23531   8.643  13.891  11.085  0.0226  0.3101  0.1171
 7058W        W23532  15.565   3.666   3.364  0.0024  0.0934  0.1840
 7059W        W23533   7.515   0.029  12.914  0.1318 -0.3326 -0.1196
 7060W        W23534  16.300   9.316  13.847  0.1881 -0.1115 -0.1792
 7061W        W23535   1.155  17.206  12.670  0.1549  0.0665  0.2753
 7062W        W23536  18.126  14.543  13.000  0.0851 -0.2362  0.0825
 7063W        W23537   6.637   0.181  15.952 -0.0396 -0.0593  0.3072
 7064W        W23538  17.236   2.878   1.169  0.1573 -0.0841 -0.0300
 7065W        W23539   2.339  14.975   2.259  0.1409  0.1156  0.2940
 7066W        W23540  13.131   9.157  13.495  0.2349 -0.1490 -0.1397
 7067W        W23541  14.012   3.213  13.804 -0.1303 -0.0011 -0.0073
 7068W        W23542  12.591  10.076   3.509  0.0714  0.4137 -0.1494
 7069W        W23543  16.213  11.681  11.493  0.0233 -0.0069  0.0369
 7070W        W23544   9.455  10.147  14.892  0.2858 -0.1175  0.1842
 7071W        W23545  15.075   6.211  13.599 -0.1353  0.0615 -0.3214
 7072W        W23546   0.460   2.991   1.542  0.0203  0.0432 -0.0048
 7073W        W23547  11.047   3.291  13.490 -0.0197  0.1040  0.3234
 7074W        W23548   4.819  11.544  10.980  0.2218 -0.2204  0.0407
 7075W        W23549   7.842   5.149   3.983  0.1386 -0.1772 -0.2006
 7076W        W23550   8.446  18.140   5.246  0.2322  0.0173 -0.0107
 7077W        W23551   8.409   3.441   5.496  0.3294 -0.1122 -0.0830
 7078W        W23552   1.199  17.506  12.297  0.3048 -0.1515  0.1380
 7079W        W23553   7.194  12.327  12.613  0.0088 -0.3291 -0.0034
 7080W        W23554  18.036  12.801  11.069  0.2832 -0.5514  0.0742
 7081W        W23555  12.301   6.771  14.562  0.0241 -0.2687  0.1729
 7082W        W23556   5.985   6.092   1.810 -0.2319  0.1814 -0.0466
 7083W        W23557   2.033   5.279   0.619 -0.0795 -0.1109 -0.1006
 7084W        W23558  16.664   7.995  12.809  0.0110  0.0917  0.2106
 7085W        W23559   3.349  10.535  15.881 -0.0297  0.1851 -0.3361
 7086W        W23560  10.379  14.799   4.142  0.2889  0.0227 -0.0539
 7087W        W23561   4.173  13.011   2.858  0.0825  0.0026 -0.1075
 7088W        W23562  15.796   8.357  12.915  0.0043  0.0884 -0.1413
 7089W        W23563   9.586  15.726  11.478  0.0434  0.2597 -0.1573
 7090W        W23564   7.404  12.225  14.823 -0.1398  0.2990  0.2257
 7091W        W23565   8.733   8.347  13.371  0.3962 -0.4279  0.0800
 7092W        W23566   2.938   4.683  11.379 -0.2576  0.0335  0.3611
 7093W        W23567  16.519   9.456   1.899 -0.1737 -0.2613  0.1389
 7094W        W23568  17.272   8.383   5.902 -0.2710  0.2478  0.0611
 7095W        W23569   5.774  10.724  11.065 -0.0396 -0.0042  0.0429
 7096W        W23570   6.656   5.203  13.331 -0.1049 -0.1383 -0.0309
 7097W        W23571   7.446  10.687   4.719 -0.1199 -0.1172  0.3453
 7098W        W23572   4.782   4.974  16.187 -0.0549 -0.1559 -0.2599
 7099W        W23573  11.816   4.486   3.833  0.2110  0.1126 -0.0694
 7100W        W23574   9.561  13.370  12.162  0.1181 -0.1501  0.1367
 7101W        W23575   7.433  12.479  13.836 -0.1135  0.0571 -0.2825
 7102W        W23576  10.965   3.536  12.711  0.0728 -0.0555  0.2237
 7103W        W23577   7.252   9.120  14.406  0.0953 -0.0732 -0.1841
 7104W        W23578   2.083   3.471  11.524  0.1869  0.0105  0.0018
 7105W        W23579  10.867   1.966  15.418 -0.1104 -0.0928 -0.1328
 7106W        W23580  15.062  10.740   6.406  0.0223  0.0102 -0.1222
 7107W        W23581  17.370  11.119   1.294 -0.1065  0.1953  0.1644
 7108W        W23582   8.384  13.366   5.805 -0.2418 -0.0939 -0.1861
 7109W        W23583   2.242   8.165   1.688  0.0859 -0.0248 -0.1042
 7110W        W23584  12.194   4.930   5.418 -0.1004  0.2350  0.0886
 7111W        W23585   6.383   3.688   1.618  0.1363 -0.0128 -0.2195
 7112W        W23586  12.766   0.647  14.873  0.1088 -0.1387 -0.2463
 7113W        W23587   3.365   9.837  14.222 -0.2440 -0.0848 -0.0442
 7114W        W23588  11.828   5.170   1.811 -0.5472 -0.2523 -0.1353
 7115W        W23589   5.970  11.165  11.844  0.2484  0.1306 -0.3274
 7116W        W23590   9.150   2.242  13.199 -0.0528 -0.2844 -0.1159
 7117W        W23591   3.469  17.834  11.442 -0.0016 -0.2591 -0.0234
 7118W        W23592  17.228   4.590  11.930  0.0758 -0.3170 -0.1344
 7119W        W23593   2.184   6.620  14.436 -0.0642  0.2056 -0.1293
 7120W        W23594   1.152  14.139  15.252 -0.1913 -0.0720  0.0615
 7121W        W23595   0.954  15.971  14.498  0.1104  0.1029 -0.0000
 7122W        W23596  17.905  17.965   4.800  0.2208 -0.1258 -0.1899
 7123W        W23597   6.673  17.677   4.937  0.0936  0.0944  0.0700
 7124W        W23598   8.800   0.056   4.109 -0.2421 -0.0818  0.3146
 7125W        W23599   4.710  10.842   6.282  0.1988  0.1034  0.0596
 7126W        W23600   4.987  12.400   5.726 -0.2138  0.0234 -0.1552
 7127W        W23601   0.534   3.955  14.347 -0.2802 -0.1579  0.0239
 7128W        W23602  13.490  16.840  12.583  0.1042  0.4037 -0.3901
 7129W        W23603  14.478   6.028   3.811 -0.1748  0.2315  0.0020
 7130W        W23604  11.359  15.675   4.256 -0.3290 -0.0594 -0.3100
 7131W        W23605   0.487  15.570  13.223 -0.2211 -0.0601 -0.0001
 7132W        W23606   9.436   2.289  10.889 -0.0125 -0.4853  0.0532
 7133W        W23607  16.052   9.112   5.735 -0.0088 -0.2885  0.2212
 7134W        W23608   5.050   4.767   5.210  0.1596 -0.1362  0.0105
 7135W        W23609   5.990  12.364   3.880 -0.0757  0.3561  0.0759
 7136W        W23610   3.643   5.409  16.081 -0.4129 -0.1350 -0.0212
 7137W        W23611  10.330   9.654  14.268 -0.0312 -0.1304 -0.0150
 7138W        W23612   7.971  12.829  16.013 -0.0174 -0.2582  0.1126
 7139W        W23613   0.084  14.673   4.184 -0.1005  0.1041  0.2382
 7140W        W23614   2.100  13.722   4.593 -0.1335 -0.0043  0.0661
 7141W        W23615  12.407  14.433   5.310 -0.1253 -0.0948 -0.1876
 7142W        W23616  15.976  13.892   3.243  0.1818  0.0201 -0.2882
 7143W        W23617   9.418   5.957   2.089  0.1915  0.2871 -0.1597
 7144W        W23618   1.016   8.990  14.970  0.1425 -0.0974 -0.3072
 7145W        W23619  10.016   7.619  16.261 -0.1223  0.1162 -0.3664
 7146W        W23620   6.301   6.822  14.166  0.0155 -0.1871 -0.3316
 7147W        W23621   6.447  16.940   2.764  0.1861 -0.1864 -0.0813
 7148W        W23622   8.327   8.653  13.188  0.0196 -0.1757 -0.3154
 7149W        W23623  16.332   1.341   3.002 -0.2079  0.2044 -0.0939
 7150W        W23624  14.516  17.924  11.808  0.2090 -0.1363 -0.1132
 7151W        W23625   1.030  17.571   6.050  0.0103  0.0940 -0.3258
 7152W        W23626   4.884   2.388  15.129  0.0744 -0.2049 -0.4331
 7153W        W23627   4.207   5.213  13.418  0.3139  0.0005 -0.0719
 7154W        W23628  17.859   9.444   5.218  0.1425  0.1392  0.1649
 7155W        W23629  17.324   6.476  13.507 -0.1756 -0.2978 -0.4009
 7156W        W23630  10.401  11.231   5.535  0.1237 -0.1177  0.0049
 7157W        W23631   5.700  17.931  11.910  0.0515  0.0292  0.2839
 7158W        W23632   1.285  15.933  16.304  0.1514 -0.0799 -0.1623
 7159W        W23633  10.195  14.297  11.249 -0.0254 -0.1001 -0.2579
 7160W        W23634  17.138   1.849  11.091 -0.1161 -0.0616  0.0267
 7161W        W23635  16.873  17.129  15.730  0.1242  0.0149  0.0426
 7162W        W23636   2.068  12.990   0.219 -0.2184  0.2331 -0.3131
 7163W        W23637  14.308   4.248   4.585  0.2155  0.3123 -0.2787
 7164W        W23638  13.554  17.222   4.170  0.1051  0.0056 -0.0099
 7165W        W23639   2.855   7.905   2.861  0.3525  0.0356  0.2295
 7166W        W23640   9.399   7.782   4.527 -0.2580 -0.1358  0.2250
 7167W        W23641   3.986   4.167   4.119 -0.0365  0.1763 -0.1019
 7168W        W23642  12.106  15.755  12.874  0.1581  0.0747  0.0780
 7169W        W23643  10.265   5.399   0.194 -0.0152 -0.1846 -0.2987
 7170W        W23644  15.627   8.567   3.823  0.1503 -0.1219  0.1614
 7171W        W23645   0.075   8.294  14.174 -0.0475  0.0570 -0.0502
 7172W        W23646  17.556   6.839   4.158  0.0185 -0.0773  0.0710
 7173W        W23647   1.854  16.652  12.660  0.0153 -0.1823  0.0773
 7174W        W23648  17.211   8.295   2.514 -0.0868  0.1189 -0.1802
 7175W        W23649  10.956   0.027  15.918 -0.0166  0.0272  0.0264
 7176W        W23650  13.758  17.538  16.086 -0.0525 -0.0382 -0.1421
 7177W        W23651   6.651  12.052   5.064 -0.0036 -0.2043 -0.1647
 7178W        W23652  12.680  12.616  12.231 -0.1534 -0.0646  0.1458
 7179W        W23653   7.599  14.146  14.800  0.1657  0.0889 -0.0967
 7180W        W23654   3.251  14.887   0.819 -0.4109 -0.1039  0.1358
 7181W        W23655   7.161   3.211   5.939  0.3555 -0.2538  0.0067
 7182W        W23656   4.911  13.190  13.976  0.0023 -0.0436  0.1161
 7183W        W23657  12.497   1.218   0.153 -0.0219  0.4220  0.1674
 7184W        W23658  10.008   4.013   1.599  0.1684 -0.0748 -0.1356
 7185W        W23659   6.103   5.456   2.391  0.0142  0.3425  0.0523
 7186W        W23660  17.717  17.332   0.184  0.2401  0.1914  0.0181
 7187W        W23661  14.478   0.729   4.267  0.0208 -0.0078 -0.2253
 7188W        W23662  17.748  12.283   3.022  0.0202  0.2202 -0.1839
 7189W        W23663  13.454   1.042  16.332 -0.0165 -0.0045 -0.0112
 7190W        W23664   2.564   9.798  11.496  0.2401 -0.0875  0.1033
 7191W        W23665   8.994  10.653  14.194 -0.0720 -0.0422 -0.0301
 7192W        W23666  16.272  12.811  14.126  0.0830  0.2565 -0.4629
 7193W        W23667  13.745  10.048  12.409  0.0194 -0.4094 -0.1448
 7194W        W23668  13.738  14.789  12.799  0.0329 -0.0770  0.0157
 7195W        W23669   7.725  15.686  11.422  0.0954 -0.0783 -0.0624
 7196W        W23670   4.845   3.065  14.846  0.2713 -0.0066  0.2710
 7197W        W23671  14.245   6.764  15.403  0.1783 -0.1407 -0.1859
 7198W        W23672  16.049   9.217  14.398  0.1148  0.1193 -0.1982
 7199W        W23673  11.899  16.041  15.037 -0.2320 -0.0962 -0.0450
 7200W        W23674   3.750  13.918  13.772 -0.0390  0.3283  0.1305
 7201W        W23675   9.897   8.375   4.367  0.3186 -0.0272 -0.0713
 7202W        W23676  11.767   3.050   0.303  0.2529 -0.1169 -0.0040
 7203W        W23677  13.072   8.202  15.018 -0.0535 -0.0678  0.0402
 7204W        W23678   0.268  18.024   1.249 -0.2030 -0.1079  0.1603
 7205W        W23679   2.864  17.991   3.845 -0.1775 -0.0042  0.0699
 7206W        W23680   5.424  11.358   0.061 -0.0231 -0.0989 -0.3662
 7207W        W23681  15.087   5.290  12.951  0.0152  0.2679 -0.0442
 7208W        W23682  14.646   3.113  12.878 -0.0582 -0.0635  0.1862
 7209W        W23683   1.127  17.675   4.122 -0.0869 -0.1652  0.1808
 7210W        W23684  12.398  11.466   0.354  0.0388 -0.1328  0.0642
 7211W        W23685   8.359   6.314  12.219  0.2514 -0.0446 -0.2332
 7212W        W23686   8.671   2.361  15.719 -0.1485 -0.1897  0.1923
 7213W        W23687  17.959   7.008   1.600  0.1288  0.1978 -0.1042
 7214W        W23688  14.139   7.607   3.762  0.0647  0.0852 -0.1218
 7215W        W23689  12.285  14.814  11.384  0.2769  0.0225  0.1243
 7216W        W23690   2.811   0.077   3.401  0.0452  0.0569  0.0004
 7217W        W23691   3.653   3.963  11.474 -0.2146  0.0553 -0.2769
 7218W        W23692   2.386  13.075  16.221 -0.0552  0.2151  0.3067
 7219W        W23693  11.153   5.844  14.193 -0.0886  0.0949  0.0632
 7220W        W23694  10.152   0.211   5.545 -0.2459 -0.0478  0.0713
 7221W        W23695  13.288   8.425   1.668 -0.0973  0.3957  0.0098
 7222W        W23696   8.172   5.202  12.303  0.2209  0.0707 -0.1093
 7223W        W23697   1.631   6.888   3.192  0.0045  0.1225 -0.0120
 7224W        W23698   2.832  15.623  13.597 -0.1892 -0.0290 -0.0073
 7225W        W23699   3.943   7.245   5.053  0.0339  0.3067  0.1503
 7226W        W23700   6.707   3.359  13.505 -0.1606 -0.0267 -0.2161
 7227W        W23701   4.529   9.217  14.074 -0.0545 -0.1584  0.2152
 7228W        W23702   4.756  11.628  13.190 -0.1574  0.1725  0.1749
 7229W        W23703   6.779   6.578   4.022  0.0248 -0.0933  0.1025
 7230W        W23704   2.666   1.655  15.505  0.1175 -0.2908  0.0404
 7231W        W23705   6.253  16.349   1.439 -0.0454 -0.0563 -0.0049
 7232W        W23706   2.325  17.862  15.008  0.3153 -0.2021 -0.2645
 7233W        W23707   3.497  11.503   3.354 -0.1900  0.0090 -0.0509
 7234W        W23708  15.627   8.141   1.703  0.3140  0.1112  0.1703
 7235W        W23709  14.298  10.820   4.148 -0.2856 -0.1673  0.2604
 7236W        W23710  13.890  18.160  11.303 -0.2489  0.1993 -0.0484
 7237W        W23711   6.416  17.580  15.476 -0.0239  0.0629 -0.1970
 7238W        W23712  15.492   7.028   4.829  0.1709  0.0184  0.1772
 7239W        W23713  12.128   5.123   1.375 -0.0568  0.0775  0.3554
 7240W        W23714  14.920   9.462   0.959 -0.0646 -0.0166 -0.2904
 7241W        W23715   7.451   6.307  11.867  0.1900 -0.2164  0.0019
 7242W        W23716   6.626   3.554   2.079  0.1361  0.0843  0.1837
 7243W        W23717   3.843   1.583  11.513  0.1339  0.1570  0.1183
 7244W        W23718   4.784   3.345  14.092  0.1020  0.0579 -0.1951
 7245W        W23719   7.943   8.994  15.005  0.0648 -0.0964  0.5343
 7246W        W23720   2.265   7.389   0.963 -0.0112  0.2532  0.2196
 7247W        W23721   8.871  12.011  13.030 -0.2262  0.1414  0.0815
 7248W        W23722   0.264   4.319  12.151 -0.0311 -0.0574 -0.3969
 7249W        W23723   9.586   5.975  14.977 -0.1121 -0.1117 -0.0248
 7250W        W23724   6.747   5.341   1.786 -0.1780  0.0316  0.1517
 7251W        W23725  13.233   7.198   0.778 -0.1510 -0.1805  0.0527
 7252W        W23726   5.288   0.571   4.020 -0.1730 -0.1772  0.0629
 7253W        W23727   5.041  16.602   2.241  0.2085  0.1622 -0.0744
 7254W        W23728   5.400   8.143   2.601 -0.1656 -0.1791 -0.1088
 7255W        W23729   6.520  17.870  12.644  0.1992  0.1476 -0.1692
 7256W        W23730  17.612   0.145  13.804 -0.2700 -0.0351  0.0297
 7257W        W23731  15.691  11.412   4.115 -0.4251  0.0418 -0.3790
 7258W        W23732  17.695   1.055  13.839  0.0069  0.0257  0.1502
 7259W        W23733   5.728  15.346  13.659  0.1613  0.3568 -0.1234
 7260W        W23734   5.650  14.825   3.720 -0.0252 -0.1348 -0.1102
 7261W        W23735   5.638  12.900   2.173  0.0151 -0.1695 -0.3537
 7262W        W23736   6.243   2.526   5.000 -0.3297  0.3485 -0.1413
 7263W        W23737   2.065   7.521   5.058 -0.2259 -0.0195  0.0680
 7264W        W23738  16.470  17.925  13.801  0.1630 -0.2784 -0.0714
 7265W        W23739  11.059   6.684   0.664 -0.2550  0.1625 -0.1041
 7266W        W23740  10.460  14.177   0.408  0.0200 -0.0597 -0.1512
 7267W        W23741   9.754  10.548   4.274  0.1687 -0.1251  0.0951
 7268W        W23742  15.900   1.139   1.685  0.1548  0.2862  0.0510
 7269W        W23743   0.108  15.655  13.544  0.3051  0.0282 -0.0657
 7270W        W23744  16.726   7.873  15.295  0.1516 -0.0826  0.0090
 7271W        W23745   5.964   2.902   4.804  0.0611 -0.1529 -0.1138
 7272W        W23746   3.145   7.290   2.217  0.1198  0.0247  0.0770
 7273W        W23747  16.704  12.732  11.132 -0.1544 -0.0173  0.1232
 7274W        W23748   5.734  14.533   1.384  0.1003  0.2423  0.1409
 7275W        W23749  17.637   5.077  16.154  0.0724 -0.2151 -0.0081
 7276W        W23750  10.411   7.979   5.161 -0.2780  0.2729  0.1892
 7277W        W23751   5.456   3.497   5.648  0.1325  0.1817  0.3182
 7278W        W23752  15.692  10.969   4.564 -0.1515  0.1275  0.2151
 7279W        W23753  10.489  12.523   3.740  0.0927 -0.0489  0.2114
 7280W        W23754  17.236  17.054  16.081  0.1964 -0.1454 -0.0889
 7281W        W23755  17.730   6.943   0.119  0.0221 -0.3369 -0.0938
 7282W        W23756  14.461  12.097  13.947  0.3835  0.0469 -0.3077
 7283W        W23757  12.859   5.936  14.529  0.0351 -0.0501  0.3685
 7284W        W23758   5.747  10.850   1.004  0.2452 -0.0211  0.0386
 7285W        W23759  16.176  12.115   2.872  0.1754 -0.2174 -0.1124
 7286W        W23760   9.787   4.808   0.466  0.2710  0.1804 -0.0106
 7287W        W23761   6.713   2.376   6.031  0.1629 -0.0190 -0.2730
 7288W        W23762   5.736  11.066   2.760  0.1530  0.3057 -0.0526
 7289W        W23763  17.069   2.450   5.383 -0.0860 -0.1864  0.1812
 7290W        W23764  16.458   6.794   0.995  0.1126 -0.0472 -0.0644
 7291W        W23765  12.389  11.770   4.079 -0.1052 -0.0656  0.2203
 7292W        W23766  13.260  13.244  14.752 -0.0241 -0.0175  0.3004
 7293W        W23767  16.667  15.570  12.706  0.0703  0.1466  0.2220
 7294W        W23768  11.909   7.152  14.635 -0.0070 -0.0110 -0.2289
 7295W        W23769  15.358   9.452  12.345  0.1031  0.2702  0.2115
 7296W        W23770  10.095  13.143   5.224 -0.0182 -0.2141 -0.0001
 7297W        W23771   9.923   8.719   0.865  0.0131  0.3371  0.3169
 7298W        W23772   2.510   6.691   2.730 -0.0647 -0.0811  0.2217
 7299W        W23773   9.919  14.432  12.686  0.4439 -0.2452 -0.0267
 7300W        W23774   8.614  14.527  13.476 -0.2210 -0.0739 -0.1164
 7301W        W23775  10.646  14.692   2.894  0.3274  0.2115 -0.0661
 7302W        W23776  11.188  11.655   2.006  0.1262 -0.0724  0.2170
 7303W        W23777   0.760   7.752   0.687  0.3004 -0.3683 -0.2200
 7304W        W23778   7.935   7.220  12.081 -0.0032  0.1812 -0.1171
 7305W        W23779  12.675  15.073   4.233  0.2011  0.0307 -0.0193
 7306W        W23780   6.054   0.165  12.141 -0.1344  0.2185 -0.2871
 7307W        W23781  14.831   2.294   1.946  0.0347 -0.1778 -0.1873
 7308W        W23782   7.006   2.017   4.446 -0.3506  0.3249 -0.1830
 7309W        W23783  13.810  12.724  14.201  0.4579  0.1103 -0.0027
 7310W        W23784   1.261   7.198   5.829  0.0587 -0.1410 -0.0016
 7311W        W23785  12.616   8.853  14.736 -0.1072 -0.0342  0.2505
 7312W        W23786   4.182  17.637  15.135  0.0185 -0.0703 -0.0396
 7313W        W23787   1.270   2.651   0.042  0.0909 -0.2925 -0.2381
 7314W        W23788   6.228   8.593  12.422  0.1602  0.3175 -0.1304
 7315W        W23789   3.460  17.044  13.689  0.0262  0.2812  0.2255
 7316W        W23790  16.939   0.291  16.337  0.0434  0.0168  0.0546
 7317W        W23791  16.697   2.870  12.803 -0.2795  0.0090  0.3511
 7318W        W23792  13.604   8.058   3.130  0.2154 -0.1588 -0.0995
 7319W        W23793  11.687   1.526   3.467  0.3499  0.4710 -0.0244
 7320W        W23794   8.620   1.264  14.900  0.1199 -0.0919  0.0997
 7321W        W23795  10.724  14.728  11.299  0.2351 -0.0472  0.0941
 7322W        W23796  13.698  13.499  12.039  0.2768 -0.0748 -0.1723
 7323W        W23797  14.956   2.173  10.993 -0.2644  0.0547  0.0303
 7324W        W23798   8.953   6.387  15.681  0.0158 -0.0766  0.0350
 7325W        W23799   2.015   2.713  13.839  0.1635  0.3236 -0.1903
 7326W        W23800  16.939  10.832  12.114 -0.1271  0.2312  0.0345
 7327W        W23801   0.125   7.202  16.103 -0.0494  0.2070  0.0754
 7328W        W23802   6.893  13.651  11.883 -0.1642 -0.1160 -0.2641
 7329W        W23803   2.421   7.111  15.203 -0.0449  0.0963  0.2172
 7330W        W23804  10.340  11.875   1.228 -0.3506 -0.0111  0.2229
 7331W        W23805  13.003   4.519   2.072 -0.1428 -0.2394 -0.1794
 7332W        W23806   3.842  10.623  13.567  0.2369 -0.1573  0.0650
 7333W        W23807   0.395  17.606   0.389 -0.2326  0.2760  0.0620
 7334W        W23808   4.115   4.001  13.559  0.4706 -0.0435  0.0029
 7335W        W23809   7.404   1.596   4.485  0.0673  0.1557 -0.1671
 7336W        W23810  15.804   9.691   1.387  0.0233 -0.1595 -0.1406
 7337W        W23811   1.252   5.058  15.969  0.1332 -0.1123  0.0842
 7338W        W23812   3.223   7.456  14.775 -0.2583 -0.0667 -0.0142
 7339W        W23813   2.539  11.915   0.527  0.3618  0.1198  0.0343
 7340W        W23814  13.547   5.993  12.816 -0.0140  0.1761 -0.0002
 7341W        W23815   4.970  12.981   1.000 -0.0865 -0.2381 -0.2228
 7342W        W23816   3.548   8.722  12.009 -0.1508 -0.0269  0.0187
 7343W        W23817   6.584  13.113   1.983 -0.0034  0.0907  0.2023
 7344W        W23818   7.258   8.223  15.547 -0.1618  0.1647 -0.2439
 7345W        W23819  14.271  12.959   4.575 -0.2241  0.2283 -0.0242
 7346W        W23820   9.491   4.556  15.028 -0.1981  0.3462 -0.0139
 7347W        W23821   2.167   4.628  15.344 -0.1522  0.1990 -0.0152
 7348W        W23822   7.721   1.000  14.543  0.2641 -0.0305 -0.0746
 7349W        W23823   1.532   3.924  10.219 -0.0634  0.0638  0.0118
 7350W        W23824   8.408  13.634   5.386  0.0830  0.0393  0.0550
 7351W        W23825   8.906  13.381  10.337  0.1498  0.0074 -0.0610
 7352W        W23826   9.237  12.286   2.425  0.1156 -0.1040 -0.3494
 7353W        W23827   4.673  14.148  14.413 -0.2096 -0.0125 -0.0582
 7354W        W23828   6.555   3.160  16.220 -0.1735  0.2421 -0.0059
 7355W        W23829  13.690   5.469   4.211 -0.1404  0.1180 -0.1234
 7356W        W23830   9.079  13.807   2.367 -0.0794 -0.0018 -0.0840
 7357W        W23831  10.628  13.694  14.955  0.0883 -0.0033  0.1758
 7358W        W23832   9.044   6.103  11.558 -0.0457  0.2426  0.1306
 7359W        W23833   9.499   7.181  12.852  0.0097  0.0011  0.0626
 7360W        W23834   1.134  16.056  12.125  0.0439  0.0246  0.1125
 7361W        W23835   8.737  15.811   2.896  0.0882  0.0591  0.1615
 7362W        W23836  12.335  16.557   2.051  0.1767 -0.0858 -0.1347
 7363W        W23837   4.450  11.634   2.971 -0.1033  0.1368  0.0391
 7364W        W23838   7.661  13.938  11.630  0.2961  0.0840 -0.1419
 7365W        W23839  11.215  15.907   1.134  0.2176  0.2880 -0.0459
 7366W        W23840  14.664  11.978  10.675 -0.1201 -0.2841  0.0685
 7367W        W23841   8.531   0.867   5.620  0.0155 -0.0014  0.0857
 7368W        W23842   4.339   0.737   4.034 -0.1313  0.0904 -0.0978
 7369W        W23843   5.680   7.158   0.840  0.0355 -0.3555 -0.1125
 7370W        W23844  16.360   0.688   2.171  0.0939 -0.3669  0.4097
 7371W        W23845   0.764   8.013   6.096  0.0428 -0.1108 -0.1374
 7372W        W23846  14.740   6.545   5.320  0.0312 -0.0010  0.0105
 7373W        W23847  14.640   7.215  15.289 -0.3077  0.2121 -0.1217
 7374W        W23848  15.781  16.961  11.223 -0.2935 -0.0225  0.1169
 7375W        W23849   0.381   3.045  14.663 -0.1979 -0.0411 -0.1619
 7376W        W23850   1.038   4.768   1.201  0.1616 -0.1109  0.0933
 7377W        W23851   5.539   2.621   0.483  0.1017  0.0689 -0.0841
 7378W        W23852  17.936  10.049   2.925  0.1632  0.3187 -0.2471
 7379W        W23853   5.032  13.035  15.687 -0.2054  0.1723 -0.1181
 7380W        W23854  13.784   8.259   0.229 -0.0706  0.1103  0.1761
 7381W        W23855  11.726   6.040  15.937 -0.0789  0.2562  0.0067
 7382W        W23856  13.546  12.876   4.147 -0.3799 -0.0419 -0.0678
 7383W        W23857   3.683  16.179  12.686  0.0350  0.0195  0.0260
 7384W        W23858   0.142  15.900  12.648 -0.3405 -0.2111 -0.2664
 7385W        W23859  14.916   9.903   1.703 -0.2453  0.1697  0.0143
 7386W        W23860  14.022  11.198  13.315  0.3617  0.2754 -0.0598
 7387W        W23861   2.620   0.783   4.395  0.2474 -0.2719  0.1528
 7388W        W23862   1.352  12.212  13.443  0.2435 -0.3057  0.0754
 7389W        W23863   1.039   3.106   1.560  0.0904 -0.0647 -0.3686
 7390W        W23864   1.535   7.262  15.526  0.1219  0.0075  0.0496
 7391W        W23865  15.278   6.056   5.148 -0.2130 -0.1761  0.1624
 7392W        W23866  15.674   6.167  14.748  0.0109  0.2174 -0.1792
 7393W        W23867  10.721   0.555  14.483  0.1874 -0.1658 -0.0332
 7394W        W23868  17.474  10.590   2.533 -0.0296  0.1356  0.0532
 7395W        W23869   8.040   2.775   2.435  0.0335  0.0602  0.1225
 7396W        W23870  11.618   8.142  14.697  0.0893 -0.1828  0.2133
 7397W        W23871   4.767  15.344   0.657  0.0039 -0.0204  0.1176
 7398W        W23872  12.661  16.988  10.745  0.2395 -0.1265 -0.1364
 7399W        W23873   0.142   4.707  15.764 -0.1805 -0.0257 -0.1371
 7400W        W23874  10.518   1.796   2.553  0.1120 -0.0058 -0.0709
 7401W        W23875  15.776   7.025  11.052  0.2342 -0.2235  0.5402
 7402W        W23876  14.110   4.788   3.186 -0.2693 -0.4695 -0.0897
 7403W        W23877  11.876  15.246   1.627 -0.0801  0.1615 -0.1907
 7404W        W23878   7.961  12.074   1.620  0.1044  0.0135  0.3957
 7405W        W23879   4.945  11.247  15.705 -0.0765 -0.1834 -0.0815
 7406W        W23880  13.211  16.011  15.579 -0.1153 -0.0335  0.3883
 7407W        W23881  17.221  12.384   0.126 -0.0915  0.0344  0.2692
 7408W        W23882   2.733  13.595   1.990  0.0786 -0.1454  0.2178
 7409W        W23883   0.337  16.350  16.150 -0.0941 -0.3364  0.0352
 7410W        W23884   4.018  11.840  12.653  0.3252  0.1136  0.0582
 7411W        W23885   8.394   6.766  11.998 -0.1926  0.1660  0.1922
 7412W        W23886   3.161  14.639  13.448  0.0006 -0.0037  0.1930
 7413W        W23887  17.896   6.180   0.554 -0.4488 -0.0859  0.1466
 7414W        W23888   5.926   0.129   1.436  0.2285 -0.1282  0.2822
 7415W        W23889   2.867   2.339   1.637 -0.1849  0.1979  0.2762
 7416W        W23890   4.601   3.984   1.580 -0.2429  0.1609  0.2634
 7417W        W23891   3.035   5.353   4.284 -0.1382  0.3135 -0.2081
 7418W        W23892   5.242   9.489   5.007  0.1253 -0.0511  0.0538
 7419W        W23893  16.302  15.672   4.652 -0.0760  0.1172 -0.1141
 7420W        W23894   2.861   5.669  14.507 -0.1407 -0.1988  0.1418
 7421W        W23895   4.867   4.035  13.124  0.3306 -0.0013 -0.2297
 7422W        W23896   3.892  15.759  14.158  0.0236  0.0538  0.2100
 7423W        W23897   9.036   5.821   3.496  0.0747 -0.0830 -0.0304
 7424W        W23898   8.210   2.509  12.689  0.0039  0.1066  0.2183
 7425W        W23899   3.761  13.182   3.420 -0.0813 -0.2587 -0.1000
 7426W        W23900   2.198  11.817  15.803 -0.2646  0.1982  0.1545
 7427W        W23901   5.270  18.070  12.708  0.0339 -0.1025  0.0149
 7428W        W23902   8.066  17.492  16.133 -0.1950 -0.1557  0.2302
 7429W        W23903   1.040  17.214   0.919 -0.1581  0.1062 -0.0617
 7430W        W23904  12.920  13.825  15.902  0.0451  0.1530 -0.1477
 7431W        W23905   2.497  11.367  13.067 -0.0311  0.0003  0.0960
 7432W        W23906   3.109  10.800  13.117 -0.2132 -0.1050  0.0727
 7433W        W23907  10.592   2.101   2.180  0.1399  0.3245  0.0725
 7434W        W23908  15.996   0.986  15.337 -0.1862 -0.1487  0.1253
 7435W        W23909   8.114  10.891   1.710 -0.0114  0.1902 -0.1317
 7436W        W23910  16.615  17.610   1.433  0.1898  0.0508  0.1015
 7437W        W23911  15.728   7.134  14.083  0.1181 -0.2323 -0.0266
 7438W        W23912   8.840   3.660  14.822  0.1430  0.1543  0.1509
 7439W        W23913   9.911   2.329  15.366  0.0637 -0.0460  0.0617
 7440W        W23914  10.685   2.991  15.934  0.1154  0.5234 -0.0926
 7441W        W23915   7.496   0.286   4.208  0.2092  0.0058 -0.0425
 7442W        W23916   6.926  11.114   2.156 -0.1317 -0.4817  0.1136
 7443W        W23917   6.008   6.701   4.457 -0.0409  0.0080  0.1775
 7444W        W23918   2.077  16.619   3.531 -0.1039  0.0639  0.1048
 7445W        W23919   9.989  17.631  13.705 -0.0570  0.0962 -0.3872
 7446W        W23920   3.724   4.152   1.394 -0.0685 -0.0841 -0.1483
 7447W        W23921   5.600  15.321   2.936 -0.1603  0.1427  0.3460
 7448W        W23922  11.627   1.287  13.948 -0.1803 -0.0138  0.2685
 7449W        W23923  15.475   1.679  12.088 -0.0568 -0.0934 -0.0914
 7450W        W23924   6.584   4.966   2.525 -0.1705  0.1102  0.2565
 7451W        W23925  17.383  10.973   2.222 -0.1187 -0.1333  0.3146
 7452W        W23926  17.894  11.276   3.231 -0.0402 -0.2807 -0.1771
 7453W        W23927   7.175   1.071   1.430  0.1759 -0.0093 -0.0395
 7454W        W23928   4.690  17.067   3.480 -0.1009 -0.0592 -0.0354
 7455W        W23929   7.559  16.777   2.828 -0.0697 -0.2109  0.0652
 7456W        W23930  13.026   4.574   3.384  0.3719  0.2455  0.1554
 7457W        W23931  17.809  12.561  11.943 -0.2787  0.0997  0.3424
 7458W        W23932  14.402  14.251  12.524  0.0953  0.2263  0.0737
 7459W        W23933  13.156   8.043   1.319 -0.2143  0.2205  0.0840
 7460W        W23934   2.346   1.718   3.766  0.1301  0.2738  0.3376
 7461W        W23935   6.894   2.060   2.560  0.0052  0.1324 -0.2034
 7462W        W23936  12.400  17.886   3.075 -0.0426 -0.1020 -0.2553
 7463W        W23937   9.960   5.138  11.606  0.1158 -0.0497  0.2218
 7464W        W23938   7.934  11.207   3.097  0.2813 -0.0099 -0.3850
 7465W        W23939   6.168   4.822   1.332 -0.1087 -0.0774  0.5975
 7466W        W23940  13.340   2.850   2.669  0.1093  0.1768  0.0701
 7467W        W23941   3.019  17.228   1.103  0.0539 -0.0201 -0.0410
 7468W        W23942   0.290  13.881  15.215 -0.0771  0.1169 -0.2157
 7469W        W23943  12.863  16.091  15.258  0.3747 -0.2189 -0.0905
 7470W        W23944   0.605   2.236   0.448  0.2263  0.0108 -0.1833
 7471W        W23945   9.541  16.556   1.496  0.1655  0.0867 -0.1852
 7472W        W23946   2.511   5.359   4.366 -0.2493  0.0450  0.0849
 7473W        W23947  13.127  15.583  12.866  0.0373 -0.0191 -0.1635
 7474W        W23948   7.723   3.182  16.089 -0.1203  0.1304  0.1327
 7475W        W23949  14.667   3.952   2.176 -0.4358  0.0562  0.1889
 7476W        W23950   9.155   0.688   4.409  0.1000  0.0858  0.0238
 7477W        W23951   7.001   3.682   4.350  0.1058  0.3214 -0.1693
 7478W        W23952   3.920   1.668   5.589 -0.1316 -0.1357 -0.1443
 7479W        W23953  15.133   9.374   0.014  0.5623  0.0416  0.1612
 7480W        W23954   6.361  17.063  14.019  0.3261  0.0961  0.4026
 7481W        W23955  10.675  14.766  13.805  0.0872 -0.2792  0.0192
 7482W        W23956  13.220   8.414  13.979 -0.0003  0.2616 -0.1383
 7483W        W23957  16.049   9.517   4.117  0.1152  0.1490 -0.1285
 7484W        W23958   3.485   4.797  16.035 -0.0479  0.1269 -0.0978
 7485W        W23959   9.826  14.102  14.912 -0.0017  0.1646 -0.1479
 7486W        W23960   3.006   0.492   1.375 -0.0222 -0.1143 -0.2100
 7487W        W23961  11.477  13.131   1.958  0.2534  0.1394  0.2281
 7488W        W23962   9.130   0.201   1.454 -0.0312 -0.4543  0.0596
 7489W        W23963   0.429  13.910  13.340 -0.2480 -0.1166 -0.1465
 7490W        W23964   3.186  13.740  12.577  0.0698  0.0663  0.0958
 7491W        W23965   7.933  13.365   3.147  0.1275  0.2058  0.1269
 7492W        W23966   7.680  16.516  15.148 -0.0045  0.1874  0.0434
 7493W        W23967  15.032   7.820  13.072  0.3245  0.0432 -0.0173
 7494W        W23968  10.416  13.182   3.938 -0.1702  0.3433  0.2913
 7495W        W23969  11.361  10.131  16.236 -0.1869 -0.0203  0.1937
 7496W        W23970  17.649  11.573  16.167  0.1878 -0.2158  0.3435
 7497W        W23971  15.031   4.211   5.319 -0.1440 -0.0813 -0.1396
 7498W        W23972   0.205   7.425  15.140  0.1422 -0.0250  0.1509
 7499W        W23973   2.644   8.486  11.847  0.1499  0.1945 -0.2466
 7500W        W23974   6.742  12.958  15.674  0.0343 -0.0299 -0.3188
 7501W        W23975   0.080   3.183   3.911 -0.1090 -0.0866 -0.0924
 7502W        W23976  11.406   0.195  15.783  0.0237 -0.0329  0.1878
 7503W        W23977   8.974   3.918  11.106 -0.0943 -0.0888  0.1753
 7504W        W23978  14.477   5.889   4.672  0.3087  0.0964  0.0572
 7505W        W23979  16.378  12.379  12.700 -0.3098  0.2394 -0.2853
 7506W        W23980   4.940  15.370   1.618  0.1374  0.3426  0.1178
 7507W        W23981  13.171  10.218   4.041 -0.2149  0.0776 -0.3537
 7508W        W23982  10.669   5.136  14.505  0.0224  0.1316 -0.1389
 7509W        W23983  12.932  10.185   0.521  0.1220  0.0367 -0.1273
 7510W        W23984  12.556  18.092  12.758 -0.1002 -0.0489  0.3003
 7511W        W23985   2.182  14.501   0.814  0.1520 -0.1661  0.1773
 7512W        W23986   0.205   2.975  13.642  0.0494 -0.1906 -0.0262
 7513W        W23987   6.666  18.077   4.627 -0.3119  0.0841  0.0425
 7514W        W23988  14.579   6.427  12.057 -0.0532  0.2760  0.0232
 7515W        W23989  12.871   9.247   2.830 -0.2147  0.1324  0.3338
 7516W        W23990  15.217   5.892  16.165  0.0110 -0.1125  0.2500
 7517W        W23991  12.306  10.338   1.304 -0.0118  0.3153  0.2432
 7518W        W23992   1.544   3.236  15.325 -0.2191 -0.0017 -0.0894
 7519W        W23993   1.088  10.597   3.077 -0.0456  0.0171 -0.3121
 7520W        W23994  13.082  16.212  11.697 -0.1553 -0.2446  0.0906
 7521W        W23995  10.033  11.489  13.807 -0.0584  0.2178  0.0961
 7522W        W23996   3.561  16.951   1.871 -0.0755  0.0576 -0.1410
 7523W        W23997  15.477   3.071   2.122  0.0850 -0.1300 -0.0321
 7524W        W23998  10.739   0.740   1.637 -0.3526 -0.0371  0.1257
 7525W        W23999  12.285  13.904   0.070  0.0463 -0.1216  0.0626
 7526W        W24000  13.660   8.786   1.506  0.2176  0.0886  0.0709
 7527W        W24001   1.041   5.470  15.720  0.0581  0.3052 -0.0335
 7528W        W24002   8.289   9.469  14.058  0.0176  0.1622  0.0668
 7529W        W24003  16.023  14.789   2.681 -0.2481  0.1850  0.1645
 7530W        W24004   7.465  16.492  12.603 -0.0157  0.1291  0.0667
 7531W        W24005  11.958   3.790   3.103 -0.2395 -0.3597  0.0164
 7532W        W24006  13.875   2.746   2.322 -0.1684 -0.0211  0.0747
 7533W        W24007   3.064  16.709  13.882 -0.2326 -0.1529 -0.0366
 7534W        W24008  16.458   6.073  11.031 -0.0742  0.1873  0.0521
 7535W        W24009  11.754   5.087  13.096 -0.0288  0.1283 -0.0421
 7536W        W24010   9.142  16.150   2.566 -0.0736 -0.0724  0.0869
 7537W        W24011  14.296   6.608   3.157  0.2489 -0.0086  0.1199
 7538W        W24012  13.278   0.534  11.855  0.0733 -0.1152  0.1041
 7539W        W24013   8.295   5.705  12.444  0.0728  0.0196  0.1923
 7540W        W24014  13.854   1.687  15.924 -0.2731  0.0578  0.1539
 7541W        W24015   9.381   3.879   5.879 -0.0869 -0.2475 -0.1781
 7542W        W24016  15.608  17.432  12.823 -0.0607  0.4759  0.0045
 7543W        W24017  15.431   5.319   4.127 -0.2945 -0.1674  0.2280
 7544W        W24018  11.069  10.156  13.985 -0.0568  0.2476 -0.2377
 7545W        W24019   8.551   1.353   1.127 -0.0888 -0.0592 -0.0374
 7546W        W24020   8.785  10.488  15.541  0.2319 -0.1456  0.2185
 7547W        W24021   7.874  17.253  13.379  0.4044  0.1558  0.0279
 7548W        W24022   6.463  10.903   3.345 -0.1709  0.3582 -0.2038
 7549W        W24023   8.952  13.673   1.500  0.0685  0.0445 -0.1666
 7550W        W24024  10.571  16.498  11.861  0.0748 -0.1888  0.1617
 7551W        W24025   3.271  16.044   2.743 -0.0036 -0.2839 -0.2656
 7552W        W24026  11.812  11.352   5.277 -0.0294 -0.5499  0.1462
 7553W        W24027   6.668   1.464  15.397 -0.3374 -0.1331  0.1634
 7554W        W24028  16.909  17.333   1.825  0.2317  0.1887 -0.1745
 7555W        W24029   6.759   3.232   6.207 -0.1598  0.1368 -0.3410
 7556W        W24030   6.593   6.007  15.524 -0.2658 -0.1945 -0.0496
 7557W        W24031  13.226  16.403  12.523 -0.1011 -0.1787  0.3425
 7558W        W24032  15.682   7.181   1.339 -0.1801 -0.2186 -0.1040
 7559W        W24033   9.609  11.686  14.173  0.2111  0.0037 -0.2033
 7560W        W24034   8.639   9.535   0.224  0.1887 -0.1938  0.2052
 7561W        W24035   2.738   4.551  12.205 -0.0123 -0.1513 -0.1095
 7562W        W24036   6.449   1.487   2.472 -0.0782  0.1045 -0.0655
 7563W        W24037  13.489   9.639  13.995 -0.0764 -0.0797 -0.0361
 7564W        W24038   6.241   2.716  14.645  0.0242 -0.1046  0.1704
 7565W        W24039   8.325   9.009   3.551  0.1031  0.3547 -0.1632
 7566W        W24040  17.628  17.191   3.617 -0.0213  0.1941  0.4030
 7567W        W24041   9.373   4.380   4.156  0.3333 -0.1318  0.1264
 7568W        W24042   5.803   4.036   0.824 -0.2019 -0.1955  0.2432
 7569W        W24043   1.920   3.742   5.611 -0.0905  0.1259  0.0253
 7570W        W24044  17.770  15.555  13.265  0.2348  0.3677  0.0340
 7571W        W24045  10.307   9.501   2.931 -0.1636  0.0049 -0.1518
 7572W        W24046  17.025   2.662  13.117 -0.3636 -0.3261  0.0043
 7573W        W24047   0.828   1.687   5.690 -0.0033 -0.1774  0.0450
 7574W        W24048   0.338   5.163   4.190  0.0155 -0.0843  0.0214
 7575W        W24049  17.446  15.100  14.509 -0.1448 -0.3684  0.1033
 7576W        W24050   9.065  13.813   5.238  0.0166  0.2148 -0.1475
 7577W        W24051  14.053   3.924  15.290  0.1789 -0.1885 -0.1077
 7578W        W24052   0.375   2.313   1.794  0.0951  0.1733 -0.0546
 7579W        W24053  15.313   7.872  15.235  0.0539 -0.0894 -0.1442
 7580W        W24054   6.131  14.989   0.183 -0.0629  0.0194  0.4386
 7581W        W24055  12.883  11.029   3.072  0.0808 -0.3231 -0.2042
 7582W        W24056  11.612   9.215   4.131  0.1559  0.0836 -0.1488
 7583W        W24057  17.401  17.118  15.620  0.0364 -0.0821  0.0853
 7584W        W24058  13.758   1.806  13.817 -0.1270 -0.0662 -0.1778
 7585W        W24059   5.251   0.149  11.064  0.3269  0.1187 -0.2717
 7586W        W24060  14.529  14.450   1.059 -0.0422  0.1005 -0.0998
 7587W        W24061  10.408  14.945   3.271  0.1226 -0.0030 -0.0467
 7588W        W24062   0.852  10.229   4.754  0.1181 -0.1118 -0.4940
 7589W        W24063  17.922   2.145  13.765 -0.3119  0.0677  0.1512
 7590W        W24064   6.412   8.389   4.992  0.0208 -0.1179  0.0641
 7591W        W24065   1.343  12.762  10.474  0.3045  0.0949 -0.0360
 7592W        W24066  13.813  16.314  15.426  0.0729 -0.0333 -0.2574
 7593W        W24067  14.617   7.675  12.487 -0.1427 -0.2138  0.1324
 7594W        W24068   5.055   6.727  15.821 -0.4452 -0.0457 -0.0330
 7595W        W24069   0.988  14.261   1.707 -0.0041  0.1628 -0.1102
 7596W        W24070  13.566   6.292   1.228  0.0200  0.1275 -0.4309
 7597W        W24071  10.382   7.849  12.551  0.2837 -0.0710 -0.1572
 7598W        W24072   4.948  15.441   3.113  0.4190 -0.2266 -0.1575
 7599W        W24073   1.540   4.962  15.581  0.2451 -0.1259 -0.3634
 7600W        W24074   8.026  11.235  14.738  0.0361 -0.2511 -0.0557
 7601W        W24075  12.489   8.647  16.347 -0.3044 -0.1185 -0.4287
 7602W        W24076   9.896  16.509  13.129  0.0341  0.0784  0.0619
 7603W        W24077  13.011  16.545   3.200 -0.0340  0.1596  0.2507
 7604W        W24078  10.487  13.951  11.585  0.3432  0.1642  0.0889
 7605W        W24079  17.266  12.990   1.249  0.0774 -0.0857 -0.0920
 7606W        W24080  10.246  11.561  12.612  0.1746  0.1639  0.0398
 7607W        W24081   5.348  12.088   3.099  0.0811 -0.0118 -0.2960
 7608W        W24082  11.537  10.998  13.654 -0.0210 -0.3029 -0.0660
 7609W        W24083  11.821  13.743   3.200 -0.0740 -0.1337  0.1686
 7610W        W24084  16.970   2.089   1.520  0.1831 -0.0458  0.1497
 7611W        W24085  14.483  12.395   2.074 -0.0759  0.2935 -0.3659
 7612W        W24086  13.545  17.555   1.109 -0.0820 -0.1048  0.0104
 7613W        W24087   5.957   9.462   4.201  0.0871  0.0350  0.0788
 7614W        W24088   3.242   7.456   0.617 -0.1551  0.0095 -0.0756
 7615W        W24089   9.210   5.181  13.816  0.2507 -0.2571 -0.1618
 7616W        W24090   6.125  16.778  13.585  0.1104 -0.2462  0.1152
 7617W        W24091  11.504   1.254   1.711  0.0945 -0.1751  0.2644
 7618W        W24092  12.268   2.237  12.163 -0.1004 -0.0278  0.0093
 7619W        W24093   8.251   3.460  12.893 -0.1577  0.1797  0.0044
 7620W        W24094  15.232   5.690   1.822  0.1185  0.0082 -0.2225
 7621W        W24095   8.497   0.616   0.055 -0.0038  0.1927  0.3753
 7622W        W24096   6.191   2.772  15.297  0.0811  0.1492  0.1993
 7623W        W24097   6.719  12.391  15.570 -0.2086 -0.3555 -0.0058
 7624W        W24098  13.775   9.680   3.647  0.1596  0.0567  0.2473
 7625W        W24099   7.352   3.382  12.788 -0.0136  0.0881  0.1829
 7626W        W24100  17.873   7.236   4.305  0.0413 -0.0247  0.0496
 7627W        W24101   2.611  15.822  12.843  0.1241  0.2078  0.0460
 7628W        W24102   2.759  14.824   5.473 -0.1674  0.1697 -0.0890
 7629W        W24103  12.871  13.760   3.083  0.1010  0.1019  0.1595
 7630W        W24104  15.156  15.375  15.022  0.1860 -0.0662  0.1352
 7631W        W24105   0.736   8.359   2.755 -0.3115 -0.0979 -0.0797
 7632W        W24106  10.494   0.396  15.925 -0.3186 -0.0111 -0.3372
 7633W        W24107   1.716   6.020   2.652 -0.0407 -0.2698 -0.1668
 7634W        W24108   1.033  16.643  13.169 -0.1346 -0.0563  0.0060
 7635W        W24109  14.068   0.565   1.390 -0.3155  0.1619 -0.4278
 7636W        W24110   3.373   6.386   4.805 -0.0353  0.0173  0.0790
 7637W        W24111   8.668   1.008  15.616 -0.0999 -0.2698 -0.1022
 7638W        W24112   5.431  11.489   0.552  0.0017  0.1298  0.0371
 7639W        W24113   5.145   9.749   5.385 -0.4050 -0.1998  0.1999
 7640W        W24114  13.345   4.153   3.948  0.1975 -0.0023  0.2454
 7641W        W24115   6.234   6.072   3.780  0.1361  0.1185  0.0894
 7642W        W24116   2.707   7.656  11.336 -0.0317  0.2652 -0.1705
 7643W        W24117  12.549  13.002  11.609  0.3664  0.2419  0.1442
 7644W        W24118   2.351   4.106  14.145  0.1672  0.1575 -0.0211
 7645W        W24119  11.355   5.304   0.752 -0.0211 -0.0790  0.0499
 7646W        W24120   0.733   3.214   0.590  0.1002  0.4016  0.0284
 7647W        W24121   6.632   8.942   3.438 -0.0505  0.2793 -0.2109
 7648W        W24122   9.713  17.391  14.021  0.0154 -0.2563 -0.0852
 7649W        W24123  10.239   7.299  15.401 -0.1413 -0.0059  0.0157
 7650W        W24124  17.187   9.071   2.202  0.0964  0.3566  0.0252
 7651W        W24125   8.518  14.819  14.577 -0.1459 -0.1646 -0.0606
 7652W        W24126  16.433  13.187   2.009  0.1344  0.1231 -0.0440
 7653W        W24127   5.380   6.871  12.474 -0.0602 -0.1130  0.1783
 7654W        W24128   6.771  15.838   5.684  0.3598 -0.0251 -0.4783
 7655W        W24129  11.526   6.490   1.583  0.2286  0.0777 -0.2846
 7656W        W24130   1.768  11.169  15.980 -0.0713  0.0865  0.1578
 7657W        W24131  16.356  12.533   4.183 -0.1763 -0.1345 -0.2243
 7658W        W24132  11.213   5.399   0.282 -0.1120  0.2198  0.0204
 7659W        W24133   9.193   7.043   2.937 -0.0987  0.1461  0.2736
 7660W        W24134   8.890  14.685   3.542 -0.1001 -0.3903  0.1470
 7661W        W24135   9.029   5.683  13.298  0.1011 -0.2845  0.1146
 7662W        W24136   8.215  13.220   4.102 -0.1391  0.0144 -0.1866
 7663W        W24137   1.997   2.678  15.189 -0.0904  0.1667 -0.0599
 7664W        W24138   7.619  17.958   1.381 -0.0958 -0.0860  0.0966
 7665W        W24139   5.743  10.853  15.788  0.4091 -0.0440 -0.1518
 7666W        W24140   2.410  12.147  12.179  0.0636 -0.5731  0.0840
 7667W        W24141  12.283   0.820  13.014 -0.2120  0.0824  0.2686
 7668W        W24142  13.885   3.410  13.247 -0.2304  0.2389  0.1183
 7669W        W24143   3.020   8.385   5.223  0.2859 -0.1743  0.0651
 7670W        W24144  16.658   3.661   1.606 -0.1542  0.4065  0.2501
 7671W        W24145  17.123   4.394   5.204  0.2761  0.1413  0.0683
 7672W        W24146   7.797   3.682   2.704 -0.2111  0.0808  0.0847
 7673W        W24147   5.558   3.345  11.788  0.0286 -0.1193 -0.1191
 7674W        W24148  12.817   5.299  13.018  0.5009  0.1192 -0.1027
 7675W        W24149   5.447   1.866   0.840 -0.0990 -0.1439  0.0668
 7676W        W24150  13.934   0.907   0.724 -0.1408 -0.0053 -0.2214
 7677W        W24151  16.529   5.357  14.292  0.2672 -0.1064  0.0860
 7678W        W24152   9.668   1.222  13.431  0.2709 -0.1162  0.0361
 7679W        W24153   2.416  14.445  12.623 -0.1007 -0.0895  0.1231
 7680W        W24154  14.695   6.163   1.131 -0.1052  0.0923 -0.4093
 7681W        W24155  10.746  10.659  13.183 -0.3347 -0.1006  0.1072
 7682W        W24156   6.513   9.911  13.110  0.3797  0.3511  0.0409
 7683W        W24157  10.793   2.389   5.461  0.1983  0.1094  0.1840
 7684W        W24158  10.305  15.008  15.060  0.1721 -0.3264 -0.1033
 7685W        W24159  10.727   6.466   2.092  0.1031  0.1326 -0.1360
 7686W        W24160   3.534   0.580   4.242  0.0649 -0.0578  0.0231
 7687W        W24161  17.509  12.622   4.134  0.1750 -0.1451 -0.1579
 7688W        W24162   4.709  14.751   0.255 -0.0513 -0.3281  0.2211
 7689W        W24163  16.164   4.519   2.949 -0.0678 -0.3124 -0.0887
 7690W        W24164  16.186   5.706   2.903  0.2466 -0.0770  0.1776
 7691W        W24165   4.665   4.391  11.510  0.4665  0.3234 -0.0325
 7692W        W24166   1.713   9.420  11.734  0.0025 -0.0436 -0.0656
 7693W        W24167  13.929   1.939  14.754  0.0520 -0.0111  0.1931
 7694W        W24168   3.576  11.329   4.710  0.3603  0.0509  0.0305
 7695W        W24169  14.597  11.276   4.147 -0.0864  0.0550  0.2150
 7696W        W24170   8.741   1.044  11.925 -0.3003  0.0478 -0.0017
 7697W        W24171   1.725  14.300   1.905  0.1108  0.3389 -0.2201
 7698W        W24172  13.183  17.504   3.893 -0.1337 -0.0089 -0.1801
 7699W        W24173   0.416  13.403  15.077  0.0448 -0.0703 -0.3052
 7700W        W24174   0.066   7.662   3.460 -0.0305  0.0320  0.2004
 7701W        W24175   0.700   3.956   1.389  0.0258  0.2241  0.1363
 7702W        W24176  13.286   2.043  15.395  0.0839  0.1649  0.0372
 7703W        W24177  14.963  13.917  14.270  0.1290  0.0029 -0.2973
 7704W        W24178   7.103  14.747   3.764  0.2177  0.1046  0.2161
 7705W        W24179   4.024   2.110   3.879 -0.0028 -0.0104 -0.2273
 7706W        W24180   2.502   0.677  14.197 -0.1149 -0.0749  0.0369
 7707W        W24181   8.456   4.595  11.163  0.0261  0.0091  0.1847
 7708W        W24182  13.741  14.336   2.945 -0.2224 -0.0879  0.3789
 7709W        W24183  15.350  17.474  15.814 -0.2146  0.0353 -0.2003
 7710W        W24184   6.417  17.524  13.495  0.3044 -0.0880  0.0912
 7711W        W24185   1.078  12.111   4.016 -0.4217  0.0786  0.3022
 7712W        W24186  11.954  12.304  12.980  0.0833 -0.0460 -0.3604
 7713W        W24187  10.046  13.639   4.988 -0.0602  0.0736  0.0559
 7714W        W24188  14.300   5.210  14.873 -0.0793  0.3182 -0.0859
 7715W        W24189   9.674   8.967   3.392 -0.3489 -0.0397 -0.0732
 7716W        W24190  11.718  17.363  12.109  0.1685  0.1056  0.2766
 7717W        W24191   6.140   9.319  13.620  0.1560 -0.3172  0.1216
 7718W        W24192   5.696   6.588   3.221 -0.0532  0.0505 -0.2938
 7719W        W24193   2.467  16.337  10.660  0.0643  0.1759 -0.1748
 7720W        W24194   6.852  11.659   3.808  0.1057 -0.0014  0.0131
 7721W        W24195  14.265  11.496   4.988  0.0183  0.0992  0.1456
 7722W        W24196  16.953   5.824   2.331  0.1412  0.3491 -0.1502
 7723W        W24197  10.826   4.565   0.506 -0.2126 -0.2109 -0.2249
 7724W        W24198  17.347   8.482  15.030 -0.0677  0.0277 -0.3183
 7725W        W24199  14.696   8.151   2.018  0.0164 -0.3085  0.0748
 7726W        W24200  14.263   7.469  15.522  0.2979 -0.1336  0.0310
 7727W        W24201  13.052  14.356   1.349  0.1407  0.1860 -0.0365
 7728W        W24202  10.897   1.869  14.449 -0.0027  0.1205 -0.0010
 7729W        W24203   9.466  12.372  10.834 -0.1789 -0.0334 -0.0163
 7730W        W24204   0.092   8.162   1.303 -0.2476 -0.0669  0.0950
 7731W        W24205  16.076   7.875  16.273 -0.2874 -0.0848 -0.1183
 7732W        W24206   8.984   5.305  14.586 -0.0443 -0.1079 -0.0361
 7733W        W24207  15.690  17.203   3.232  0.3011  0.1283 -0.0198
 7734W        W24208   1.083  10.997  11.159 -0.2537  0.1100  0.0855
 7735W        W24209   9.378  15.436   5.418 -0.1827  0.1812 -0.4941
 7736W        W24210   9.247   5.122   4.842  0.0801 -0.0445  0.1087
 7737W        W24211   6.686  15.226  13.346 -0.4035 -0.0491 -0.0315
 7738W        W24212   4.574   0.428  13.809 -0.0147 -0.3026 -0.1146
 7739W        W24213  17.490  12.085   1.160  0.0015  0.3438  0.0539
 7740W        W24214   3.330   5.675   3.397 -0.2303 -0.1486 -0.1464
 7741W        W24215  10.289  17.179   3.872  0.0776  0.2259  0.0731
 7742W        W24216  12.588  12.691  14.356  0.1807 -0.2271  0.0228
 7743W        W24217   0.567  16.665  12.462  0.0039 -0.1022  0.2154
 7744W        W24218   5.897  10.562   2.608 -0.0387 -0.0233  0.1429
 7745W        W24219  16.693   4.425   3.183 -0.1216 -0.1980  0.1370
 7746W        W24220   0.811   9.792  15.998  0.0836  0.1113 -0.0152
 7747W        W24221  11.583  16.662  13.849  0.1886  0.0588  0.0402
 7748W        W24222  13.614  17.523   2.460 -0.2053  0.0239  0.0968
 7749W        W24223  12.370  17.621   1.137 -0.0180  0.0056  0.1139
 7750W        W24224   0.384   4.136  13.327 -0.1105  0.0242 -0.2315
 7751W        W24225   2.307   1.554   2.362 -0.1855  0.1045 -0.0121
 7752W        W24226   0.398  10.759   1.325 -0.1971  0.1527 -0.2735
 7753W        W24227  17.856   2.979  16.053  0.0242  0.0978  0.0712
 7754W        W24228   4.070   0.966  13.626 -0.0467  0.0067  0.1777
 7755W        W24229   5.273  16.745  13.228  0.0075 -0.0262 -0.1634
 7756W        W24230   0.835  16.208  12.511 -0.0278  0.2064  0.1587
 7757W        W24231   9.172  17.523   6.172  0.1126 -0.0378  0.0384
 7758W        W24232  14.893   7.949  10.515  0.1965 -0.1163 -0.1972
 7759W        W24233  10.568  11.950  15.620 -0.2543 -0.2120 -0.0614
 7760W        W24234   6.851   3.220   1.802  0.1563 -0.1359 -0.0161
 7761W        W24235   1.573  16.344   2.886 -0.0210 -0.0435  0.1974
 7762W        W24236   4.551   5.574   2.591 -0.0782  0.2329 -0.1450
 7763W        W24237   0.084   5.675   2.696 -0.0232  0.0260 -0.1539
 7764W        W24238   7.208   0.357   3.085 -0.0863 -0.2505  0.1731
 7765W        W24239  12.716   3.008  12.499 -0.1077 -0.2478 -0.1774
 7766W        W24240   1.648   8.024  13.749  0.1751  0.3222 -0.1311
 7767W        W24241  13.729   8.773   0.112 -0.0161 -0.0712  0.1887
 7768W        W24242   4.964   2.114   0.948 -0.2350 -0.1505 -0.2390
 7769W        W24243   7.236  13.707  11.480 -0.0343  0.0490  0.0576
 7770W        W24244   5.843   4.975  15.534  0.2750 -0.2727  0.1137
 7771W        W24245  12.574   0.858  14.322 -0.2773  0.0497 -0.1892
 7772W        W24246  15.400   6.926   5.634 -0.0107 -0.1578  0.1783
 7773W        W24247  13.625  10.380   5.661  0.0106  0.1700 -0.2524
 7774W        W24248   5.781  15.358   1.048 -0.2357  0.0558  0.0882
 7775W        W24249  16.684   6.280  10.659 -0.0171 -0.1819  0.2208
 7776W        W24250  11.351  15.533   0.198  0.0330  0.2248 -0.0632
 7777W        W24251   7.663  12.096  15.825 -0.0940  0.3380  0.0283
 7778W        W24252   7.843  10.669  12.377 -0.0769  0.2047  0.0775
 7779W        W24253  13.270   3.599  15.454  0.1025  0.0201  0.2390
 7780W        W24254   2.096  16.282   1.280 -0.0417  0.1134 -0.1226
 7781W        W24255  11.149   9.958   4.302 -0.2185  0.2309 -0.2281
 7782W        W24256  16.017   6.669  14.054  0.0606 -0.0360  0.1147
 7783W        W24257   3.913   7.455   0.954  0.0149 -0.0035  0.1351
 7784W        W24258  15.999   6.027   3.286  0.0334 -0.0245  0.1339
 7785W        W24259   6.780  17.305   2.502  0.1731 -0.1701 -0.2295
 7786W        W24260  14.460   7.108   4.617  0.1364 -0.0385 -0.0565
 7787W        W24261  12.575  15.624  12.198 -0.2131 -0.0201  0.0378
 7788W        W24262   2.280   9.671  13.014 -0.0884 -0.0367 -0.1889
 7789W        W24263   4.952   7.071  15.052  0.1728 -0.4283 -0.0041
 7790W        W24264  14.934  16.386  11.696  0.0470  0.1547 -0.1417
 7791W        W24265   5.398  10.414   3.416  0.0647  0.2416  0.3818
 7792W        W24266   9.842   5.995  13.190 -0.0454  0.0365  0.2001
 7793W        W24267  15.778  17.044  14.764  0.1315 -0.2231  0.1527
 7794W        W24268  11.205   8.654   4.679 -0.2512  0.3996  0.0049
 7795W        W24269   2.137   5.367  15.170  0.0756 -0.0209 -0.0870
 7796W        W24270  13.769  13.252  11.411 -0.3878 -0.0024  0.1407
 7797W        W24271   2.161   8.886  11.798  0.0472 -0.2893 -0.0494
 7798W        W24272  16.258   2.611   2.012 -0.2293  0.2976  0.2823
 7799W        W24273   9.204   2.452   3.999 -0.1849  0.1036  0.0535
 7800W        W24274  11.846   0.096   1.195  0.2740 -0.1393 -0.4322
 7801W        W24275   1.743   6.886   0.127 -0.1960 -0.0672  0.1112
 7802W        W24276  10.743   0.298   1.793  0.0983 -0.1176 -0.1304
 7803W        W24277   3.074  11.924   0.597  0.1052 -0.0574  0.2589
 7804W        W24278   3.253   0.031  12.393  0.0519 -0.0572  0.0793
 7805W        W24279   2.269   5.773  13.015  0.0084  0.0737 -0.1345
 7806W        W24280   6.005  14.951  11.846 -0.3421  0.0228  0.0889
 7807W        W24281  13.523   6.241  13.793  0.1438 -0.2070 -0.3755
 7808W        W24282  17.841   1.080   1.864  0.4041  0.3311 -0.2418
 7809W        W24283   9.598   8.048  10.858 -0.0080  0.2479  0.0873
 7810W        W24284   2.066   4.103   5.332  0.2448  0.1602  0.0810
 7811W        W24285   9.257   5.992  14.035 -0.2052  0.0106 -0.1310
 7812W        W24286   3.830  14.692   0.161 -0.0288  0.2331  0.1122
 7813W        W24287   2.877   6.471   2.433  0.1398 -0.1438  0.1558
 7814W        W24288  14.862   5.968   1.591  0.2265 -0.0636  0.1425
 7815W        W24289   9.498   5.871   6.095 -0.1603  0.0062 -0.0980
 7816W        W24290   3.329  14.995  12.599  0.1908  0.3547 -0.0275
 7817W        W24291   1.419   7.972   4.001 -0.0292 -0.0279  0.1077
 7818W        W24292   4.679  14.555  12.271  0.0355  0.3190  0.0603
 7819W        W24293  11.046  11.596  13.832  0.0126 -0.0255  0.3431
 7820W        W24294   8.640   9.385   3.611  0.1762  0.2609  0.2432
 7821W        W24295  17.974   8.483  12.606  0.0264  0.0910 -0.1903
 7822W        W24296   9.096   6.299   4.744 -0.0573 -0.2607 -0.0329
 7823W        W24297   4.890   8.012   0.065 -0.2162  0.0366 -0.3406
 7824W        W24298  17.390  15.124   0.088 -0.2857  0.0245  0.1086
 7825W        W24299   8.341  13.194  16.152 -0.0896  0.3140 -0.1953
 7826W        W24300  12.909   3.600  15.764  0.1637  0.2277  0.0773
 7827W        W24301  14.780   3.712   0.767  0.1790  0.0840 -0.1672
 7828W        W24302   7.859   6.811   1.188  0.1976 -0.2607 -0.0922
 7829W        W24303   5.375   4.011  12.636 -0.3047 -0.0369  0.0356
 7830W        W24304  15.253   2.496  13.423  0.1627  0.2291  0.3349
 7831W        W24305  15.577   7.119   3.958  0.0259  0.3666 -0.3127
 7832W        W24306   0.910  11.768  15.174 -0.0862 -0.1027  0.1253
 7833W        W24307   1.468  10.617   2.666  0.0991 -0.1327 -0.1616
 7834W        W24308  15.886   5.931  15.218 -0.1410  0.2843  0.2713
 7835W        W24309   8.757  15.760   3.865  0.0128 -0.2546 -0.2429
 7836W        W24310  11.343   6.756  11.277  0.1121 -0.0078  0.1351
 7837W        W24311  15.646   7.878   0.904  0.1782 -0.0329  0.1732
 7838W        W24312  13.326   4.507  14.485  0.1357 -0.0426  0.0687
 7839W        W24313   2.638   0.958  14.766 -0.1288 -0.0288 -0.1786
 7840W        W24314  15.893   7.803  14.776  0.1398  0.1233 -0.2799
 7841W        W24315  10.164  14.233   1.785  0.0557 -0.1830 -0.5294
 7842W        W24316  14.695   7.863  14.669  0.0889 -0.1925 -0.1386
 7843W        W24317  12.018   0.172  13.957 -0.2228  0.2266 -0.0159
 7844W        W24318   2.843   0.066  13.543 -0.0647  0.2685 -0.3006
 7845W        W24319   5.509  12.530   1.034  0.0691 -0.1499  0.0747
 7846W        W24320   3.869   2.128   2.895  0.0442 -0.0303 -0.1712
 7847W        W24321   6.901  16.694  13.800  0.2192 -0.0764 -0.3307
 7848W        W24322   7.854   4.122  13.687 -0.0060  0.2373 -0.0905
 7849W        W24323  16.740   6.510  15.630 -0.2845  0.1156  0.3677
 7850W        W24324   8.455  16.842   0.543 -0.0739  0.0698  0.2841
 7851W        W24325  18.136   3.966   0.432  0.0565 -0.0731 -0.1265
 7852W        W24326   6.443  14.843  15.270  0.2213 -0.0199 -0.0704
 7853W        W24327  12.411  16.905   9.925 -0.1049 -0.0647  0.0153
 7854W        W24328  16.699   0.286  13.795  0.0259  0.0721  0.1988
 7855W        W24329   8.570  13.184  15.715  0.0860  0.0351  0.0334
 7856W        W24330   9.017  12.758  11.676  0.2226  0.2521  0.1710
 7857W        W24331   6.920  12.799   0.673 -0.0721 -0.1633 -0.1934
 7858W        W24332  13.658   0.455  13.195  0.2262  0.3383  0.1817
 7859W        W24333  10.553  12.642   1.584 -0.0051 -0.0064 -0.0046
 7860W        W24334  10.292  15.872   3.184  0.4736 -0.3886 -0.0321
 7861W        W24335  15.046  16.172  15.770  0.0373 -0.1931  0.3656
 7862W        W24336   1.298  10.577   1.697  0.1918 -0.4315 -0.1662
 7863W        W24337  10.821   8.939   5.145  0.2109  0.2577  0.2676
 7864W        W24338  16.103  15.441   4.026 -0.0576 -0.2081  0.0181
 7865W        W24339  15.640  13.691   2.540  0.1684 -0.0244 -0.0198
 7866W        W24340   0.786   1.395   0.589  0.0250  0.0463  0.0525
 7867W        W24341  17.548  11.516   0.355  0.1409 -0.0618  0.0348
 7868W        W24342   9.967  15.064  11.815 -0.1727  0.1511 -0.3281
 7869W        W24343   5.322  11.099   4.753  0.3776  0.2198  0.0819
 7870W        W24344   6.015   6.370   2.249  0.1105  0.0074 -0.1282
 7871W        W24345   6.847   6.286   1.593 -0.2674 -0.1039 -0.2905
 7872W        W24346  10.783  10.773  12.707 -0.2146  0.0799  0.3060
 7873W        W24347  17.251   4.713  14.157  0.2862 -0.0397 -0.0198
 7874W        W24348  16.578   9.345   4.323 -0.0031 -0.0753  0.0208
 7875W        W24349   1.972  13.901  11.677  0.0129 -0.0595  0.0893
 7876W        W24350   8.432   0.475   0.757 -0.0071 -0.1142 -0.1611
 7877W        W24351  14.761   6.039   2.054  0.2047  0.1492  0.0432
 7878W        W24352   4.558   1.438   6.013  0.0140  0.1468 -0.0587
 7879W        W24353   2.686   3.849  15.040 -0.1627 -0.2260 -0.0251
 7880W        W24354  14.740   6.793  12.424 -0.1311 -0.0724  0.0262
 7881W        W24355  16.822  16.206  16.009 -0.1145  0.2806  0.0446
 7882W        W24356  10.831   7.682  12.723 -0.0398 -0.3984  0.0482
 7883W        W24357  16.485   8.658   0.234 -0.2790 -0.0762  0.1861
 7884W        W24358   8.915  16.198  14.392  0.0426  0.1675  0.1511
 7885W        W24359   0.038   9.956  12.902 -0.1501 -0.2582 -0.0503
 7886W        W24360  10.803  13.626  11.844 -0.0972  0.2615  0.0165
 7887W        W24361   6.589   0.330   4.301  0.0033  0.1062  0.1334
 7888W        W24362  15.861   0.362   1.213  0.0007 -0.2691  0.4193
 7889W        W24363  12.663   6.650   4.056  0.0112  0.0244 -0.2456
 7890W        W24364   5.893  13.721   1.525 -0.1977 -0.0885  0.0007
 7891W        W24365  14.640   0.042  12.685  0.0932 -0.0698  0.0972
 7892W        W24366   3.349  17.602  14.875 -0.0640 -0.2079 -0.0634
 7893W        W24367   7.627   3.453   2.157 -0.0665  0.2702  0.0703
 7894W        W24368   1.684  13.009   1.520  0.1509  0.2029  0.2700
 7895W        W24369  12.244   4.679   1.572 -0.1138 -0.2011  0.0139
 7896W        W24370  16.352  15.773  15.282 -0.1455 -0.0471 -0.0785
 7897W        W24371  18.121  11.304   3.901  0.0559 -0.3408  0.1748
 7898W        W24372   4.168  10.034  13.834 -0.0069 -0.4193  0.2075
 7899W        W24373   7.040   2.848   4.831 -0.2237 -0.0705  0.3227
 7900W        W24374   8.484  17.727  11.710  0.1803  0.2485  0.0857
 7901W        W24375  10.904  11.428   5.336  0.4130  0.2520  0.0302
 7902W        W24376   5.878   7.554   2.410  0.1688 -0.0701  0.6094
 7903W        W24377   8.392   7.723  12.351 -0.1593 -0.1114  0.1018
 7904W        W24378  17.621   7.648  14.192  0.1519 -0.3935 -0.1418
 7905W        W24379  16.982   0.908  11.589  0.1041 -0.2451 -0.2042
 7906W        W24380  16.201   3.717   1.805 -0.1315  0.1195  0.0212
 7907W        W24381   4.997   6.066  12.910 -0.0164 -0.0024  0.0237
 7908W        W24382  12.378   0.171   3.921 -0.0525 -0.0433  0.2635
 7909W        W24383  16.835  10.352  12.879  0.4175 -0.2708 -0.0624
 7910W        W24384  15.344   6.504   4.954  0.0756 -0.1803 -0.3410
 7911W        W24385   3.614   7.914  14.573 -0.0938  0.2266 -0.0195
 7912W        W24386  10.127   9.711   0.184  0.2608 -0.0296 -0.0689
 7913W        W24387   3.598   8.976   4.124  0.0148  0.2502 -0.1203
 7914W        W24388  10.878  11.102   0.443  0.1674  0.0899 -0.3076
 7915W        W24389  13.412   2.583   1.054 -0.0514  0.0596 -0.0514
 7916W        W24390  17.074   5.954  10.510  0.1994 -0.2352 -0.0389
 7917W        W24391   3.606  10.783  13.139 -0.1108  0.1414 -0.3380
 7918W        W24392   7.121  12.567  13.347  0.3362  0.1378 -0.1912
 7919W        W24393   4.642   9.219   3.115  0.2033  0.2593  0.1236
 7920W        W24394   6.833  11.708   4.713 -0.1157  0.0255 -0.0525
 7921W        W24395   6.642  10.553   1.981  0.0333  0.1653 -0.2354
 7922W        W24396   4.015  12.474  15.172 -0.0228  0.2093  0.2591
 7923W        W24397  13.561   0.769  11.535 -0.1174 -0.1005 -0.1634
 7924W        W24398   8.841  15.359   3.457 -0.3110  0.0900 -0.0863
 7925W        W24399  13.936   1.061   1.632  0.1757 -0.0487 -0.1054
 7926W        W24400   9.617   4.396   3.734 -0.0051  0.2656 -0.1041
 7927W        W24401  14.685   1.928   4.396 -0.3552 -0.0620 -0.1457
 7928W        W24402   0.087  16.958   2.487 -0.0103 -0.1552  0.2190
 7929W        W24403   7.170   0.040  13.850  0.0639 -0.1394  0.1276
 7930W        W24404   9.645   0.969  16.299  0.0272 -0.1861 -0.0365
 7931W        W24405  14.197  18.049   5.285  0.1711 -0.0155  0.1091
 7932W        W24406  16.462   7.032   3.496  0.2346 -0.1089  0.1739
 7933W        W24407   2.007   4.983  14.623 -0.1311 -0.0000  0.0462
 7934W        W24408  11.755  14.156  15.113 -0.0516 -0.1894 -0.0609
 7935W        W24409   5.519  14.540   0.379 -0.3091  0.0211 -0.3152
 7936W        W24410   8.762   2.557  14.241  0.1308  0.1218  0.1823
 7937W        W24411   2.660   2.837   0.845 -0.3874  0.0101  0.0124
 7938W        W24412  16.017   5.435   1.384  0.0169 -0.2796  0.1915
 7939W        W24413  12.092   2.346   4.536  0.3934 -0.2183  0.0008
 7940W        W24414   7.932  10.833   5.839 -0.1584 -0.1309 -0.0193
 7941W        W24415   3.867   0.448   0.883 -0.1978 -0.2567  0.1944
 7942W        W24416  16.329   2.595  11.196  0.0901 -0.0023  0.0362
 7943W        W24417   6.101   9.541  11.703 -0.0592 -0.1949  0.1492
 7944W        W24418   5.771   7.645  13.414  0.2162  0.1268  0.3120
 7945W        W24419  12.376  13.192  13.622 -0.0992  0.1350 -0.2199
 7946W        W24420  13.510   0.271  15.044  0.0902  0.1231 -0.2978
 7947W        W24421   0.423   7.532   2.949 -0.0810  0.1584 -0.0407
 7948W        W24422   7.578   1.478   1.437 -0.1191  0.2242  0.4564
 7949W        W24423   3.203   1.565  11.626 -0.1373  0.1083  0.0602
 7950W        W24424   8.317   2.558   2.017  0.3159 -0.2423 -0.1155
 7951W        W24425   5.043   1.589   0.653  0.0814 -0.2602 -0.1600
 7952W        W24426   9.626  15.819  15.223  0.0573 -0.0218 -0.1641
 7953W        W24427  17.733   3.074   3.682  0.0975 -0.3999  0.2848
 7954W        W24428   0.603   2.639  15.995  0.0472  0.3118  0.0691
 7955W        W24429   9.108  15.538   4.306 -0.0525 -0.3650 -0.1279
 7956W        W24430  15.738  11.608  12.708  0.2187 -0.0491  0.1693
 7957W        W24431  15.320  17.645  12.426 -0.2778  0.3969  0.4552
 7958W        W24432  15.243  15.341  12.055 -0.3226 -0.1585  0.0292
 7959W        W24433   4.686  12.701  12.992  0.2019  0.0566  0.2194
 7960W        W24434   7.672   7.406   2.033 -0.3410  0.1420 -0.3032
 7961W        W24435   3.767   7.456  11.714  0.0699 -0.3863  0.0688
 7962W        W24436  10.012  15.597  14.401  0.0240  0.1324 -0.0254
 7963W        W24437  13.210  16.066   3.038 -0.3329 -0.0152  0.0689
 7964W        W24438  17.368  12.360  14.848 -0.0042  0.0588  0.0951
 7965W        W24439  13.800   0.210   4.800 -0.1212  0.0140  0.2161
 7966W        W24440   9.441   4.463   0.505 -0.2411 -0.0567 -0.4291
 7967W        W24441   5.784  12.788   4.689 -0.0161  0.1458  0.0896
 7968W        W24442   3.486   7.075  11.843 -0.0005 -0.2136 -0.2718
 7969W        W24443   9.157  12.421   4.077 -0.2874  0.0820 -0.0041
 7970W        W24444   7.587   0.145   3.731 -0.0703  0.0007  0.0773
 7971W        W24445  10.851  15.857  14.160 -0.2245 -0.0485  0.0719
 7972W        W24446  13.619   9.220  13.762  0.0242 -0.2430  0.0677
 7973W        W24447   6.717  16.297   5.557  0.2336  0.2399 -0.2456
 7974W        W24448   9.122   3.605  14.093 -0.0092 -0.0344  0.1175
 7975W        W24449  13.153  16.971  14.701 -0.3193  0.2103 -0.1918
 7976W        W24450   5.115   5.126   3.432  0.1057  0.1693 -0.0885
 7977W        W24451   0.775  13.365   4.228 -0.0302  0.1894 -0.3870
 7978W        W24452  12.128  17.912  16.238  0.4322  0.3458  0.0087
 7979W        W24453   4.050   6.658  15.119  0.3458  0.1332 -0.1397
 7980W        W24454  12.447  11.249  13.366 -0.1268 -0.0712  0.0469
 7981W        W24455  12.950  18.100   3.317 -0.2348 -0.2467  0.1186
 7982W        W24456  15.583   6.569  11.989  0.2948 -0.1323  0.0732
 7983W        W24457   3.156   6.668   5.330  0.0552  0.0754 -0.1998
 7984W        W24458   3.246  11.657  14.803 -0.0185 -0.0783 -0.1093
 7985W        W24459   2.637   4.888  11.856  0.2748 -0.0129  0.1455
 7986W        W24460  14.481   3.052  15.890 -0.3662 -0.0316 -0.1956
 7987W        W24461  13.736  13.994  15.108  0.0227  0.2783  0.3328
 7988W        W24462  12.030   5.453   2.765  0.0785 -0.0810 -0.1157
 7989W        W24463  13.850   7.577  15.320  0.1781 -0.1735  0.0940
 7990W        W24464   9.081  14.859  14.571  0.1380 -0.2113 -0.0125
 7991W        W24465  18.125   8.550   2.117 -0.1608 -0.0319  0.0222
 7992W        W24466   0.683  12.371  14.049 -0.1340 -0.0189 -0.2255
 7993W        W24467   3.610   2.409   3.183 -0.0556 -0.0512 -0.0699
 7994W        W24468  11.963  17.576   4.571  0.1923  0.1875  0.1052
 7995W        W24469   1.714  10.726   2.086  0.1097  0.2319  0.1091
 7996W        W24470   2.093   8.171   0.772 -0.0869 -0.2278  0.2167
 7997W        W24471   1.822  16.431  13.175 -0.1389 -0.1374 -0.2474
 7998W        W24472   0.681  16.309  11.976  0.3700  0.0663 -0.0290
 7999W        W24473   2.686   4.321  13.788  0.0413 -0.0265 -0.1023
 8000W        W24474   4.699   6.034   4.895  0.1254 -0.2549 -0.0555
 8001W        W24475   4.226   2.382   1.482  0.0732  0.0038  0.1347
 8002W        W24476   5.175  11.612  13.654  0.3136 -0.0660  0.3443
 8003W        W24477   7.707  15.937   2.305 -0.1693  0.2024  0.1919
 8004W        W24478   7.254   3.697  11.999  0.3223 -0.1041  0.2084
 8005W        W24479  18.115   6.843  15.790 -0.1277  0.0901  0.2004
 8006W        W24480  17.660  15.057   3.779 -0.0105  0.1791  0.1298
 8007W        W24481  13.423  12.558   3.797  0.1973 -0.2701  0.0070
 8008W        W24482  11.471   5.120  13.564  0.0881  0.1155 -0.3629
 8009W        W24483   8.893   6.322  14.151 -0.0526  0.2736  0.1881
 8010W        W24484   7.548   1.614  11.796 -0.1956 -0.0729  0.1256
 8011W        W24485   8.726  16.245   3.930 -0.1440 -0.2348  0.1279
 8012W        W24486   6.970   7.624   3.993  0.1692  0.1486 -0.2377
 8013W        W24487   5.126   2.213  14.255  0.0253 -0.0258  0.1410
 8014W        W24488  17.935   2.832   4.076  0.2515  0.0165 -0.0074
 8015W        W24489   1.139   7.109   5.308  0.1681 -0.0713  0.0817
 8016W        W24490   4.902  14.489   1.183  0.2744  0.0753  0.1483
 8017W        W24491   9.447  16.455   3.837  0.1235 -0.0503 -0.3270
 8018W        W24492  17.343   0.790   0.616 -0.0425  0.1208  0.2924
 8019W        W24493   5.068  14.610  14.219  0.0795 -0.1881 -0.2680
 8020W        W24494   7.526  13.544   5.793  0.0638  0.1799 -0.0661
 8021W        W24495   8.240   4.421   1.094  0.0229 -0.1819  0.1065
 8022W        W24496   8.137  12.219  12.053 -0.0713  0.0838 -0.0967
 8023W        W24497   3.882  13.706  15.448  0.1526 -0.0138 -0.0285
 8024W        W24498  14.096  13.723  13.664  0.1056 -0.4815  0.0617
 8025W        W24499   8.240   7.660   2.629  0.3414  0.2835  0.1789
 8026W        W24500  12.406   4.542   2.265  0.0907 -0.0047  0.1519
 8027W        W24501   8.260  17.854   5.678 -0.1210  0.2064  0.3109
 8028W        W24502  12.097  18.178   2.213 -0.1682  0.0876 -0.2688
 8029W        W24503  10.052  18.008   3.055  0.0606  0.0792 -0.0141
 8030W        W24504   8.011  13.138   4.554  0.3241 -0.2336 -0.2180
 8031W        W24505   0.547  17.459  15.177 -0.0346 -0.2342  0.1299
 8032W        W24506   9.951   6.781  14.693  0.2224  0.1535 -0.0282
 8033W        W24507   6.202  16.383  11.603 -0.1231 -0.0856 -0.2525
 8034W        W24508  10.944   0.404   4.938 -0.2011  0.1981 -0.0279
 8035W        W24509   0.272   1.237  15.136  0.3177  0.2091  0.3270
 8036W        W24510  13.287  14.815  15.636 -0.1634 -0.3474  0.1520
 8037W        W24511  14.027   0.199   2.050 -0.0992 -0.0944  0.0657
 8038W        W24512  18.019   0.650   1.603  0.1083  0.2148 -0.2610
 8039W        W24513  12.743   7.723   1.616  0.2614  0.0440  0.3010
 8040W        W24514   1.240  15.116   3.235  0.1951  0.1828  0.2300
 8041W        W24515   0.616   4.246   0.052  0.2321  0.1195 -0.0541
 8042W        W24516   1.999  12.141   1.086 -0.1667  0.2708 -0.1029
 8043W        W24517  10.301  17.289  11.701 -0.3072 -0.1686 -0.1465
 8044W        W24518   4.579  15.712   3.471 -0.0163 -0.4921 -0.0887
 8045W        W24519   9.685   8.605   1.434  0.1407 -0.1669 -0.1510
 8046W        W24520   5.054  12.075   4.743  0.0100  0.2521 -0.0818
 8047W        W24521  11.828   7.781   4.603  0.1400 -0.0679  0.0784
 8048W        W24522   0.597  11.161  14.764 -0.1219 -0.1512 -0.2161
 8049W        W24523   5.545   4.748   1.582 -0.0459  0.2483  0.0784
 8050W        W24524   1.270  17.388   3.729 -0.1217 -0.1716  0.1809
 8051W        W24525   2.948   1.886  15.116 -0.1318 -0.0411 -0.0472
 8052W        W24526   5.310   8.753   0.531 -0.1369  0.0781  0.3775
 8053W        W24527  14.802  13.510   0.937  0.1847 -0.1175 -0.0065
 8054W        W24528   0.283   1.542  16.237 -0.1405 -0.1730 -0.0012
 8055W        W24529   4.147   5.775  14.231  0.3353 -0.3115  0.2976
 8056W        W24530  13.114   6.071  15.829  0.0857  0.0408  0.3751
 8057W        W24531   3.472   8.270  11.335 -0.2628  0.1157 -0.1315
 8058W        W24532  11.663   9.201   0.210  0.2264 -0.2036 -0.1696
 8059W        W24533   1.286   5.175   2.647 -0.0114 -0.1512 -0.0599
 8060W        W24534  17.971  11.664  12.572  0.0937 -0.1312  0.0385
 8061W        W24535   2.286  17.319   0.628 -0.1181 -0.2873  0.0611
 8062W        W24536   8.593   6.100   4.639  0.2460  0.3451 -0.1686
 8063W        W24537   4.713  16.295   1.963  0.1488  0.0125  0.1151
 8064W        W24538   8.393   6.293   0.607 -0.2268  0.2885 -0.4394
 8065W        W24539  15.124  14.170   1.205  0.2001  0.1342  0.0493
 8066W        W24540  14.112  13.961   4.516  0.1030 -0.0027  0.0680
 8067W        W24541  14.961   7.444  14.403 -0.2019  0.1183  0.4051
 8068W        W24542   1.832  16.481   3.943 -0.1703 -0.3316 -0.0984
 8069W        W24543   2.776  16.233  13.089  0.1387  0.0694  0.0491
 8070W        W24544  15.140   9.965   0.702 -0.2742  0.1978 -0.0699
 8071W        W24545   0.043  13.863   4.872  0.1716  0.0083  0.2217
 8072W        W24546  16.562   3.193  16.046  0.2520  0.1074  0.1731
 8073W        W24547  14.177   7.351   6.029 -0.0786  0.4201 -0.0393
 8074W        W24548   9.094   6.697   1.198  0.0598  0.1754 -0.1063
 8075W        W24549   2.144  16.499   4.350 -0.0073 -0.1533 -0.1985
 8076W        W24550  12.657   4.054   2.345 -0.1836 -0.1242 -0.0089
 8077W        W24551   5.503  15.204   4.485 -0.1019  0.0275  0.1672
 8078W        W24552  12.947   7.329  12.025  0.0010 -0.0140 -0.0713
 8079W        W24553   0.842  12.307   1.847  0.0379 -0.1764 -0.2562
 8080W        W24554   9.656  10.736  11.233 -0.0164 -0.3289  0.1183
 8081W        W24555  17.476   1.161   1.528 -0.0120 -0.0961 -0.1108
 8082W        W24556   5.893   4.231  14.745 -0.1388  0.0727 -0.0233
 8083W        W24557  15.953  11.269  12.369 -0.1675 -0.2768 -0.0838
 8084W        W24558  16.075   3.287  13.474 -0.2105 -0.0922  0.2172
 8085W        W24559   4.915  11.978  14.717  0.0753  0.2541 -0.2450
 8086W        W24560   3.734   6.521  14.295 -0.1868 -0.0505 -0.1428
 8087W        W24561   4.460  11.031   4.366 -0.2680 -0.2521  0.0948
 8088W        W24562   2.963   8.246   1.926  0.2236  0.1386 -0.2627
 8089W        W24563  11.460   2.261   0.606  0.0433 -0.0932  0.1485
 8090W        W24564   7.965  11.861   3.927  0.4155 -0.0260 -0.2911
 8091W        W24565   7.231   9.106   5.537  0.0401  0.1075  0.1995
 8092W        W24566   2.978  15.918  15.708 -0.1337 -0.1426 -0.0007
 8093W        W24567   2.663  14.734  15.964 -0.0183 -0.0109  0.0235
 8094W        W24568  16.033   7.423  13.332  0.0599  0.2256 -0.2705
 8095W        W24569   8.048  13.160  12.251 -0.0047 -0.2072  0.2236
 8096W        W24570   6.441   9.384  13.999 -0.0325  0.1670  0.4665
 8097W        W24571  10.040   4.257   2.425 -0.0088  0.0923 -0.2775
 8098W        W24572  15.082  17.155  15.316 -0.1819 -0.1545 -0.2562
 8099W        W24573   1.440   1.965  10.586  0.3697  0.0913 -0.3978
 8100W        W24574   2.778  11.835  14.776  0.2906 -0.0712  0.0254
 8101W        W24575   8.983  18.009  14.342  0.0840  0.0657  0.1406
 8102W        W24576   3.443  15.118   3.800  0.1078  0.0196 -0.0223
 8103W        W24577   8.296   2.287   3.647  0.0525 -0.2425  0.0580
 8104W        W24578   6.794  14.175   4.987 -0.1029 -0.0344 -0.0787
 8105W        W24579   4.081   3.993   2.258  0.0689 -0.2379 -0.0654
 8106W        W24580   2.462   9.479   2.754  0.0861  0.0326  0.1886
 8107W        W24581   2.785   9.268   4.561 -0.2225  0.2746  0.1850
 8108W        W24582   9.973  17.236   5.124 -0.0623  0.1206  0.1790
 8109W        W24583   7.491  11.908   3.944 -0.1109  0.0608  0.0542
 8110W        W24584  14.275  16.258   2.989 -0.1368  0.1795 -0.2087
 8111W        W24585   1.936   3.212   1.876  0.1506  0.0068 -0.2998
 8112W        W24586   5.016  12.285   4.224  0.0260 -0.0999  0.1313
 8113W        W24587  16.776  11.604   1.394  0.2312  0.3521 -0.0596
 8114W        W24588   4.609   4.263  14.368  0.1079  0.2187 -0.0016
 8115W        W24589   9.493  10.870   0.432 -0.0850  0.0357  0.2304
 8116W        W24590   3.270  18.077  13.200  0.3045  0.2399  0.1281
 8117W        W24591   6.788   0.574  16.251 -0.0755 -0.0999 -0.2580
 8118W        W24592   6.069   1.978   4.320  0.0957 -0.1942 -0.1467
 8119W        W24593  17.371   7.329   3.472 -0.1259 -0.0584 -0.0124
 8120W        W24594  17.331   3.691  13.504 -0.3058  0.0309 -0.2088
 8121W        W24595   8.481  13.001   2.562 -0.1056  0.1410 -0.0510
 8122W        W24596  16.954   8.764   1.369  0.1580  0.0549  0.1571
 8123W        W24597  14.155   3.928  12.110 -0.0838 -0.1022 -0.0637
 8124W        W24598   1.511   2.133  13.403 -0.3499 -0.1024  0.0094
 8125W        W24599   0.537  10.854   3.942  0.2228  0.2280  0.2263
 8126W        W24600   0.538  15.395  13.675 -0.0738 -0.0230  0.0221
 8127W        W24601  15.305  13.860   0.310  0.0277 -0.3299  0.1997
 8128W        W24602  11.218  14.126   3.988  0.1088  0.2610  0.1155
 8129W        W24603  16.476  15.166  16.044 -0.0088 -0.0910 -0.1043
 8130W        W24604   5.792  16.346   4.048 -0.0724  0.0230 -0.2115
 8131W        W24605  16.195  10.053   3.195 -0.1846 -0.2974  0.0336
 8132W        W24606  13.785  18.035  15.177 -0.2512 -0.3670 -0.4167
 8133W        W24607   2.735  17.668   4.165  0.3429  0.0761  0.1023
 8134W        W24608   9.941   2.105  12.974  0.1301 -0.5424 -0.0178
 8135W        W24609   4.605  12.437   4.548  0.0362 -0.0418 -0.0747
 8136W        W24610  14.560  10.826   5.949 -0.0123  0.2288  0.0213
 8137W        W24611   2.767   1.787  12.456  0.1149 -0.1285 -0.3491
 8138W        W24612   7.536   1.410  11.253  0.1694  0.0197 -0.0651
 8139W        W24613  14.554  16.823  13.527 -0.1847  0.1620 -0.1955
 8140W        W24614   0.859  13.443   5.169 -0.0349  0.2185  0.1252
 8141W        W24615  14.776  11.409   2.806 -0.1443 -0.1805 -0.1514
 8142W        W24616  12.446   0.315  13.094  0.1240  0.1214 -0.1076
 8143W        W24617   7.075  12.474   2.745 -0.0588 -0.1345 -0.0438
 8144W        W24618   6.304   9.037   5.190  0.1463  0.0860  0.4418
 8145W        W24619   3.523   3.423  16.214 -0.0253  0.0024  0.0515
 8146W        W24620   5.261   7.168   4.269  0.0167  0.0219 -0.0362
 8147W        W24621  11.959   5.187  15.142 -0.0868 -0.0888  0.0542
 8148W        W24622   9.360  12.296  14.996 -0.0633  0.0358  0.0236
 8149W        W24623  14.604   1.423  15.908  0.3000  0.1073 -0.0644
 8150W        W24624   5.191  15.969  16.151 -0.1513 -0.3471  0.1341
 8151W        W24625   8.746   9.942  12.629 -0.3899 -0.0844 -0.3507
 8152W        W24626   3.364   6.199  14.380  0.2412 -0.2249 -0.0762
 8153W        W24627  16.136  10.566  14.347  0.4724  0.2097  0.3788
 8154W        W24628  12.537  13.633  14.464  0.0055  0.1170  0.2499
 8155W        W24629   7.748  15.683   0.667  0.1292  0.2291  0.0484
 8156W        W24630   3.320  16.017   0.831 -0.0897 -0.0032 -0.0317
 8157W        W24631  10.575   5.300   3.346 -0.0425  0.0228 -0.0630
 8158W        W24632  14.505  13.965   5.276 -0.1356 -0.1711  0.0644
 8159W        W24633  11.665  18.175  13.660  0.1152  0.1760  0.3133
 8160W        W24634   4.532   2.736   0.475 -0.0964  0.0293  0.1458
 8161W        W24635   2.051   2.531  12.892 -0.1387 -0.1882  0.0025
 8162W        W24636   4.844  10.978   2.608  0.0691 -0.2123 -0.1115
 8163W        W24637  15.892  16.165   0.695  0.0945  0.2067  0.0124
 8164W        W24638   7.378   4.900   4.049 -0.0053 -0.3278 -0.2767
 8165W        W24639   6.891   1.362   0.731  0.0157  0.2996 -0.3324
 8166W        W24640   9.604   7.353   5.260  0.0633  0.1436  0.0829
 8167W        W24641   9.240  15.196  16.265 -0.1058  0.0786  0.1126
 8168W        W24642  14.116   8.903  12.028  0.0631 -0.2488 -0.0682
 8169W        W24643  13.909   1.948  14.260  0.0794  0.0526  0.2469
 8170W        W24644   7.622  14.202   2.528  0.2140 -0.2974  0.1395
 8171W        W24645   7.293   6.216   5.867 -0.1741  0.0712  0.0139
 8172W        W24646   5.082  12.543   1.271  0.0243 -0.0188  0.1790
 8173W        W24647   3.593   6.042   1.117 -0.1938  0.2401 -0.1540
 8174W        W24648   3.738   8.474  16.191  0.0817  0.1036  0.1281
 8175W        W24649  11.989   3.602   5.113  0.0640  0.0748  0.1640
 8176W        W24650  16.788  17.185   2.344  0.0998  0.2320  0.1017
 8177W        W24651   9.437  17.754   4.820  0.1541  0.2379  0.0067
 8178W        W24652  10.913  16.414   0.169  0.0649  0.0653  0.0912
 8179W        W24653  14.935  15.225   4.822  0.0999  0.0825  0.0032
 8180W        W24654   0.772  16.967   2.115 -0.0238  0.2312  0.0253
 8181W        W24655   1.586  14.627   3.009  0.0993  0.0467  0.1016
 8182W        W24656  13.927   2.722   3.969 -0.2543  0.0800 -0.1009
 8183W        W24657   9.694   5.913  11.861 -0.1029 -0.2867 -0.3590
 8184W        W24658  10.629   9.370   1.479 -0.1419  0.1795  0.1972
 8185W        W24659   4.500   4.306  15.677 -0.1139  0.0742  0.3050
 8186W        W24660  12.972  16.741  15.483  0.0777 -0.0830 -0.2099
 8187W        W24661  12.521  15.646   5.461  0.0966  0.1430 -0.0236
 8188W        W24662   5.720   5.275   4.148  0.2601  0.0320  0.0787
 8189W        W24663   8.281   7.461   3.555 -0.0279  0.2747 -0.0480
 8190W        W24664   4.262  14.545  10.356 -0.1984 -0.1607  0.3440
 8191W        W24665  14.298  15.360   0.447  0.3820 -0.1934 -0.3786
 8192W        W24666  10.500  11.916   0.696 -0.0881  0.0144  0.2316
 8193W        W24667   1.891   7.535  11.619 -0.1657  0.0260  0.3035
 8194W        W24668   6.167   4.805  10.398 -0.0390  0.0946  0.0714
 8195W        W24669   0.901   9.440  14.034 -0.0921  0.0270  0.1532
 8196W        W24670  14.705  10.892  13.785  0.1511  0.0443 -0.4412
 8197W        W24671  12.801  15.905   4.918  0.3727 -0.0730  0.0028
 8198W        W24672  13.830   6.995   1.405  0.0256 -0.0220 -0.0329
 8199W        W24673  12.945   6.906   4.826  0.1308  0.0405  0.3421
 8200W        W24674   1.022   0.926   2.143  0.0073  0.0374  0.1080
 8201W        W24675  14.254  12.334   2.540  0.0303  0.2333 -0.1854
 8202W        W24676   5.017   1.952  13.456 -0.1000  0.0306 -0.0777
 8203W        W24677  16.123   7.566  15.864 -0.0010 -0.0229  0.1129
 8204W        W24678   2.979  13.364  12.322  0.4058  0.1380 -0.0920
 8205W        W24679   2.229   1.473   1.267  0.1159  0.0306  0.2691
 8206W        W24680   2.259  10.482  14.072  0.3878  0.1337  0.3201
 8207W        W24681  11.232   5.640   1.555 -0.0531  0.0489  0.1840
 8208W        W24682  14.742  16.645  15.741  0.2202  0.1696  0.3498
 8209W        W24683   4.197   8.733  15.203  0.1099  0.1689  0.0509
 8210W        W24684  16.890  10.779  15.781 -0.1714  0.0550  0.0513
 8211W        W24685   3.985  13.181  15.883  0.0430 -0.1161  0.0147
 8212W        W24686  17.642   1.487   2.053 -0.1520 -0.0180  0.0676
 8213W        W24687   6.813  11.692  11.191  0.0049 -0.1187 -0.2393
 8214W        W24688   9.762   3.263  14.740  0.2426  0.1115  0.3828
 8215W        W24689  12.384  16.108   3.329  0.0194  0.0482  0.2261
 8216W        W24690   0.723  16.959  15.222 -0.0474  0.0739 -0.2053
 8217W        W24691   4.265  16.025  14.419 -0.1739 -0.0068 -0.0373
 8218W        W24692   8.185   0.411   3.142 -0.1059 -0.0588  0.2744
 8219W        W24693   4.877   1.683   3.395 -0.1426  0.0388 -0.3291
 8220W        W24694  16.877  15.493  16.129 -0.1348  0.0094  0.1253
 8221W        W24695  17.720   2.352  15.288 -0.2574 -0.2538  0.0045
 8222W        W24696  13.186  15.383   0.137  0.1564  0.2999 -0.1576
 8223W        W24697   5.701  13.609   0.051  0.0282 -0.0381 -0.0825
 8224W        W24698  13.388  17.991  12.482 -0.0838 -0.2407  0.0067
 8225W        W24699  18.136  11.867   2.128 -0.0236  0.0774  0.0989
 8226W        W24700   7.661  14.257  14.329 -0.1865  0.0911  0.0491
 8227W        W24701   2.652  16.944  14.157 -0.1339 -0.1950  0.1556
 8228W        W24702   3.230   2.001   5.406  0.2479 -0.0955 -0.3512
 8229W        W24703  16.544  11.703  12.350 -0.0587  0.3001 -0.0805
 8230W        W24704   4.325   0.575  15.636  0.3423 -0.2553 -0.0269
 8231W        W24705   7.700   6.954   2.840  0.0937 -0.0120 -0.2558
 8232W        W24706   8.262   8.027   2.206 -0.1944  0.1260 -0.0644
 8233W        W24707  10.347  12.746  16.168  0.1159 -0.0084 -0.0156
 8234W        W24708   6.628   5.203   4.542  0.2032  0.1570  0.2083
 8235W        W24709   7.453   9.647   4.273 -0.0158 -0.0972 -0.0097
 8236W        W24710  15.298  14.086   5.031 -0.1472 -0.0907 -0.1895
 8237W        W24711   3.122  17.292  13.947 -0.1628  0.0547 -0.2126
 8238W        W24712  16.106   2.634  14.170  0.1403  0.0612  0.1107
 8239W        W24713  16.336   8.604  12.884 -0.2177  0.0993 -0.2197
 8240W        W24714   3.102   4.207  15.537 -0.2372 -0.1184  0.2041
 8241W        W24715   2.798   6.838   3.711 -0.3694 -0.2242  0.2282
 8242W        W24716   5.391   7.888  14.246 -0.1157 -0.3333 -0.0281
 8243W        W24717  16.627  10.418  16.199 -0.0842 -0.2627 -0.1354
 8244W        W24718  14.382   2.257   5.409 -0.0195 -0.2645  0.2350
 8245W        W24719   0.875  12.580  15.175  0.0400 -0.0426  0.1549
 8246W        W24720  11.935   5.259   0.888 -0.1838  0.0821 -0.1014
 8247W        W24721   1.402   9.265  14.763  0.0070  0.0238 -0.4815
 8248W        W24722  10.847   2.738  12.687  0.0557 -0.0495  0.1389
 8249W        W24723  11.965  15.630   1.910 -0.4233 -0.0578  0.3595
 8250W        W24724   2.130   2.308  14.934 -0.0619  0.3667 -0.2849
 8251W        W24725   1.374  17.838   0.534 -0.1231  0.0983 -0.1465
 8252W        W24726  14.428  14.455  13.348 -0.0891  0.2438 -0.2106
 8253W        W24727  13.026  11.254   5.047 -0.1765  0.1869 -0.0295
 8254W        W24728   1.150   2.533   1.247 -0.3098  0.1039  0.3366
 8255W        W24729   4.554   3.399   1.443  0.0284  0.0099 -0.1144
 8256W        W24730  11.604  14.583  14.822  0.1696 -0.2894  0.0105
 8257W        W24731   9.430   2.454   1.229  0.3064 -0.0644 -0.2304
 8258W        W24732   1.707   1.715   0.975 -0.0753 -0.0093 -0.0245
 8259W        W24733   7.923  10.631  15.680 -0.1239 -0.0631  0.1331
 8260W        W24734  16.879  15.307   1.066 -0.0039 -0.1415  0.2102
 8261W        W24735  14.422  14.340  11.469 -0.1681  0.1147  0.0912
 8262W        W24736   7.199   5.957   0.334 -0.0985 -0.1781 -0.1317
 8263W        W24737  12.687   2.655  11.396 -0.0550 -0.1448  0.0462
 8264W        W24738  17.838   1.296  15.506 -0.2294  0.3475 -0.0540
 8265W        W24739   7.510  10.050   3.094  0.0638  0.1641  0.0335
 8266W        W24740  17.544   4.972  15.538 -0.1834 -0.2509  0.0851
 8267W        W24741  11.139   5.147   4.032  0.0127  0.0628 -0.1905
 8268W        W24742  15.868  10.961   2.230 -0.1100  0.0515 -0.3129
 8269W        W24743   5.897   6.870  16.255  0.0947 -0.0199  0.2855
 8270W        W24744   3.440  13.255  12.518 -0.1558  0.0554  0.0409
 8271W        W24745   9.881   2.451   0.012  0.0035 -0.2167 -0.1792
 8272W        W24746   9.804   5.106   3.842  0.0061 -0.2642 -0.3337
 8273W        W24747  10.206  16.843  13.408 -0.1440  0.1644 -0.1416
 8274W        W24748  14.448  14.736  12.231 -0.1374 -0.0940  0.2181
 8275W        W24749  11.220   2.222   2.830  0.0677  0.1399 -0.2973
 8276W        W24750  16.154   2.877   4.592 -0.0661  0.1991 -0.0528
 8277W        W24751  10.300   2.367  12.730  0.2429 -0.0891  0.2274
 8278W        W24752   8.048  11.399   0.862 -0.4367 -0.1186 -0.1387
 8279W        W24753  16.922   5.983   0.529 -0.0922  0.1315 -0.1498
 8280W        W24754  12.975  11.359  13.262 -0.1742  0.1850 -0.1391
 8281W        W24755   7.987   3.879   4.572 -0.1329 -0.0276  0.0596
 8282W        W24756   5.481   7.129  11.054 -0.0578  0.1317 -0.2982
 8283W        W24757  17.603   0.650  15.836 -0.0093  0.1612 -0.1319
 8284W        W24758   0.863   8.412  11.907  0.2301 -0.0448 -0.0530
 8285W        W24759  15.972  10.317  14.812  0.1097  0.0186  0.0568
 8286W        W24760  14.961   6.865  13.704 -0.1068 -0.0226  0.2697
 8287W        W24761  12.074  17.119   0.422  0.0485  0.1949 -0.1612
 8288W        W24762   7.080   4.568   4.914 -0.1442 -0.1110 -0.0354
 8289W        W24763  15.471   3.260   0.187 -0.0407 -0.0157 -0.2369
 8290W        W24764   1.862   0.125   5.221  0.1589 -0.1559  0.0748
 8291W        W24765  15.266  17.165  14.860  0.0240 -0.1004 -0.1887
 8292W        W24766   6.558  14.112  11.730 -0.0679  0.1217  0.3369
 8293W        W24767  13.043   0.967  14.097 -0.0770  0.0328  0.0530
 8294W        W24768   6.468   3.183   3.961  0.1579  0.0335 -0.0547
 8295W        W24769   1.203   2.255  15.527 -0.1388  0.0129  0.2292
 8296W        W24770  16.226  16.597  15.446 -0.1758  0.1384 -0.0190
 8297W        W24771  15.882  12.364   4.359 -0.1278 -0.0559  0.2671
 8298W        W24772  15.924   1.204  12.905 -0.2052 -0.3415 -0.0127
 8299W        W24773   4.967  13.892  14.792 -0.1569 -0.2789 -0.1208
 8300W        W24774  10.908  15.444  13.825 -0.1086  0.1394 -0.1674
 8301W        W24775   0.418  14.156   1.191 -0.3625 -0.0405  0.0269
 8302W        W24776  17.123  12.201   1.935  0.0961 -0.0118  0.1226
 8303W        W24777  13.060   0.479   3.229  0.1932  0.0413  0.2285
 8304W        W24778  13.350   5.742  13.619  0.1017 -0.0605 -0.0941
 8305W        W24779  14.992   7.701   5.618 -0.1953 -0.0776 -0.0843
 8306W        W24780   7.524  10.218   2.154  0.2339 -0.2796  0.0231
 8307W        W24781   1.245   5.909  15.192  0.2698  0.2134  0.0553
 8308W        W24782   8.966  10.487   2.424 -0.0303 -0.3337 -0.1382
 8309W        W24783   6.229   1.466  11.174 -0.0317  0.0774 -0.0171
 8310W        W24784  12.866   7.852  15.233  0.0315  0.1626 -0.1636
 8311W        W24785   0.901   9.444  13.212  0.1297 -0.0015 -0.1915
 8312W        W24786   6.810  11.339  15.684  0.1316 -0.0503  0.0894
 8313W        W24787  10.923   9.000  12.016  0.3253 -0.0099  0.0309
 8314W        W24788  14.110   5.548   4.603  0.1113  0.0997  0.1518
 8315W        W24789  16.662  15.899  14.930 -0.2501  0.1213  0.2510
 8316W        W24790  14.239   0.391   5.018 -0.2593  0.0812 -0.1804
 8317W        W24791   9.710   0.826  11.702  0.1342  0.0426  0.5145
 8318W        W24792  15.598  11.121  16.315  0.0246  0.2387 -0.3641
 8319W        W24793  11.467   5.834  15.007  0.0488  0.1592 -0.1162
 8320W        W24794   1.841  14.112   4.676 -0.1372 -0.0708 -0.0308
 8321W        W24795  14.018  16.392   3.428  0.1118 -0.3654  0.0300
 8322W        W24796  10.236   3.363  14.681 -0.0496 -0.0112  0.0557
 8323W        W24797  18.122   1.339  13.777  0.0449  0.0842 -0.0611
 8324W        W24798  16.884  17.067   4.032  0.2265 -0.0554  0.0356
 8325W        W24799   2.430  12.107   4.104  0.1550  0.0432 -0.0251
 8326W        W24800  13.485   8.404   2.719 -0.1467 -0.0513 -0.1426
 8327W        W24801  11.295   3.697  15.005  0.1233 -0.0901  0.1704
 8328W        W24802  18.073   1.471  12.619  0.0682 -0.0031  0.2333
 8329W        W24803   5.616   2.612  16.081 -0.0689 -0.4272  0.0045
 8330W        W24804  12.440  10.560  13.975 -0.0163  0.0196 -0.3487
 8331W        W24805  14.616   5.342   4.582 -0.1258 -0.0116  0.1023
 8332W        W24806   5.696  12.847  13.522  0.0653  0.0335 -0.0031
 8333W        W24807   7.441  17.075   1.607 -0.2371 -0.0399 -0.1789
 8334W        W24808  18.073   4.154  15.113 -0.1091 -0.1582  0.0632
 8335W        W24809  13.156   2.337   0.678 -0.0884 -0.0330 -0.1886
 8336W        W24810  13.166  10.116  12.634 -0.1766  0.0292  0.3153
 8337W        W24811  15.056   1.837   1.929  0.3380 -0.0517 -0.1363
 8338W        W24812  12.483   1.403  15.208  0.0554 -0.0921 -0.1615
 8339W        W24813  10.638  14.389  11.747  0.0796 -0.0225 -0.1141
 8340W        W24814   5.487  17.242  13.660  0.1986 -0.4104 -0.3987
 8341W        W24815   8.168  15.157   5.135  0.0642 -0.1754 -0.0389
 8342W        W24816   3.445  10.171  15.559  0.3646 -0.4980  0.0798
 8343W        W24817  15.661   3.126   3.144  0.1742 -0.0079 -0.1066
 8344W        W24818   5.205  14.562  11.002  0.3718 -0.0014 -0.0533
 8345W        W24819   0.769   7.131  14.800  0.0698 -0.0751 -0.3984
 8346W        W24820   9.748  14.324  16.177 -0.1267 -0.1060 -0.1176
 8347W        W24821  14.374  15.375  15.619  0.0351 -0.0128 -0.1833
 8348W        W24822  13.865  16.603   4.175 -0.0790  0.1436 -0.2030
 8349W        W24823   7.044   8.215  14.585  0.3353 -0.1862  0.0863
 8350W        W24824  11.360   2.726  13.282  0.1176  0.0272 -0.1297
 8351W        W24825   4.304   1.744   4.112  0.3410  0.2758  0.1434
 8352W        W24826  17.754   2.006   5.215  0.2177  0.0277  0.4240
 8353W        W24827   3.230   9.454  13.879  0.2234  0.0446  0.1658
 8354W        W24828   3.225   5.028   0.507  0.0419  0.2454 -0.4422
 8355W        W24829   4.062   7.524   2.563 -0.3727  0.2808  0.1359
 8356W        W24830  16.055   7.011   4.452 -0.0202 -0.2472  0.1345
 8357W        W24831   1.134   1.213  16.162 -0.3088  0.0521 -0.0874
 8358W        W24832  12.768   1.398   3.818 -0.1771 -0.2082  0.0125
 8359W        W24833   0.203  17.976   0.186  0.0113 -0.1146  0.2119
 8360W        W24834   7.760  16.012  15.123  0.0519 -0.3164 -0.0492
 8361W        W24835  13.816  10.812   2.292  0.1525  0.1637  0.0732
 8362W        W24836  15.958  15.688  14.106 -0.3057  0.3265 -0.1903
 8363W        W24837   2.173  14.847   1.276 -0.0817  0.1166  0.2500
 8364W        W24838  14.377   6.687   1.358 -0.4272 -0.0896  0.1064
 8365W        W24839  12.251   0.649  13.901  0.0684  0.0193 -0.0106
 8366W        W24840   9.614  14.073  11.957  0.0172  0.0832  0.0953
 8367W        W24841   2.028  15.935  15.674 -0.3526 -0.1500  0.0563
 8368W        W24842   6.735   6.792  12.792  0.0564 -0.3081  0.0861
 8369W        W24843  10.880   0.631   2.667 -0.0522  0.0641 -0.0469
 8370W        W24844   7.129  13.232  10.341 -0.0303 -0.1300  0.1062
 8371W        W24845   9.019  15.008   0.667 -0.1438 -0.1842 -0.1302
 8372W        W24846  12.960  17.222   2.968 -0.0768 -0.3268  0.0438
 8373W        W24847  15.527   4.842   4.339  0.0621 -0.4296 -0.3198
 8374W        W24848  17.954   9.695   1.995 -0.0073  0.1785 -0.1601
 8375W        W24849   7.027  14.660   4.307  0.0304 -0.1617  0.0786
 8376W        W24850   7.809   4.603  16.052 -0.2528  0.1976  0.1801
 8377W        W24851  13.920  15.170   0.918 -0.0261  0.2297  0.1062
 8378W        W24852   5.216   3.273  10.520  0.2463  0.0309  0.1719
 8379W        W24853   6.898   5.044  14.248 -0.0779  0.0566  0.3521
 8380W        W24854  12.680   9.328  15.553  0.0335 -0.4903 -0.1498
 8381W        W24855   6.514   9.550  11.446 -0.0259  0.0224 -0.0782
 8382W        W24856   5.255  13.032  13.652  0.2984  0.0197 -0.0431
 8383W        W24857  10.466  10.541  12.327 -0.2242  0.4143 -0.0038
 8384W        W24858   9.654   4.770   4.115 -0.1000 -0.2493  0.0355
 8385W        W24859   1.828   2.063  16.162 -0.0388  0.1152  0.0385
 8386W        W24860  15.630   1.001  14.227  0.1964  0.2050 -0.0976
 8387W        W24861   1.100  12.962   4.362 -0.0119  0.1578  0.2774
 8388W        W24862   9.311   3.984   1.741 -0.1459  0.1032 -0.2856
 8389W        W24863   3.049   9.122  14.849 -0.0780 -0.1506 -0.1715
 8390W        W24864  11.805   9.885   1.755  0.1987  0.0912  0.0546
 8391W        W24865   1.876   4.569  14.207  0.0996  0.2446 -0.0686
 8392W        W24866   2.465   7.674   0.024  0.2057  0.2642  0.0607
 8393W        W24867   6.622   9.688   2.171  0.1551  0.2529 -0.2014
 8394W        W24868   7.428  15.244   1.786  0.0497  0.3657 -0.0240
 8395W        W24869  13.168   0.807   4.412 -0.3681 -0.1757 -0.3839
 8396W        W24870   3.425   9.530   0.619  0.0510 -0.0295 -0.0772
 8397W        W24871   3.684   6.512  12.470  0.1104  0.0381  0.1348
 8398W        W24872   8.364  17.498   3.304 -0.1127 -0.4946 -0.0772
 8399W        W24873   8.651  17.815   2.363  0.1229  0.2396  0.2468
 8400W        W24874   2.652   6.267  15.881  0.2581 -0.0264 -0.1232
 8401W        W24875  15.176  10.913  12.958 -0.2303 -0.0635 -0.1129
 8402W        W24876   9.672   2.626   2.800  0.1571 -0.1213 -0.0559
 8403W        W24877   1.420  16.419   0.791  0.0141 -0.2231  0.0659
 8404W        W24878   6.333   3.456   5.374  0.0553  0.0218  0.5258
 8405W        W24879  12.507   1.681   5.295  0.0754  0.1250  0.1201
 8406W        W24880  16.626   2.313   1.787  0.0951 -0.4199 -0.0680
 8407W        W24881  11.337   3.493  12.267  0.1075 -0.0008  0.0275
 8408W        W24882  12.208   2.571  13.292  0.0668 -0.1578 -0.0394
 8409W        W24883   2.980   7.709   1.858  0.0039 -0.0224 -0.0775
 8410W        W24884   2.640  17.449  15.137  0.3032 -0.0630 -0.0382
 8411W        W24885   0.919   2.383  12.582 -0.3675  0.1512 -0.0043
 8412W        W24886   6.614  14.293  15.782 -0.1790 -0.0290  0.1257
 8413W        W24887  18.026   6.532  12.202 -0.1593  0.0690 -0.2559
 8414W        W24888  10.557   3.667   5.374  0.2094 -0.1382 -0.2864
 8415W        W24889  12.334  15.329   5.800 -0.1634 -0.3005  0.1132
 8416W        W24890   3.701   7.724   3.351 -0.1900 -0.1463  0.0068
 8417W        W24891  14.958  12.356   4.024  0.3807  0.0381 -0.0154
 8418W        W24892  16.824   1.702  12.831  0.0365 -0.0136  0.1231
 8419W        W24893  15.714   4.588   3.959 -0.3834 -0.1141 -0.3941
 8420W        W24894  12.069  14.176  12.369  0.0662 -0.2943  0.1863
 8421W        W24895  14.811  17.331   0.462 -0.0540 -0.1744  0.1167
 8422W        W24896   5.310  16.198   2.054 -0.0191  0.0720 -0.0133
 8423W        W24897   0.936   4.230   5.668  0.3518 -0.0218 -0.1204
 8424W        W24898  10.155  10.464   5.187 -0.0566  0.1957  0.2095
 8425W        W24899  18.155   9.315  13.697  0.1280 -0.0087  0.0325
 8426W        W24900   6.167   9.042  10.817  0.1158 -0.1008  0.0454
 8427W        W24901   5.224  15.714   0.724 -0.0743  0.3581  0.0602
 8428W        W24902   1.669   3.375  15.802  0.2335  0.0175 -0.0691
 8429W        W24903   4.294  18.106  14.910  0.0804 -0.1026  0.2122
 8430W        W24904   8.127  12.683  12.324 -0.0629  0.2122  0.0301
 8431W        W24905  15.558  13.388  13.086  0.1417  0.0286 -0.1552
 8432W        W24906  10.035   1.951   3.237 -0.2631  0.0805 -0.3549
 8433W        W24907   1.277   6.809  15.127  0.2285 -0.0369  0.1144
 8434W        W24908  12.314  15.471  13.906  0.0015  0.3127 -0.0632
 8435W        W24909   4.610  12.540   2.880  0.0262  0.2573  0.0096
 8436W        W24910  15.061   9.897   5.131  0.1190 -0.2994 -0.2792
 8437W        W24911  14.462  16.030   3.955  0.1487  0.0106  0.1254
 8438W        W24912   8.774  16.599  12.904  0.0302 -0.1477 -0.1592
 8439W        W24913   8.053  16.920  14.583  0.3664  0.0346 -0.2824
 8440W        W24914  16.673  17.628   2.579 -0.0886 -0.3171 -0.1209
 8441W        W24915  17.489   0.593  12.643  0.1949 -0.1869  0.0681
 8442W        W24916   7.448   0.074   5.169  0.2049  0.0488  0.2346
 8443W        W24917   3.493   0.722  15.832  0.0709  0.1996 -0.1544
 8444W        W24918   5.658  11.979   0.402 -0.3499 -0.0196 -0.2074
 8445W        W24919  15.586   8.420   3.136 -0.0426 -0.0704  0.0382
 8446W        W24920   0.948  14.196  13.517  0.0094  0.3691  0.0561
 8447W        W24921  16.751  11.831  12.894  0.1133  0.0703 -0.2744
 8448W        W24922  16.899   1.730  12.230  0.0265 -0.0148 -0.1878
 8449W        W24923   3.716   8.308  11.740 -0.0838  0.1438 -0.1728
 8450W        W24924  14.366  13.159  15.912 -0.1118  0.0154 -0.0034
 8451W        W24925   5.439   3.968  13.918  0.0706  0.1300 -0.1502
 8452W        W24926  10.784  13.664  11.250 -0.3339 -0.2548 -0.0315
 8453W        W24927   7.383  15.491  13.400 -0.2434 -0.0182  0.2315
 8454W        W24928  12.643   9.362   2.401  0.0506  0.0591 -0.1040
 8455W        W24929  17.129   1.496   2.026 -0.1989  0.0162 -0.0576
 8456W        W24930  16.887   4.321  14.390 -0.2967 -0.1251  0.0944
 8457W        W24931  18.143  11.994  15.309 -0.0399  0.2014 -0.0247
 8458W        W24932   3.104   0.495  16.244 -0.0616  0.2412 -0.0022
 8459W        W24933  15.845   9.333   3.008  0.0858  0.0848 -0.0710
 8460W        W24934   8.001  16.892   5.149 -0.1065 -0.0552 -0.1138
 8461W        W24935   4.530   9.274  14.600  0.0659 -0.2097 -0.2667
 8462W        W24936  17.282  16.926  11.295  0.0113 -0.0322 -0.1787
 8463W        W24937   8.162  14.918   5.747 -0.0988  0.1893 -0.1265
 8464W        W24938   8.548   3.485   1.872  0.2502  0.0642  0.1021
 8465W        W24939   1.245   3.292  14.330  0.0521 -0.3983 -0.1715
 8466W        W24940  16.037   3.822  13.501  0.0128 -0.2441 -0.0116
 8467W        W24941   1.346   2.416   5.285 -0.2559 -0.6156  0.2013
 8468W        W24942   9.736   2.048   4.413  0.2354 -0.1475  0.0888
 8469W        W24943  12.221  11.784  13.378  0.0050  0.2787 -0.0626
 8470W        W24944   0.313  14.046   2.266  0.0158 -0.1414  0.0840
 8471W        W24945  17.434  17.462  11.323  0.2352 -0.0976  0.1245
 8472W        W24946   3.594  16.076   5.418  0.2503 -0.2203  0.1062
 8473W        W24947   1.427   7.987   0.167  0.1272  0.0100  0.0976
 8474W        W24948  16.078   9.681   1.825  0.0440  0.0555  0.0765
 8475W        W24949   4.576   6.412  12.936 -0.2657 -0.0649  0.0121
 8476W        W24950  12.853  11.851  14.061  0.0680 -0.1814  0.2055
 8477W        W24951  12.512   3.147  14.673 -0.0083  0.0735 -0.0609
 8478W        W24952  16.592   0.396   2.943 -0.2999 -0.1125  0.1288
 8479W        W24953   8.986   8.321  15.681 -0.0457 -0.1214 -0.0718
 8480W        W24954   3.153  16.897   6.163 -0.1865 -0.0385  0.1024
 8481W        W24955   4.856   1.850  12.134 -0.2425 -0.2103 -0.1705
 8482W        W24956   4.873   3.438   5.431  0.0237 -0.2126  0.0244
 8483W        W24957  10.060  12.405  12.644 -0.0077  0.0205 -0.1509
 8484W        W24958  10.250  18.092   4.422 -0.0443  0.0920  0.0374
 8485W        W24959   9.363   3.033  16.195  0.0829 -0.0702 -0.0930
 8486W        W24960  10.425   9.068  15.741 -0.2086 -0.0122  0.0643
 8487W        W24961  17.256  11.181   6.037 -0.1578 -0.1168 -0.0865
 8488W        W24962   1.288  15.433  16.166 -0.0125 -0.0822  0.1872
 8489W        W24963   1.678   8.519  11.911 -0.2225 -0.0820  0.0061
 8490W        W24964  17.995  15.855  14.276 -0.3290  0.2987  0.4015
 8491W        W24965   2.273   3.906  11.874 -0.0143 -0.0198  0.1097
 8492W        W24966   3.110   5.838  12.698  0.1056 -0.3069  0.2838
 8493W        W24967   1.221  13.399  13.644 -0.2270  0.0328  0.0023
 8494W        W24968   7.487   7.257   3.228 -0.1376  0.0402  0.2745
 8495W        W24969   3.428   0.472  15.354  0.2955 -0.0710  0.1375
 8496W        W24970  16.691   1.178   2.042 -0.1831 -0.0682  0.2894
 8497W        W24971  10.623   2.443   1.240  0.1282  0.0424  0.0714
 8498W        W24972   0.125   2.912  11.911  0.2595 -0.0925 -0.0356
 8499W        W24973   6.869  10.032  13.620 -0.1247 -0.0939  0.1133
 8500W        W24974   1.534  10.876   0.437 -0.2030  0.0875  0.1241
 8501W        W24975   2.289   0.209   2.165  0.1398  0.1054  0.0016
 8502W        W24976  15.897   5.652  11.867  0.0719  0.1147 -0.0843
 8503W        W24977  14.962  14.494   1.564  0.1152  0.3346  0.1606
 8504W        W24978  11.309   6.295   0.182  0.0750  0.2906 -0.1190
 8505W        W24979   7.671   5.991  13.517  0.1701  0.2887 -0.2390
 8506W        W24980   9.730  11.902   5.225  0.0814 -0.1039 -0.0929
 8507W        W24981   3.462   4.608   4.003 -0.0185 -0.0256 -0.0334
 8508W        W24982  10.748   3.174  14.445 -0.0835  0.1986  0.1064
 8509W        W24983   6.504  13.721   2.979 -0.0680 -0.0945 -0.0327
 8510W        W24984   6.193  11.134   1.162 -0.0189 -0.1048 -0.3531
 8511W        W24985   1.867   8.024  15.270  0.1644  0.1537 -0.2450
 8512W        W24986   9.446  14.939  12.173 -0.4300 -0.0689 -0.1022
 8513W        W24987   2.802   8.396   0.339 -0.1075 -0.1256  0.2573
 8514W        W24988  17.439   5.518  14.961 -0.0651 -0.0389 -0.1624
 8515W        W24989  16.743  15.896   2.213  0.2221  0.0616  0.0255
 8516W        W24990   5.689  10.617   3.081 -0.1940  0.4065  0.1867
 8517W        W24991  17.263   2.919   1.686  0.0380 -0.2150  0.2570
 8518W        W24992   1.921  14.737   2.110  0.2606 -0.2287 -0.2265
 8519W        W24993   3.954   2.633   2.319 -0.0913  0.0870 -0.1358
 8520W        W24994  16.062   3.017   2.805  0.0414  0.1173 -0.1122
 8521W        W24995  15.450   6.013  11.967 -0.1909 -0.1185  0.0030
 8522W        W24996   3.243  12.149   3.733  0.1792 -0.2390  0.0782
 8523W        W24997  10.775  13.978  13.659 -0.3813  0.0496 -0.0279
 8524W        W24998  17.064   9.949   6.267 -0.1956  0.2204 -0.1235
 8525W        W24999  17.352  15.774   3.421 -0.1350 -0.0444 -0.1772
 8526W        W25000   4.965   4.021  15.055  0.1591  0.0145  0.2373
 8527W        W25001   8.268   5.096   3.568  0.0567 -0.2052  0.3136
 8528W        W25002  14.655   0.253   4.264 -0.1028  0.0391  0.0046
 8529W        W25003   3.764   5.911   4.084 -0.1995 -0.0136  0.1367
 8530W        W25004   6.776   6.322   4.446  0.0718 -0.0032  0.0571
 8531W        W25005  17.662  10.346   1.062  0.1736 -0.0709  0.1700
 8532W        W25006  11.558   4.116   1.651 -0.0249 -0.0978  0.0143
 8533W        W25007  10.702   8.376  16.136  0.1016 -0.3448  0.3263
 8534W        W25008  14.242  16.183  13.555  0.4567 -0.3281  0.1011
 8535W        W25009  13.572  16.909   2.332 -0.2474  0.0785  0.0990
 8536W        W25010   2.000  14.895  14.576 -0.0432 -0.0957 -0.1843
 8537W        W25011   5.225   8.568  15.367 -0.1053 -0.3999  0.1124
 8538W        W25012   4.804   1.749   4.907  0.0954  0.5722 -0.0099
 8539W        W25013  16.221   2.392  16.277  0.3142  0.3068  0.1490
 8540W        W25014   9.141  15.637  16.050  0.2604  0.2038 -0.0027
 8541W        W25015   8.108   0.189   1.689  0.3044 -0.0715  0.0873
 8542W        W25016   4.672   4.586  11.942 -0.0964  0.0937 -0.1916
 8543W        W25017  14.211  11.970   4.749 -0.0052 -0.2627 -0.0299
 8544W        W25018  14.941   2.860  15.087 -0.0730  0.1695 -0.2633
 8545W        W25019  12.636   4.123  12.529 -0.2276  0.4114  0.1016
 8546W        W25020  10.318   3.103  14.214  0.1509  0.1487 -0.0467
 8547W        W25021   1.535  15.650  12.184 -0.2014 -0.3679  0.3063
 8548W        W25022   1.855   3.087  14.932  0.2594  0.0317  0.0238
 8549W        W25023  10.132   3.280  11.892  0.0446 -0.1132  0.3027
 8550W        W25024   0.822  16.852   1.304  0.0437  0.2062 -0.1041
 8551W        W25025   1.665  10.637  12.271  0.0331 -0.2054  0.0980
 8552W        W25026  11.427   8.080   0.232  0.1970  0.0033 -0.1539
 8553W        W25027  11.531   0.904  13.610 -0.1985 -0.0845  0.1198
 8554W        W25028   4.603  12.828   0.532  0.0672  0.3846 -0.1154
 8555W        W25029  13.555   2.872   3.154 -0.2509 -0.0660 -0.1518
 8556W        W25030   2.735   1.807  14.662  0.0023  0.0521  0.0855
 8557W        W25031  16.426  11.365   1.061  0.0934  0.1974 -0.2326
 8558W        W25032  10.960  14.315   3.020  0.0356 -0.1406  0.0336
 8559W        W25033  14.166   6.496  11.710  0.1150  0.1821  0.0887
 8560W        W25034   1.444  17.181   2.323 -0.2736  0.3033  0.1854
 8561W        W25035   0.800  16.775   0.782 -0.0271  0.3106 -0.1361
 8562W        W25036   1.456   7.521   0.022  0.0534  0.0802  0.1917
 8563W        W25037  17.896  14.672  16.239  0.0624 -0.1899 -0.1547
 8564W        W25038  14.066   6.758  14.357 -0.0711 -0.1120  0.1814
 8565W        W25039  11.112  17.997   4.821  0.4071 -0.0336  0.0404
 8566W        W25040   6.444  12.906   3.451 -0.0032  0.1445 -0.1188
 8567W        W25041   9.570   9.169   1.135 -0.3146  0.2947  0.3483
 8568W        W25042  16.375   7.856   2.910 -0.2136  0.0877 -0.0427
 8569W        W25043   9.032   3.433   5.382  0.1915 -0.1526 -0.1873
 8570W        W25044  12.270  17.436   2.062 -0.1943 -0.2465 -0.0656
 8571W        W25045  11.784  12.927   3.735 -0.3501  0.0788  0.0642
 8572W        W25046   2.224   7.268  13.087 -0.5380  0.2242  0.1811
 8573W        W25047  17.986   9.944   0.386  0.1855 -0.0552  0.2620
 8574W        W25048  10.542   3.675  14.429  0.0239 -0.0786  0.3858
 8575W        W25049   9.872  10.628   4.790 -0.0639 -0.0975 -0.4132
 8576W        W25050   4.853   1.110  13.137  0.1828 -0.0794 -0.1323
 8577W        W25051  13.937  14.835   5.630  0.1189  0.2027  0.1551
 8578W        W25052   9.229  11.368  13.968 -0.0250  0.0573 -0.1148
 8579W        W25053   5.253   4.287  13.559 -0.1475  0.0548 -0.0430
 8580W        W25054  13.133   4.882  15.750  0.2084 -0.2554 -0.0960
 8581W        W25055   2.390   5.829  14.484  0.0299 -0.1043  0.3831
 8582W        W25056  14.594  10.618   2.568 -0.1292  0.3166 -0.0736
 8583W        W25057  12.356   5.964   3.772 -0.0339 -0.1812 -0.1059
 8584W        W25058   2.957   8.159  15.812  0.3436 -0.2713  0.0823
 8585W        W25059   9.268   7.388  14.941  0.1386  0.1307  0.1976
 8586W        W25060  12.548  12.128   5.395 -0.0145 -0.1889 -0.2344
 8587W        W25061  11.190  15.088   0.415  0.3347  0.0986 -0.1074
 8588W        W25062  17.860  12.746  12.424  0.3316  0.0614  0.1343
 8589W        W25063  14.434   3.475   2.238 -0.3608 -0.1000  0.0583
 8590W        W25064   8.509  11.149  15.089 -0.0424  0.1805 -0.1042
 8591W        W25065  17.642  16.106  14.066  0.1748  0.0635 -0.1436
 8592W        W25066   0.104   9.229   5.196  0.3225  0.0912  0.1393
 8593W        W25067   1.065   4.799   0.579 -0.0181  0.1202  0.2068
 8594W        W25068   6.252   5.232  11.876 -0.2184 -0.0008  0.1863
 8595W        W25069   5.616   2.405  13.389  0.2412 -0.0863  0.0290
 8596W        W25070  17.309  17.242   3.209 -0.1977  0.2688 -0.1487
 8597W        W25071  15.964  12.321   5.952 -0.0013  0.0516 -0.0669
 8598W        W25072  17.335  12.382   0.623  0.1458 -0.1774  0.1506
 8599W        W25073   1.684   3.042   3.688  0.1411  0.1205  0.1309
 8600W        W25074   8.687   7.793   3.419  0.0318 -0.2449  0.2238
 8601W        W25075   4.518   6.350   2.896  0.2367  0.0094  0.2724
 8602W        W25076   3.854  15.474  13.323 -0.1700 -0.0041  0.0572
 8603W        W25077  17.282   0.168  14.561 -0.0782 -0.1850 -0.0005
 8604W        W25078  14.790  11.028  11.669  0.1701 -0.0560  0.0576
 8605W        W25079   1.305  11.817  14.717  0.1178 -0.0053  0.0988
 8606W        W25080   6.682   6.223  11.901 -0.0454  0.0211 -0.2423
 8607W        W25081   5.540  10.444  16.044 -0.2142  0.1661 -0.1867
 8608W        W25082   2.122  11.350  15.527  0.1062 -0.2555 -0.1132
 8609W        W25083   6.372   6.983  11.405  0.1941 -0.0995 -0.0607
 8610W        W25084  11.757  13.907   0.098  0.1152  0.1200 -0.1144
 8611W        W25085   5.746   0.866  13.354  0.1200  0.1530  0.1938
 8612W        W25086   8.965   1.838   4.859  0.1185  0.0206 -0.5005
 8613W        W25087   2.877   9.093  16.202 -0.0558  0.1625 -0.2443
 8614W        W25088  15.239   4.466   4.055 -0.1811  0.0410 -0.2200
 8615W        W25089   0.442   9.866   4.824  0.1851  0.1641  0.0243
 8616W        W25090  17.828  10.936   3.600  0.0895 -0.1596  0.2868
 8617W        W25091   4.935   3.896  15.610  0.0742 -0.4617 -0.0481
 8618W        W25092  12.298  13.258   5.032 -0.3276  0.0399 -0.1471
 8619W        W25093   5.852  12.163   3.149  0.5215  0.0637  0.1771
 8620W        W25094   4.941   4.109  12.360 -0.1146  0.0985 -0.2597
 8621W        W25095  10.048   3.277  13.679 -0.0839  0.1031  0.1418
 8622W        W25096  10.726  10.015  14.383  0.0622  0.1709  0.1355
 8623W        W25097   7.605   0.307  11.879  0.0292 -0.2106  0.0937
 8624W        W25098   3.318   5.043  12.929 -0.0572 -0.0796 -0.0734
 8625W        W25099  13.219  14.215  13.013 -0.0187 -0.1377  0.0875
 8626W        W25100   7.293   9.625   3.778  0.0182  0.0555 -0.0517
 8627W        W25101  14.589   0.157  16.325  0.0323 -0.0548 -0.0828
 8628W        W25102   8.555   5.474  12.109  0.6522  0.0644  0.2054
 8629W        W25103   9.818  11.393  15.448  0.1309 -0.0480  0.1801
 8630W        W25104   0.637   7.814  12.676 -0.1205  0.0801  0.0301
 8631W        W25105  15.816  10.838   3.198  0.0310 -0.3737  0.2907
 8632W        W25106  16.652  17.394   5.690 -0.2257  0.3278  0.1017
 8633W        W25107   0.957   2.979  11.152  0.1314  0.1803 -0.1288
 8634W        W25108  18.046  12.873   0.091 -0.1832  0.2105 -0.1828
 8635W        W25109   8.035  14.118   4.009  0.2935  0.1157  0.2281
 8636W        W25110   4.448   8.784  15.588  0.1426  0.1336 -0.1379
 8637W        W25111   9.906   3.060   3.608  0.0924  0.1099  0.1358
 8638W        W25112  12.855  17.044  13.361  0.0797  0.0622  0.0687
 8639W        W25113   7.120   9.131  14.934 -0.1270  0.4086  0.2624
 8640W        W25114   9.705   0.881   5.271  0.1252  0.0656  0.0437
 8641W        W25115  12.238  12.440   0.550 -0.0184  0.0314  0.0488
 8642W        W25116   7.679   2.191  13.414  0.0369  0.1708  0.3480
 8643W        W25117  14.236   3.560  11.652 -0.0610  0.1172  0.1573
 8644W        W25118   9.838  13.825  13.494 -0.0308 -0.0712 -0.0641
 8645W        W25119   2.739  15.680  14.949 -0.0959  0.1014 -0.2577
 8646W        W25120   8.401  10.868   4.115  0.0305  0.1226  0.0811
 8647W        W25121   0.405  10.350   4.612 -0.0258  0.2504  0.1363
 8648W        W25122  17.815   8.264   4.073  0.0172  0.1634  0.3664
 8649W        W25123  14.817  10.618  14.644 -0.0196 -0.2883 -0.1384
 8650W        W25124   1.476   9.713  15.301  0.3096  0.0882 -0.0624
 8651W        W25125  15.106  14.926   4.465  0.2033 -0.2224  0.1569
 8652W        W25126  14.309  16.394  11.944 -0.0785 -0.1349 -0.0355
 8653W        W25127   1.785   9.532  13.827 -0.1958 -0.0910 -0.0895
 8654W        W25128   2.265  12.496   3.734 -0.1994 -0.2633  0.0327
 8655W        W25129  13.353  17.925   3.646 -0.1075 -0.0596 -0.0934
 8656W        W25130   3.228   3.753  14.989 -0.0058 -0.2453  0.1291
 8657W        W25131   0.029  17.849   3.463 -0.1574 -0.0321 -0.0838
 8658W        W25132   5.861  17.062   4.313 -0.1561 -0.1816  0.2566
 8659W        W25133  12.892   1.122  15.136 -0.4929 -0.1442  0.0086
 8660W        W25134   0.755   4.746   3.046 -0.0508 -0.1250 -0.1746
 8661W        W25135  11.425  12.901   2.836  0.2337 -0.0074  0.0391
 8662W        W25136   4.106   1.943  13.961  0.2198 -0.0243  0.0097
 8663W        W25137  10.399   1.302   2.413 -0.1712  0.3137 -0.1047
 8664W        W25138  15.706  13.833  12.185  0.1946  0.1751  0.0232
 8665W        W25139  11.124  15.356  14.898  0.1236  0.2088  0.0203
 8666W        W25140  10.583  17.581  13.147  0.1604 -0.0390 -0.0830
 8667W        W25141   4.951  14.409  11.433  0.1896  0.1541  0.0363
 8668W        W25142  13.631   6.000   2.137 -0.1699  0.2661  0.1910
 8669W        W25143   4.625  17.982  14.397  0.2025 -0.0432 -0.2445
 8670W        W25144  14.863   2.508  13.086  0.3396 -0.2855  0.4053
 8671W        W25145  14.062   9.222  13.526  0.1529 -0.2294 -0.0515
 8672W        W25146  11.337   7.608   0.040  0.0378 -0.1032  0.1360
 8673W        W25147  16.673   0.873  12.988 -0.0308  0.2965  0.3317
 8674W        W25148  17.344   6.347   4.282 -0.3035 -0.2290  0.0576
 8675W        W25149  11.792   3.365  12.788  0.0483  0.0332  0.0988
 8676W        W25150  16.519   5.700  12.564  0.0333 -0.1349 -0.0290
 8677W        W25151  15.946   1.526  16.247  0.4171  0.0793 -0.0811
 8678W        W25152   0.081   4.390  12.814 -0.0605 -0.0835 -0.2441
 8679W        W25153  17.675   0.952   4.860  0.0781  0.0049 -0.2945
 8680W        W25154   0.014  12.237  13.807  0.0457 -0.1115  0.2565
 8681W        W25155   0.209   0.639  11.792  0.0489 -0.4452 -0.1686
 8682W        W25156  10.033  14.109   5.323  0.1023 -0.0554 -0.4510
 8683W        W25157   0.733   1.596  12.040  0.2187  0.2020 -0.0830
 8684W        W25158   3.581   5.594  14.248  0.1883 -0.1149 -0.2956
 8685W        W25159  15.720   5.308  14.167  0.1729  0.0865 -0.0100
 8686W        W25160  12.076   3.038   3.797 -0.0032  0.2160  0.2421
 8687W        W25161  12.823  16.343  11.228  0.1520 -0.1797  0.0372
 8688W        W25162   9.645   5.088   2.569  0.0456  0.2069  0.1227
 8689W        W25163  10.801  16.599  12.762  0.2459  0.0868 -0.0627
 8690W        W25164   9.243  16.352   0.274 -0.3254 -0.2836 -0.1796
 8691W        W25165  17.869   5.522  14.646  0.1648 -0.1909  0.0953
 8692W        W25166   2.343  14.462  11.131 -0.3406  0.3398 -0.3754
 8693W        W25167  10.556  10.291   2.580  0.1434  0.1553  0.1612
 8694W        W25168  11.134   0.833  11.910  0.0975  0.1002  0.0739
 8695W        W25169  15.995   8.590  15.210 -0.1866 -0.1128 -0.1989
 8696W        W25170   4.159  14.494   4.109 -0.0350 -0.0388  0.2213
 8697W        W25171   1.644   4.991   2.925  0.0533 -0.1007  0.0962
 8698W        W25172  15.610  11.409  14.198 -0.1044 -0.1846  0.2977
 8699W        W25173  11.929   4.739  14.129 -0.1340  0.0813 -0.0932
 8700W        W25174   3.449   0.244  11.942 -0.0637  0.3102  0.1689
 8701W        W25175   7.439   6.724  14.310 -0.1662 -0.2855  0.0248
 8702W        W25176  14.327   6.391  13.075 -0.1641  0.2601  0.1124
 8703W        W25177   3.705  16.476  13.100 -0.2675  0.3134 -0.0597
 8704W        W25178  12.600   5.592   4.777 -0.1370  0.1431  0.1871
 8705W        W25179   4.025   5.608  15.167 -0.0735 -0.0880 -0.0148
 8706W        W25180  17.028   5.896  14.766  0.2023 -0.1725  0.1874
 8707W        W25181   1.325   9.055   1.474  0.1720  0.0802  0.3803
 8708W        W25182   2.652  16.348   4.533  0.0853  0.1081 -0.1286
 8709W        W25183   5.105  15.880   3.561  0.1005  0.1742  0.1420
 8710W        W25184   3.399  10.812  15.446  0.2472 -0.0421 -0.1607
 8711W        W25185   9.425   0.035  15.935 -0.3285  0.3958 -0.2317
 8712W        W25186  17.364   9.447   2.697 -0.0447 -0.1040  0.0094
 8713W        W25187   6.534   8.720  15.207  0.1823  0.0745 -0.2145
 8714W        W25188   4.471  12.005  10.892  0.1146  0.0880 -0.1476
 8715W        W25189   8.099  15.540   1.087 -0.1664  0.2142  0.0810
 8716W        W25190  15.247  10.184  12.128 -0.1730 -0.2199 -0.1344
 8717W        W25191  12.168  10.738   2.078  0.2230 -0.2078 -0.0184
 8718W        W25192   9.908   1.487   2.329 -0.1715  0.0991  0.0021
 8719W        W25193  11.206   7.347   5.408  0.0775  0.2530  0.2772
 8720W        W25194  14.828  16.346  12.243 -0.0905 -0.2162 -0.0103
 8721W        W25195  16.473   8.427   3.246  0.2055  0.0181 -0.3424
 8722W        W25196  14.974   6.545  14.062  0.1371  0.1294 -0.1922
 8723W        W25197   8.357  10.195  12.919 -0.2436  0.0088  0.1807
 8724W        W25198   5.184   7.072   1.064  0.0178  0.0360 -0.1148
 8725W        W25199  15.910   4.800  10.425  0.1597  0.2141 -0.0523
 8726W        W25200   8.727   7.331   3.709 -0.0423 -0.0095 -0.2204
 8727W        W25201   2.803  17.534   0.631  0.0969  0.1981 -0.1220
 8728W        W25202  13.593   4.567  11.265  0.1448 -0.1814 -0.1807
 8729W        W25203  10.023  13.738   4.352 -0.4895  0.0988  0.0777
 8730W        W25204  12.637  11.060   1.939  0.0539  0.0303  0.2696
 8731W        W25205   9.306   6.673  12.556  0.1339 -0.0575  0.4106
 8732W        W25206   8.270  12.294  13.753  0.1813 -0.1434 -0.0358
 8733W        W25207   5.802   7.966  15.511  0.0752 -0.2334  0.2891
 8734W        W25208  17.006   8.519  13.838  0.1882  0.0078  0.0990
 8735W        W25209  17.803  16.037  15.120  0.0454 -0.0367  0.0250
 8736W        W25210   3.629  17.424   0.289 -0.0306 -0.0063 -0.0330
 8737W        W25211  17.932   0.677  14.890 -0.0658  0.1835  0.0956
 8738W        W25212  10.052  12.023  13.977 -0.0861 -0.1944  0.2598
 8739W        W25213   3.968  14.897  13.997 -0.1630 -0.0358  0.3621
 8740W        W25214  13.820   8.734  13.035  0.1228 -0.0027 -0.1376
 8741W        W25215   3.021   2.029   4.563 -0.2768  0.1426 -0.1313
 8742W        W25216  11.278   2.665  13.995  0.1402 -0.0597  0.1033
 8743W        W25217   9.957   0.555  11.294  0.0310 -0.0511 -0.1353
 8744W        W25218   0.275   8.076   6.137  0.1176  0.0189  0.0258
 8745W        W25219  15.219  16.427   2.024  0.0331 -0.2331 -0.0596
 8746W        W25220   7.191   1.865   1.418 -0.2910 -0.3102 -0.2627
 8747W        W25221   3.456  13.028   3.981  0.0076  0.0741  0.1045
 8748W        W25222  10.912   5.496  12.453  0.2902  0.0790  0.0334
 8749W        W25223  11.265  11.932   3.814  0.3770 -0.0705  0.0400
 8750W        W25224   1.629   3.994  13.541 -0.2117 -0.0817 -0.2002
 8751W        W25225   2.661   3.630  14.488 -0.1758 -0.0534 -0.2602
 8752W        W25226   7.915  16.484   2.989 -0.1011 -0.0520  0.1054
 8753W        W25227   7.679  13.962  15.332 -0.1230  0.0115  0.2177
 8754W        W25228   0.043   6.554  13.657  0.4014 -0.2781 -0.0593
 8755W        W25229   8.752   3.059  15.385 -0.0200 -0.0812  0.0698
 8756W        W25230   3.758   9.147  13.285 -0.2616  0.0974  0.1760
 8757W        W25231   5.853   9.851   0.885 -0.0593 -0.1102 -0.1915
 8758W        W25232  13.115  12.909   0.157 -0.1181 -0.1329  0.0889
 8759W        W25233   8.541   9.982   0.062 -0.0385 -0.0907 -0.0555
 8760W        W25234   0.114   4.294  14.341  0.1259  0.0895  0.2170
 8761W        W25235   4.379   8.412  14.712 -0.2318  0.0711  0.5388
 8762W        W25236   8.424   3.833  14.521 -0.0692  0.0221 -0.0943
 8763W        W25237  13.059   3.143   0.316  0.0608  0.1784 -0.0681
 8764W        W25238   0.602  13.226   5.507 -0.1558  0.0777 -0.1659
 8765W        W25239   2.387   1.997   2.542  0.0586 -0.3426 -0.0494
 8766W        W25240  10.523   8.588   1.999 -0.1920 -0.1493  0.0357
 8767W        W25241  12.755   4.751  13.879  0.2102  0.1246 -0.1756
 8768W        W25242   3.199   2.108   0.600 -0.1983  0.2393  0.1170
 8769W        W25243   0.793   6.084  11.159 -0.1244 -0.2396  0.0928
 8770W        W25244   8.540  10.634   0.883  0.2008  0.2501 -0.1337
 8771W        W25245   2.147   3.792   3.121 -0.2161  0.2435  0.2042
 8772W        W25246   3.518   6.464  13.856  0.0778 -0.1481  0.0139
 8773W        W25247   5.022   7.609   2.419  0.1141 -0.2943  0.2663
 8774W        W25248   9.821   3.926   6.152  0.2007 -0.0619  0.1638
 8775W        W25249   5.699  17.181  16.142  0.0043  0.2195  0.2199
 8776W        W25250   6.550   1.604   5.357 -0.3272 -0.1930 -0.2184
 8777W        W25251  15.656  10.566  14.150  0.1378 -0.0129 -0.3093
 8778W        W25252  18.100   3.575  14.861 -0.0743  0.1082 -0.0385
 8779W        W25253   3.308   2.203  13.746  0.0034  0.1311  0.1387
 8780W        W25254  12.364  16.639   4.624 -0.2621 -0.2440 -0.1612
 8781W        W25255   6.097   1.611   6.353 -0.0132  0.0354 -0.0403
 8782W        W25256  17.387   7.760  15.768 -0.0249  0.1949  0.1822
 8783W        W25257   0.897  11.463  16.075  0.1566 -0.1371  0.0296
 8784W        W25258   4.886   7.096  12.775 -0.1820 -0.0990  0.2438
 8785W        W25259  11.405  11.690  11.296 -0.0686 -0.0490  0.1412
 8786W        W25260  12.713   9.590  16.146  0.2215  0.0598  0.0509
 8787W        W25261  12.686   5.421   1.162 -0.0533  0.0526  0.1591
 8788W        W25262   0.086  12.086   0.264 -0.1004  0.1177  0.3361
 8789W        W25263  17.773   2.313  12.227  0.0476 -0.3252 -0.2601
 8790W        W25264  13.127   6.972   2.408 -0.2009  0.2112  0.2161
 8791W        W25265  15.010   5.155  11.641 -0.1066 -0.0116 -0.0869
 8792W        W25266   3.695  12.757  14.597  0.1415 -0.1725  0.0154
 8793W        W25267   4.961   3.602   6.407 -0.4140 -0.0364 -0.3734
 8794W        W25268   9.431   6.685   2.628  0.2124  0.4541  0.3473
 8795W        W25269   4.402  12.238   4.970 -0.0401  0.0917 -0.1537
 8796W        W25270  11.811   4.503  12.920  0.1783 -0.1689 -0.2763
 8797W        W25271   0.173  16.976  14.247 -0.0866 -0.0028 -0.0460
 8798W        W25272  15.159   2.183  11.953  0.2028 -0.1325 -0.0745
 8799W        W25273   0.696  11.010   1.039  0.0182 -0.2291 -0.1847
 8800W        W25274  12.065  16.552  16.085  0.0805 -0.0452  0.2380
 8801W        W25275   4.604  12.231  15.098  0.0406 -0.0972 -0.0060
 8802W        W25276   8.513   3.743   0.585 -0.1247  0.0340  0.0323
 8803W        W25277   7.237  18.008   1.775  0.3348 -0.2756 -0.0473
 8804W        W25278   2.889  17.157  12.508 -0.0107 -0.4153 -0.0427
 8805W        W25279  15.991  15.309  15.797 -0.1715 -0.4672  0.0406
 8806W        W25280  13.402   9.485  13.000  0.1526  0.0773  0.2997
 8807W        W25281   2.749  16.128   6.366  0.1508 -0.3043 -0.0453
 8808W        W25282  15.589   4.484  13.680  0.0852  0.0086 -0.1294
 8809W        W25283  12.854  15.130   6.016 -0.0754  0.1912 -0.0748
 8810W        W25284  11.398  16.421   2.854  0.0658  0.1406 -0.2354
 8811W        W25285   3.455   6.967  13.257 -0.2796  0.0500  0.0733
 8812W        W25286  17.132  12.074   4.994 -0.2033 -0.5049 -0.0165
 8813W        W25287  12.655  14.352   5.701 -0.0872 -0.1245  0.2812
 8814W        W25288   6.927  17.683  12.888  0.0165 -0.0410 -0.0065
 8815W        W25289  11.492   1.700   1.985  0.2516  0.2885 -0.1663
 8816W        W25290  15.137   7.828   1.020 -0.2066 -0.1735  0.1371
 8817W        W25291  12.820   6.474   3.178 -0.1889 -0.2467 -0.2815
 8818W        W25292  12.531  17.158   4.435 -0.2015  0.1502 -0.2504
 8819W        W25293  13.970   1.922   0.600  0.0437 -0.1261  0.0916
 8820W        W25294   6.429   8.940   0.141  0.1515  0.1590  0.2487
 8821W        W25295  13.960   8.801  12.536  0.0118  0.2623 -0.2357
 8822W        W25296   4.673  11.545   3.822 -0.0707 -0.1087  0.1773
 8823W        W25297  15.830   8.892  11.503 -0.2184  0.0662  0.1186
 8824W        W25298  17.629  16.637  13.211 -0.3297  0.0180  0.3055
 8825W        W25299   4.153  17.447  13.071  0.0050 -0.0038  0.0088
 8826W        W25300   8.134  17.593   3.728 -0.1298  0.0574  0.0798
 8827W        W25301  15.654   4.366   3.180 -0.0425  0.2223 -0.1805
 8828W        W25302  14.510   8.863   4.239  0.0048 -0.3895 -0.1178
 8829W        W25303   9.837   1.970   0.084  0.3583  0.0342  0.1006
 8830W        W25304  14.672  17.645  14.603 -0.1863  0.0845 -0.0256
 8831W        W25305   5.905  17.450  11.730 -0.2414 -0.1498  0.0800
 8832W        W25306   8.197  11.786   4.370 -0.0515  0.0389 -0.1218
 8833W        W25307  10.177  10.599  13.330 -0.0274  0.0008  0.0015
 8834W        W25308   2.631   6.088  12.728  0.0159 -0.2472 -0.1541
 8835W        W25309  14.585  17.371  13.714 -0.1004 -0.3184  0.0076
 8836W        W25310   4.509  16.869  14.576  0.2011 -0.0733 -0.0840
 8837W        W25311   9.217   9.443  14.398 -0.1855  0.0327  0.2441
 8838W        W25312   4.982   8.200  14.947 -0.1893 -0.2287 -0.0013
 8839W        W25313  17.362  13.546   0.595  0.0955 -0.0912  0.2763
 8840W        W25314  11.516   3.859   3.836 -0.1426  0.0341 -0.2568
 8841W        W25315  16.285   3.671  11.369  0.3283  0.0311  0.0354
 8842W        W25316  12.906  11.999   1.033 -0.2003 -0.1823 -0.2352
 8843W        W25317  17.977   1.874   1.978  0.1394  0.1975  0.1411
 8844W        W25318   9.289   2.628   3.150  0.2586  0.0308 -0.3114
 8845W        W25319  11.663   0.512   3.326 -0.5961  0.0941  0.3592
 8846W        W25320   2.559   5.379   0.591  0.0704 -0.0948  0.1067
 8847W        W25321  12.865  17.940  12.337 -0.0645  0.0959  0.1283
 8848W        W25322  13.174  12.023   0.516  0.2428  0.0284 -0.1806
 8849W        W25323  10.180  11.686  15.407 -0.0907 -0.2030 -0.2834
 8850W        W25324  16.372   9.436  15.323 -0.0553 -0.1057 -0.1400
 8851W        W25325   1.958  10.072  13.894  0.0633  0.0011 -0.2033
 8852W        W25326  13.122  11.630  15.677 -0.0368 -0.1281  0.1947
 8853W        W25327   6.128  12.079   5.139  0.0284  0.5776  0.1511
 8854W        W25328   7.525   0.441  16.158 -0.4748 -0.0098 -0.1943
 8855W        W25329   8.069  16.097   4.855  0.3459  0.3144 -0.1249
 8856W        W25330   9.516  15.466  11.005 -0.1264 -0.0952  0.2477
 8857W        W25331   9.620   3.378   0.209  0.0968 -0.2782  0.2920
 8858W        W25332   7.268   6.079   1.835 -0.0398 -0.0434 -0.0472
 8859W        W25333   7.209  17.608   2.626 -0.0319  0.0580 -0.0495
 8860W        W25334  11.470  12.792   5.134  0.0344 -0.0358 -0.0946
 8861W        W25335   5.280   3.436   4.687 -0.0977  0.0638 -0.2268
 8862W        W25336   6.384   7.158  12.815 -0.0676 -0.0257  0.0781
 8863W        W25337  13.771  10.828  14.923  0.1380 -0.0944  0.0355
 8864W        W25338   0.489  13.460  14.105 -0.2081 -0.0293  0.0802
 8865W        W25339   3.410   6.947   0.610  0.0426 -0.0296 -0.2174
 8866W        W25340  12.235   4.795   3.097 -0.3106 -0.2713  0.0914
 8867W        W25341   1.138  15.193  12.845  0.1881  0.3607  0.1644
 8868W        W25342  14.038   8.986   4.478 -0.0457  0.1922  0.1607
 8869W        W25343   5.529   7.637   4.223  0.2376 -0.1196 -0.0247
 8870W        W25344  15.446   5.431   1.471 -0.2040  0.3307  0.0888
 8871W        W25345  13.881  16.015  13.915 -0.0232 -0.0313 -0.0108
 8872W        W25346   3.957   1.531   0.453  0.2514  0.5281  0.1386
 8873W        W25347   8.515  11.880   2.527 -0.3051  0.1371 -0.0023
 8874W        W25348   2.414   5.407  14.705 -0.1110 -0.3671 -0.2409
 8875W        W25349  11.137   0.942   1.874  0.2101 -0.0327 -0.3531
 8876W        W25350   6.328  17.203   2.287  0.1426 -0.0495 -0.1846
 8877W        W25351  10.274   3.299   0.975 -0.0331  0.0328  0.1479
 8878W        W25352  11.907  14.727  11.759 -0.2881  0.0413  0.0034
 8879W        W25353   1.873  15.187   3.960  0.0252  0.4040  0.1570
 8880W        W25354  12.068   7.064  12.575  0.0070 -0.1783  0.0089
 8881W        W25355  11.385  11.274   0.432  0.0872  0.0810 -0.1084
 8882W        W25356   3.675   6.608  12.008  0.1983  0.1158  0.3002
 8883W        W25357  10.624  12.634   2.651 -0.2983  0.0224  0.1294
 8884W        W25358  14.746  12.540  15.052 -0.0071 -0.0011  0.3064
 8885W        W25359  10.639   8.663  13.153 -0.0883 -0.1637  0.0871
 8886W        W25360  14.627  10.178   2.353 -0.0233 -0.3894  0.0204
 8887W        W25361   2.198   1.738  14.711 -0.0787  0.0658  0.1075
 8888W        W25362   5.152   1.185  13.900 -0.0130 -0.0636 -0.1792
 8889W        W25363   9.867   1.770  14.779 -0.0978 -0.0967 -0.0967
 8890W        W25364  18.158   8.279  11.449  0.0437 -0.2208 -0.0461
 8891W        W25365   8.438  14.829   2.318 -0.0501  0.5066  0.1922
 8892W        W25366  16.330  16.183  13.407 -0.5882  0.1474 -0.0129
 8893W        W25367   2.456   0.649  12.309  0.0967  0.1037  0.2076
 8894W        W25368  15.154  17.160   3.147  0.1489 -0.3465  0.1427
 8895W        W25369   5.757   1.579   3.622  0.2092  0.1805  0.2267
 8896W        W25370  18.033   7.896  13.942 -0.2404  0.2058 -0.2584
 8897W        W25371  14.401  14.051  12.947 -0.0203 -0.0286 -0.0716
 8898W        W25372   2.502   2.024  12.065  0.1825  0.1400 -0.2528
 8899W        W25373  11.524   0.334   2.538 -0.0234 -0.0758 -0.1235
 8900W        W25374   5.028   7.281   2.869  0.2648 -0.0742  0.0556
 8901W        W25375  10.429  17.691   0.909  0.0070  0.0011  0.2219
 8902W        W25376   3.036  16.931   5.269  0.0768  0.1964 -0.2397
 8903W        W25377   0.819  13.016  13.813 -0.1693  0.0041  0.1691
 8904W        W25378   5.493   0.133  16.324 -0.1515  0.3930 -0.2710
 8905W        W25379   5.927  10.103   3.601  0.2872 -0.1402  0.1412
 8906W        W25380   8.398   7.244  14.922 -0.0667 -0.1499  0.4867
 8907W        W25381   2.233  12.980  14.492 -0.2682 -0.2253 -0.1688
 8908W        W25382   6.903   5.365   4.125 -0.0682  0.3630  0.1718
 8909W        W25383  16.494   5.185  16.309  0.0518 -0.2632 -0.0478
 8910W        W25384   0.183  15.155  11.575  0.0192 -0.0631 -0.2329
 8911W        W25385   4.117  14.907   5.015  0.0052  0.0596  0.1196
 8912W        W25386  16.679  11.422   5.152 -0.1273  0.0141  0.0333
 8913W        W25387  17.027   8.570  12.335  0.0383 -0.0601 -0.0194
 8914W        W25388  14.113   4.889  14.534 -0.1380  0.1628  0.0811
 8915W        W25389  11.247  17.841  14.983  0.2077  0.0688 -0.0389
 8916W        W25390  14.533   4.815   4.532 -0.0750 -0.2452 -0.1355
 8917W        W25391  13.155  14.792  15.102  0.0223 -0.4460 -0.0152
 8918W        W25392   2.356  12.735   0.496  0.1141 -0.0856 -0.0241
 8919W        W25393   2.317  15.495  14.770  0.0697  0.2294  0.1584
 8920W        W25394  14.393  13.154   5.858 -0.1335  0.0067  0.1155
 8921W        W25395   4.483   1.781   2.105  0.3117  0.2966  0.0863
 8922W        W25396  12.552   9.454   4.712 -0.1950  0.0051  0.1587
 8923W        W25397  15.909   9.728   4.755  0.4154  0.1833 -0.1132
 8924W        W25398   5.830  13.908   4.622  0.0448  0.0864  0.0216
 8925W        W25399  12.016  10.655  15.462 -0.1935  0.1270  0.2649
 8926W        W25400  16.475   3.665  16.110  0.2212  0.1249  0.0279
 8927W        W25401   6.917  15.597   4.857 -0.2308 -0.3859 -0.0610
 8928W        W25402  17.713   9.234   2.338 -0.0922  0.2321 -0.0243
 8929W        W25403   3.634  16.696   3.433 -0.0645 -0.0503 -0.1729
 8930W        W25404   1.061   3.108  12.928 -0.1071  0.1492 -0.0695
 8931W        W25405   8.153   9.155  13.157  0.0914 -0.1731 -0.4044
 8932W        W25406  10.522   6.542   6.014 -0.0739 -0.1940 -0.1728
 8933W        W25407  17.124  12.764  13.139 -0.2179 -0.2600 -0.1936
 8934W        W25408   0.160   7.560   2.514 -0.0264  0.0975  0.1280
 8935W        W25409  16.276   9.182   2.809  0.2781 -0.1802 -0.1816
 8936W        W25410   5.066   6.613  13.627 -0.0451  0.0991 -0.1729
 8937W        W25411  14.407   8.236   2.492 -0.1101 -0.1245 -0.0679
 8938W        W25412   2.892   1.466   4.745 -0.2580  0.0148 -0.1307
 8939W        W25413  10.741   4.379  13.744 -0.2094  0.1274 -0.1815
 8940W        W25414   1.843   5.293  13.695  0.1548 -0.0426 -0.1408
 8941W        W25415  13.991  14.009  11.360  0.1803  0.2059  0.0692
 8942W        W25416   0.681  10.708   4.867 -0.0382  0.1358 -0.0007
 8943W        W25417   9.275  16.539   5.089 -0.0443 -0.1969 -0.0428
 8944W        W25418   3.283   9.208  15.254 -0.1237  0.2954 -0.0311
 8945W        W25419   5.907  11.938   3.660 -0.3034 -0.2849  0.0210
 8946W        W25420  15.597  14.095  12.674  0.2212 -0.1708  0.1230
 8947W        W25421  16.069  11.671   1.212  0.0063  0.1176  0.3713
 8948W        W25422  11.058  16.850  13.829  0.3417  0.4520  0.0599
 8949W        W25423   8.311  15.936  12.953 -0.1854  0.1140  0.2664
 8950W        W25424  16.869   0.118  12.558  0.1723  0.4024  0.3056
 8951W        W25425   8.558  17.708   5.000 -0.0888  0.6615  0.3744
 8952W        W25426   6.012   3.737  15.520  0.2444 -0.2614  0.1706
 8953W        W25427   8.860  10.930  15.796 -0.0639  0.1273  0.0665
 8954W        W25428  13.344   6.910   0.062  0.1647  0.2120 -0.0936
 8955W        W25429  15.707   5.311   4.643 -0.0602 -0.2641 -0.0182
 8956W        W25430   5.660  16.816  15.798  0.1287 -0.0364  0.2386
 8957W        W25431   9.153   9.944   4.559 -0.0781  0.1029 -0.4624
 8958W        W25432   1.061  13.884   0.661 -0.0536 -0.1976  0.0229
 8959W        W25433  10.947   0.442  10.182 -0.0588  0.3317 -0.2125
 8960W        W25434  15.918  15.907   2.776 -0.0260  0.1622  0.0637
 8961W        W25435  11.311   0.414   1.021 -0.3085 -0.2008  0.0924
 8962W        W25436   3.761   6.575  13.434 -0.1492  0.1711  0.3378
 8963W        W25437   5.401  12.737   3.357  0.2867  0.0759 -0.2010
 8964W        W25438  13.155   5.616  11.358 -0.1287 -0.0358 -0.0138
 8965W        W25439   1.065  11.650   4.199 -0.0412  0.0057  0.0366
 8966W        W25440  14.938   0.483  14.614 -0.1871 -0.0670 -0.0178
 8967W        W25441   8.153  13.102  10.466 -0.0298  0.0347  0.2963
 8968W        W25442   4.779   0.406   4.206  0.0983 -0.1774  0.4195
 8969W        W25443   7.463  15.075  13.895  0.3254  0.0029 -0.0279
 8970W        W25444   3.098   8.125  12.496 -0.0359 -0.1497 -0.2590
 8971W        W25445   3.896   4.712  14.350  0.2095 -0.0312 -0.0726
 8972W        W25446   0.780   4.956  14.921  0.0966 -0.1226  0.0704
 8973W        W25447   6.519   0.576   0.308 -0.0825  0.0511 -0.0425
 8974W        W25448  16.117   7.533   2.645 -0.0399  0.4707 -0.0499
 8975W        W25449   0.354  13.624  12.854  0.4715 -0.1655  0.2335
 8976W        W25450   4.595  10.328  11.688  0.2089 -0.1766 -0.0961
 8977W        W25451   9.955   6.020   3.436  0.3682  0.1011  0.0497
 8978W        W25452  10.812  11.068  11.197 -0.0555  0.0726  0.0729
 8979W        W25453   9.672  10.211  12.168 -0.1665  0.1254 -0.0713
 8980W        W25454   1.336   2.107   5.661 -0.0188  0.0552 -0.2637
 8981W        W25455  17.996  15.293   1.800  0.2275  0.2062 -0.1754
 8982W        W25456   8.711  17.904   3.218  0.2959 -0.0302 -0.0436
 8983W        W25457  17.412   9.140  14.680  0.1353  0.0961 -0.0877
 8984W        W25458   7.080   3.028   5.497 -0.0126  0.0637  0.0774
 8985W        W25459   7.961  11.989  11.101  0.2027 -0.0876  0.0803
 8986W        W25460   1.742   6.627  11.849  0.0105  0.1005  0.1972
 8987W        W25461  12.481   8.441  14.411  0.1404 -0.2883  0.2408
 8988W        W25462  10.413   5.044  11.763  0.0759 -0.1251  0.2173
 8989W        W25463  16.972  17.319  11.369  0.2321 -0.2182 -0.0431
 8990W        W25464   9.630   9.337   5.877 -0.0619 -0.1263 -0.0110
 8991W        W25465  16.973  15.010  16.161  0.0055  0.0625  0.0771
 8992W        W25466  10.957   9.652  14.138  0.1345  0.1615  0.1792
 8993W        W25467   7.658   9.261  14.647 -0.1141 -0.2937  0.1984
 8994W        W25468  12.128  12.086  11.889  0.2776 -0.0496  0.1797
 8995W        W25469   8.800   9.394   0.708 -0.0982  0.0423  0.3491
 8996W        W25470  17.688   6.613  16.090 -0.1155 -0.1811  0.0710
 8997W        W25471   4.882   8.380   1.894  0.2395 -0.1474 -0.0604
 8998W        W25472  16.196  16.295  12.451 -0.1500 -0.0108  0.1400
 8999W        W25473  15.281   6.338  14.425 -0.0663  0.0182 -0.2345
 9000W        W25474   2.227  13.190  13.489 -0.0734  0.2072  0.2420
 9001W        W25475   1.988  16.844   5.119  0.1105 -0.1733 -0.2252
 9002W        W25476   8.175   4.799  11.537  0.2490 -0.0542 -0.2696
 9003W        W25477  14.265  15.868   0.492 -0.1948 -0.0294 -0.0196
 9004W        W25478   3.507   5.496   2.958  0.0098  0.3092  0.1961
 9005W        W25479  13.794   7.637  12.301 -0.0858 -0.2089  0.1405
 9006W        W25480  18.018   8.104   6.580  0.1072  0.2577  0.0893
 9007W        W25481  14.015  15.450  15.283 -0.0336 -0.2461  0.0260
 9008W        W25482   7.774   5.199   4.982 -0.3739 -0.2194  0.0466
 9009W        W25483   5.401   7.970   0.132  0.2769 -0.0044 -0.2288
 9010W        W25484   9.166  14.655   5.142 -0.0898 -0.2105  0.2278
 9011W        W25485   0.559  15.763   3.192  0.0486 -0.0449 -0.1666
 9012W        W25486  14.170  12.960  11.457 -0.2498 -0.2240 -0.4039
 9013W        W25487   8.678  17.066   3.422  0.2655 -0.1279 -0.1628
 9014W        W25488   2.723  12.900  13.523 -0.1441  0.1346 -0.0672
 9015W        W25489   3.639   4.975   2.589 -0.2682  0.0289  0.0575
 9016W        W25490  13.223  13.628  11.901  0.0299  0.0146 -0.0439
 9017W        W25491  12.744   5.305  12.394  0.0960 -0.1595 -0.0850
 9018W        W25492   2.392  14.712   3.651 -0.1674  0.1949  0.2918
 9019W        W25493   8.786  13.982  14.119  0.1431  0.0141  0.0286
 9020W        W25494   2.452   1.462  15.925 -0.4326  0.1807 -0.0057
 9021W        W25495   6.071   1.671   0.940  0.4482 -0.2003  0.0996
 9022W        W25496   2.785  14.369  15.171  0.2812  0.0395 -0.0367
 9023W        W25497   3.556  15.605   2.108 -0.2323  0.0212 -0.1175
 9024W        W25498  12.110   3.995   0.292  0.0222 -0.0274  0.1493
 9025W        W25499   5.607   3.931   5.551  0.1051  0.0644  0.0422
 9026W        W25500  12.830   6.805   0.101  0.2283 -0.0396  0.0294
 9027W        W25501  11.601   4.283  11.554 -0.4351 -0.0945  0.0838
 9028W        W25502   1.902  11.214  14.476 -0.1484  0.0105 -0.0063
 9029W        W25503  12.265   2.687  11.685  0.0008  0.0369  0.1247
 9030W        W25504   3.697  15.734   3.111  0.1915  0.2837 -0.1730
 9031W        W25505   7.110   7.089   5.719  0.2118  0.2766  0.1256
 9032W        W25506  12.205   8.838   0.940 -0.0240  0.0195 -0.1206
 9033W        W25507  12.495   2.487   2.057 -0.0429 -0.1560  0.0316
 9034W        W25508   2.435   2.137   0.423  0.1137 -0.1126  0.1650
 9035W        W25509  16.941   3.945  12.787  0.0374  0.0448 -0.1721
 9036W        W25510   5.758   5.835  15.604 -0.1432 -0.1783  0.1485
 9037W        W25511   7.889  10.336   3.282 -0.1110 -0.0329 -0.0434
 9038W        W25512   9.673   7.417  13.655 -0.1344  0.0770  0.2448
 9039W        W25513  13.291  12.505   3.217  0.3197 -0.0329  0.0289
 9040W        W25514   3.103  16.144   4.832  0.3138 -0.2602 -0.0005
 9041W        W25515   9.311  10.877   4.119  0.0643 -0.1229 -0.0216
 9042W        W25516   8.336   4.420  16.177  0.2987  0.1247  0.3465
 9043W        W25517   9.615   0.158   3.098  0.1959 -0.2602 -0.1139
 9044W        W25518   2.835   9.221   0.922 -0.0995 -0.0975 -0.0240
 9045W        W25519   1.988   1.359   3.144 -0.1545 -0.0074 -0.3333
 9046W        W25520   1.335   0.472   4.027 -0.0193 -0.0610 -0.1921
 9047W        W25521   2.175   5.605   5.274  0.1271  0.0926 -0.1329
 9048W        W25522   0.358  16.062  14.261 -0.1129 -0.1663 -0.2009
 9049W        W25523   1.604   2.833  12.999  0.0354 -0.1315 -0.0265
 9050W        W25524  14.824  13.491  12.342  0.1864  0.0437  0.1480
 9051W        W25525   4.218   2.686   1.851 -0.0579  0.1155 -0.2996
 9052W        W25526  10.831  15.799  15.655  0.0853  0.0741  0.0194
 9053W        W25527   9.989  11.360   3.002  0.0736  0.1386 -0.0436
 9054W        W25528  17.947   6.601   2.354 -0.1677  0.1644  0.1287
 9055W        W25529   7.678   6.058   2.853  0.4430 -0.0404  0.1008
 9056W        W25530   3.619   5.757  12.416 -0.2901  0.0984 -0.3841
 9057W        W25531   9.193  13.418   4.172  0.1609 -0.0169  0.1721
 9058W        W25532   2.186   3.917  15.068  0.2150 -0.2205  0.1732
 9059W        W25533  11.794   1.753  14.447 -0.0454  0.2472  0.2341
 9060W        W25534  10.732   0.012  14.330  0.2274 -0.0841 -0.1751
 9061W        W25535   8.314   6.128   3.112  0.1213 -0.1248  0.1082
 9062W        W25536   9.180   2.813   2.093  0.0541  0.0027  0.1185
 9063W        W25537   3.766   6.623   2.420  0.1865  0.0409  0.3051
 9064W        W25538   2.649  10.028  15.906 -0.0272 -0.1307  0.4310
 9065W        W25539  15.428  15.303   3.597  0.2192 -0.0562  0.0327
 9066W        W25540   7.904  15.557   2.558 -0.0813 -0.2761 -0.0107
 9067W        W25541  17.452  16.146  11.886 -0.2020 -0.0621  0.1606
 9068W        W25542  16.813  15.885  13.557  0.0015 -0.1276 -0.1232
 9069W        W25543   1.755   8.112   4.936  0.0711  0.1549 -0.0686
 9070W        W25544   5.154  11.352   1.476 -0.1001  0.2320 -0.2348
 9071W        W25545  16.938   1.995   2.058  0.0311 -0.0914  0.3231
 9072W        W25546   2.551   3.771  13.246  0.0737  0.0875 -0.0288
 9073W        W25547   8.847  12.454   5.123  0.1600 -0.0123 -0.2231
 9074W        W25548   7.487  15.922  16.241  0.2809 -0.0724  0.1402
 9075W        W25549  11.955   8.461  15.615 -0.1648  0.1805 -0.0049
 9076W        W25550   4.720  10.117   4.048  0.2036  0.1725  0.2281
 9077W        W25551  11.836   0.627  15.062  0.0038  0.0560  0.1146
 9078W        W25552  14.861   6.607   1.140  0.3718 -0.2673  0.1783
 9079W        W25553  10.876   0.119   4.460  0.1697  0.1729 -0.0528
 9080W        W25554  10.556  11.519   0.354  0.0172  0.1812 -0.1098
 9081W        W25555  15.928  16.933   1.134 -0.1185 -0.0763 -0.0738
 9082W        W25556   7.164  11.880   1.742  0.2732 -0.2904  0.2108
 9083W        W25557  15.864   0.421  13.340  0.1890  0.3581 -0.0088
 9084W        W25558  17.275   7.376  12.882 -0.0519 -0.4185  0.1794
 9085W        W25559   6.621   4.174   0.312  0.3233 -0.4348 -0.1545
 9086W        W25560   6.846   9.763   1.431  0.1155  0.0353  0.0104
 9087W        W25561   0.171  14.186   4.503 -0.2258  0.1600 -0.0651
 9088W        W25562  10.953   8.142   0.529  0.0488 -0.0432 -0.1616
 9089W        W25563  14.735  14.095  12.080  0.1994  0.0414  0.0656
 9090W        W25564  15.737   1.227   4.571  0.2053  0.0771  0.2498
 9091W        W25565  11.281  10.262  11.555  0.1874 -0.0300  0.1030
 9092W        W25566  14.006   9.300   5.438 -0.1841  0.0032 -0.1107
 9093W        W25567   5.696  15.562   4.101  0.0017  0.3304  0.0463
 9094W        W25568   0.652   0.431   3.892  0.0331  0.2129 -0.2387
 9095W        W25569  10.053  17.077  13.815 -0.0108 -0.0940 -0.0370
 9096W        W25570   0.414  15.033  15.797  0.1681  0.2790  0.3841
 9097W        W25571   5.289   0.670  16.185  0.0266 -0.0009 -0.1448
 9098W        W25572   9.293   1.054  13.860  0.0025 -0.1790  0.3261
 9099W        W25573  15.168   5.800  14.635  0.0979 -0.0327 -0.1027
 9100W        W25574   8.091   6.808   5.163  0.1032  0.1610  0.1717
 9101W        W25575  17.253  11.529  15.453  0.1636  0.2196 -0.0516
 9102W        W25576  11.517   3.414   0.017 -0.0438  0.3029 -0.0827
 9103W        W25577  11.760  10.062   5.637  0.0585 -0.0466  0.1990
 9104W        W25578   5.991   0.565  15.522  0.0190  0.1011 -0.2238
 9105W        W25579   9.352  10.926  11.680  0.0343 -0.2441 -0.1501
 9106W        W25580  10.175   1.033  13.849 -0.4952 -0.0367 -0.0429
 9107W        W25581   1.589   0.816  13.343 -0.3638 -0.0236 -0.3144
 9108W        W25582   7.956   6.129   0.295 -0.2100  0.3287  0.0951
 9109W        W25583   9.318   0.768  16.009  0.2150  0.1637  0.0188
 9110W        W25584   8.924  13.290   2.363  0.0608 -0.1594 -0.2278
 9111W        W25585  14.635  15.734  15.281  0.1289  0.0734  0.1500
 9112W        W25586  10.608   5.486  11.959 -0.1841 -0.2356 -0.0222
 9113W        W25587   0.040   2.166  11.668  0.0745 -0.1230  0.0494
 9114W        W25588  11.060  13.703   0.933  0.0223 -0.1337 -0.0731
 9115W        W25589   8.407   3.338   0.950  0.1549 -0.2064  0.0479
 9116W        W25590   2.401  11.838   1.727  0.0739 -0.1022  0.0734
 9117W        W25591  17.046   9.204   1.271  0.0252 -0.2684  0.0676
 9118W        W25592   5.659   9.257  16.007 -0.1939 -0.0524  0.1172
 9119W        W25593   8.373   4.941  15.949  0.0086  0.1103  0.2348
 9120W        W25594  17.909   9.897  15.138 -0.0614 -0.2396 -0.1928
 9121W        W25595   4.636   9.593  10.365 -0.1638  0.3966  0.2858
 9122W        W25596  15.787  15.438  13.091 -0.3455 -0.1738  0.1732
 9123W        W25597   8.375  15.373   3.683  0.0421  0.1929 -0.0707
 9124W        W25598   7.209  16.336   1.531 -0.0787 -0.0997  0.0665
 9125W        W25599   6.600  11.962   0.106 -0.1138 -0.2264 -0.0203
 9126W        W25600  16.492   5.564   1.211  0.1126  0.1167  0.3991
 9127W        W25601   7.488   8.804  14.050  0.3148 -0.0444 -0.4211
 9128W        W25602   5.259   7.040   5.589 -0.0929  0.2205 -0.2746
 9129W        W25603  11.235  17.072   2.615  0.1569 -0.3317  0.1648
 9130W        W25604  18.019   4.500  11.360 -0.1926  0.1328 -0.1628
 9131W        W25605  12.679   6.006   3.281  0.0338 -0.2032  0.0057
 9132W        W25606   8.763  11.000  13.182 -0.0447 -0.0235 -0.0713
 9133W        W25607   9.357   1.170  14.304  0.0079  0.0210 -0.0547
 9134W        W25608  10.562   4.518   2.626  0.0070  0.1057 -0.2707
 9135W        W25609   9.431  16.891   4.143  0.2889 -0.2190  0.3833
 9136W        W25610  11.079   3.846   5.567  0.4354 -0.2113 -0.2621
 9137W        W25611   0.541  17.675   1.010 -0.0173 -0.2285 -0.0510
 9138W        W25612  14.326  16.375   0.734  0.0955 -0.0166  0.3256
 9139W        W25613   0.123   5.428  13.373  0.2633 -0.1928  0.1682
 9140W        W25614   1.876   6.887   2.593 -0.1499  0.0432 -0.0985
 9141W        W25615   3.045   9.050   5.370 -0.4678 -0.0435 -0.0019
 9142W        W25616  13.361   8.109  10.415 -0.1290 -0.0199  0.1321
 9143W        W25617  10.280   2.766   1.386 -0.0929  0.0431 -0.2570
 9144W        W25618  17.902   5.213   4.729  0.2206  0.2133  0.1444
 9145W        W25619   4.308   9.761   2.493 -0.1913 -0.0441  0.1674
 9146W        W25620   7.192   0.947  12.642 -0.0998 -0.1349 -0.2803
 9147W        W25621  15.785   3.976  11.628  0.1885 -0.2883  0.0405
 9148W        W25622   6.554  16.590  11.276 -0.1061 -0.0159  0.3052
 9149W        W25623   1.352  15.212  15.070 -0.2996 -0.0620 -0.1658
 9150W        W25624  18.026  12.843  15.946  0.3249 -0.0642 -0.0826
 9151W        W25625  15.656   9.852  11.202  0.0906  0.0470 -0.1977
 9152W        W25626  13.429  17.352  14.943 -0.2307 -0.1080 -0.0222
 9153W        W25627   1.612   6.400  10.749 -0.3781  0.0870 -0.0834
 9154W        W25628  13.310   3.966   1.505  0.2908  0.0645 -0.1524
 9155W        W25629   8.755  13.060  11.270 -0.0777  0.1531 -0.3142
 9156W        W25630  11.574  14.899  12.904  0.1012  0.2071  0.1717
 9157W        W25631   3.819  10.619  15.747  0.0369  0.0419 -0.1176
 9158W        W25632  10.753  11.096   2.382  0.2816 -0.1141 -0.2289
 9159W        W25633   8.951  11.355   5.421  0.1948  0.1187 -0.1295
 9160W        W25634   3.177  14.714   2.850  0.0794  0.3891 -0.3001
 9161W        W25635   7.106   1.752  14.544 -0.0444  0.2406  0.2461
 9162W        W25636  12.222   9.129   5.610 -0.2342  0.0945  0.1010
 9163W        W25637   2.947   4.265  15.042 -0.0022  0.0424  0.0541
 9164W        W25638  12.815   0.969   4.094  0.0312 -0.2436 -0.0803
 9165W        W25639   4.074  16.878   5.170 -0.2158 -0.0742 -0.3338
 9166W        W25640  17.739   6.648  13.133 -0.0268  0.3112 -0.1291
 9167W        W25641  16.274   7.239  12.923 -0.1440 -0.0069  0.1103
 9168W        W25642  11.458   4.890  12.726 -0.1304  0.0707  0.0631
 9169W        W25643   1.134   4.151   2.666 -0.1015  0.2589  0.0596
 9170W        W25644   2.402  12.082  15.008  0.0848  0.0050 -0.2152
 9171W        W25645   9.094  10.890   3.659  0.1031 -0.2568 -0.2062
 9172W        W25646   2.894   5.904  15.595  0.0557  0.2793  0.2824
 9173W        W25647   3.127  17.436   0.210 -0.1120 -0.2200  0.1157
 9174W        W25648  14.180   9.716  12.166 -0.1407  0.2876 -0.1200
 9175W        W25649  10.279   0.287  14.377  0.0607 -0.0818  0.1969
 9176W        W25650   6.800   7.987   2.121 -0.2993  0.1420  0.0841
 9177W        W25651  14.638  13.503  13.569  0.1107 -0.0395  0.1944
 9178W        W25652   2.666   8.551   1.555  0.0462  0.0236  0.0519
 9179W        W25653  17.689   0.654   1.230 -0.0577  0.3644  0.1570
 9180W        W25654  17.813   3.361   4.113 -0.1646 -0.0025  0.0151
 9181W        W25655   3.126   3.733  11.937 -0.0040 -0.2807  0.0073
 9182W        W25656  10.581   6.125   2.633 -0.0939 -0.0870 -0.2501
 9183W        W25657  11.957  16.430   1.799 -0.4054  0.0314  0.1120
 9184W        W25658  12.056  14.558  15.194  0.3139  0.0368  0.4170
 9185W        W25659   6.372   1.838   3.904  0.0112 -0.2647 -0.1807
 9186W        W25660  12.039   6.861  14.151  0.1769  0.2487  0.1143
 9187W        W25661   2.697   0.491  14.608  0.5266  0.1271 -0.0115
 9188W        W25662   9.433   0.238   3.564 -0.0841 -0.0283  0.0415
 9189W        W25663   4.501  17.507   0.740  0.1229  0.0536 -0.4059
 9190W        W25664   3.474  17.458   1.222 -0.1691  0.4661 -0.2632
 9191W        W25665   1.529  15.831  15.822 -0.0651  0.1283  0.0936
 9192W        W25666   3.473   1.846  14.992  0.0316 -0.1208 -0.0804
 9193W        W25667   2.624   0.838  11.888 -0.1249  0.1731  0.2830
 9194W        W25668   8.304   7.384   0.463  0.2368  0.0833  0.2523
 9195W        W25669   1.264   2.084  16.014 -0.2464  0.0076 -0.4521
 9196W        W25670  17.981   1.985  15.065  0.2739 -0.1233 -0.1111
 9197W        W25671   9.720  10.106   3.240  0.3285  0.0077 -0.3207
 9198W        W25672   0.855   3.052  16.067  0.0822  0.1968  0.0018
 9199W        W25673  18.154   9.445   2.445 -0.1463 -0.1550 -0.0881
 9200W        W25674   6.678   6.878   3.591 -0.0833 -0.0811 -0.1356
 9201W        W25675  13.284   5.409   1.170 -0.0280  0.0612  0.0504
 9202W        W25676  10.091  12.235   1.428 -0.0763  0.0490  0.0174
 9203W        W25677   2.563   7.960   2.033  0.2172  0.0933  0.1730
 9204W        W25678  15.216  17.527   1.869 -0.2659  0.0086  0.1471
 9205W        W25679   2.404   6.342   3.146 -0.0721 -0.1962  0.2573
 9206W        W25680  10.248  13.825  14.614  0.1007  0.0934  0.0874
 9207W        W25681  15.869   0.013   2.466  0.0721  0.0732  0.1216
 9208W        W25682   1.331   6.356  15.385 -0.1244  0.0912 -0.0937
 9209W        W25683  12.811   6.446  12.229 -0.1485 -0.0931  0.1160
 9210W        W25684   0.093   9.290  12.518  0.1335 -0.0003  0.0603
 9211W        W25685  14.971   0.356   1.430  0.4038  0.0236 -0.0619
 9212W        W25686   3.471  15.583  14.364  0.0096 -0.0212  0.1358
 9213W        W25687   5.477   3.530   2.377 -0.0074  0.1640  0.2807
 9214W        W25688   2.733   7.163   1.697 -0.1489  0.0092 -0.3605
 9215W        W25689  15.258   8.046   2.772 -0.0894  0.0919  0.2326
 9216W        W25690   2.838  13.334  13.766  0.0217  0.0786 -0.3132
 9217W        W25691  17.886   1.164   2.428 -0.2420 -0.0068  0.2582
 9218W        W25692   6.216  17.862   4.853  0.0190 -0.1626  0.1359
 9219W        W25693  13.656   9.949  12.884 -0.0292  0.3086  0.0117
 9220W        W25694   4.046  14.414   3.075  0.0204 -0.1873 -0.1532
 9221W        W25695   9.474   4.095  16.198 -0.0298 -0.0001 -0.1179
 9222W        W25696   9.109   6.426   3.801 -0.0154  0.1699 -0.4201
 9223W        W25697   0.407   7.927  15.180  0.0713 -0.2952  0.1832
 9224W        W25698   6.131  16.697   4.170 -0.3516 -0.3492  0.1704
 9225W        W25699   2.273  16.205  11.167  0.0849 -0.2844 -0.1401
 9226W        W25700  15.181   9.068  11.506 -0.1945  0.1931  0.1805
 9227W        W25701   6.106   3.964  13.361 -0.0006 -0.3921 -0.0275
 9228W        W25702   1.154  13.418  11.772  0.1135 -0.0549 -0.3417
 9229W        W25703  15.166  12.021   0.757  0.1543  0.0827  0.1764
 9230W        W25704   7.242   4.653  16.013  0.2074 -0.0504 -0.0667
 9231W        W25705   3.635  13.384   2.359  0.1386  0.0701  0.0640
 9232W        W25706  12.542   6.970  13.262  0.0301 -0.1826  0.0522
 9233W        W25707  10.106   8.113  14.990  0.0825  0.1022 -0.2097
 9234W        W25708   6.178   7.462   2.772 -0.1639 -0.0439 -0.0638
 9235W        W25709   7.911   9.531  13.687 -0.1551  0.2207 -0.1856
 9236W        W25710  12.300  17.103  13.937 -0.0118  0.1110 -0.1157
 9237W        W25711   8.484  15.250   5.949  0.2025 -0.0630  0.1235
 9238W        W25712   5.884   2.559   0.125  0.2267 -0.0021 -0.0860
 9239W        W25713  10.306   9.942   3.883  0.1964 -0.2899 -0.0853
 9240W        W25714   8.999  12.865  12.903 -0.0268 -0.0872 -0.1064
 9241W        W25715  13.172   7.989   2.798 -0.2269 -0.1625  0.1301
 9242W        W25716   0.426  16.323   3.281  0.0895  0.0199  0.0184
 9243W        W25717  16.164   9.093  12.855 -0.2660  0.0754 -0.0183
 9244W        W25718  17.419  11.616   3.273 -0.1395 -0.0550 -0.2702
 9245W        W25719  16.333  16.239  15.102  0.0490  0.0028  0.0687
 9246W        W25720   4.252  15.123   4.115 -0.2166  0.0147 -0.0966
 9247W        W25721   3.693  11.848   4.677 -0.0123  0.2804  0.2145
 9248W        W25722  12.368  13.951  11.440  0.1730  0.1619  0.1024
 9249W        W25723   4.019  17.019  15.913 -0.0925 -0.0458 -0.2170
 9250W        W25724   4.094   3.315   1.657 -0.2627 -0.3881 -0.0554
 9251W        W25725   0.248   1.379  11.274 -0.0548  0.1041 -0.0341
 9252W        W25726   8.476  17.208   4.005  0.0521 -0.0348 -0.0160
 9253W        W25727   8.417   7.871  11.579  0.0352  0.3012  0.0568
 9254W        W25728   3.163  10.628  11.266 -0.4192  0.1156 -0.1671
 9255W        W25729   1.352   8.371   4.670  0.1073  0.1929  0.1528
 9256W        W25730   8.627   3.523  15.250  0.4369 -0.0217  0.1681
 9257W        W25731  18.043   3.039   0.209  0.0273  0.2859 -0.1658
 9258W        W25732   7.176  10.674  14.651 -0.0428  0.0252  0.1100
 9259W        W25733   3.336  17.557  13.557 -0.1532  0.3944 -0.2354
 9260W        W25734  10.301   6.316  13.169  0.0532  0.0728 -0.3185
 9261W        W25735  13.677   6.369  12.428 -0.1944  0.1233 -0.1407
 9262W        W25736   2.117   5.423   4.027  0.0317 -0.0841 -0.2349
 9263W        W25737   9.491   9.237  12.394 -0.0199 -0.0320  0.0501
 9264W        W25738  11.535   9.513   4.551 -0.1195 -0.0408  0.0288
 9265W        W25739   4.358  12.658  12.130  0.1767 -0.1095  0.2739
 9266W        W25740  16.701   0.742  11.161 -0.2801  0.1244  0.3861
 9267W        W25741  12.537  13.832   3.659 -0.2423 -0.0150 -0.5236
 9268W        W25742   5.615   0.268   2.720 -0.1838 -0.0812 -0.0963
 9269W        W25743   8.202  16.396  16.068  0.0479 -0.2141  0.1411
 9270W        W25744  14.777   1.027   0.345 -0.0048 -0.1151 -0.2539
 9271W        W25745   2.668   9.852  11.003 -0.1932 -0.0590  0.2267
 9272W        W25746  13.633  10.021  15.982 -0.1535  0.0209 -0.0752
 9273W        W25747  14.114   1.448   3.454  0.2542  0.0614 -0.0883
 9274W        W25748  10.926  13.003   2.914  0.0158  0.2898  0.4010
 9275W        W25749   4.253  16.078   3.357  0.2358 -0.1123  0.0197
 9276W        W25750  11.528  13.022  13.721  0.0783  0.0119  0.0321
 9277W        W25751  18.128   8.091   4.452  0.0008  0.1437 -0.3014
 9278W        W25752  13.040   6.928   4.280 -0.1331  0.0568  0.2002
 9279W        W25753  15.206   9.087   1.863  0.0486  0.0824 -0.1589
 9280W        W25754   1.733  17.620   2.511 -0.1625 -0.2684  0.2058
 9281W        W25755  17.166   7.949  14.947  0.0343  0.0202  0.5182
 9282W        W25756  12.548   7.286  16.348 -0.1415  0.0889 -0.3341
 9283W        W25757  16.720  10.077   2.317 -0.2204 -0.2546 -0.0486
 9284W        W25758  14.286   7.194   1.514  0.2465  0.0064 -0.0584
 9285W        W25759  10.688   8.894  14.665  0.1991  0.1715 -0.1342
 9286W        W25760  16.602   8.806   0.991 -0.0867 -0.1581  0.0395
 9287W        W25761  15.577   7.197   0.033 -0.0807  0.0364 -0.0986
 9288W        W25762  14.497  16.040   5.441 -0.0386 -0.1437  0.0685
 9289W        W25763  10.521   6.875   1.887  0.0546 -0.1557  0.0505
 9290W        W25764   7.093   7.086   2.943  0.3829 -0.2769  0.0100
 9291W        W25765   7.399  15.772  13.831 -0.1453  0.2882  0.1331
 9292W        W25766   0.959  15.671   1.352  0.2170  0.0641  0.0353
 9293W        W25767  16.392  16.093   5.373  0.1800  0.1987 -0.2659
 9294W        W25768   3.174  15.713   4.468 -0.0452  0.0649 -0.0936
 9295W        W25769   4.973   4.102  11.787  0.0479 -0.2219 -0.1740
 9296W        W25770  16.947   9.478  11.710  0.0426 -0.2137 -0.0333
 9297W        W25771   2.260  15.722   3.348  0.1631 -0.1290 -0.0938
 9298W        W25772  15.521   8.738  14.921  0.1402 -0.0995 -0.0320
 9299W        W25773   9.600  16.631  16.324  0.0408 -0.2426 -0.2160
 9300W        W25774  12.583   5.516  14.640  0.0026  0.1371 -0.2415
 9301W        W25775   7.185   0.897  14.898  0.0170 -0.0799 -0.0255
 9302W        W25776   6.800  10.147  12.311  0.0008 -0.1423  0.0461
 9303W        W25777  16.318  12.841   1.496  0.2907  0.2031 -0.1498
 9304W        W25778   3.069  11.904  14.353 -0.1684  0.1903  0.1447
 9305W        W25779  17.272  16.005  12.750 -0.0334 -0.3877  0.0049
 9306W        W25780   7.815   9.390   0.661 -0.0032  0.0268 -0.0011
 9307W        W25781  13.539  13.980  12.183  0.2520  0.0501  0.2757
 9308W        W25782  15.599  11.870  15.025  0.2157 -0.0654  0.2287
 9309W        W25783  10.359   6.407  12.108  0.0767  0.2150  0.1320
 9310W        W25784  13.830  16.943   1.216 -0.1491 -0.1259  0.1393
 9311W        W25785   1.877  14.048   0.924 -0.1755  0.3020 -0.0283
 9312W        W25786   1.225   9.891  14.030 -0.0732  0.1066 -0.1991
 9313W        W25787  17.602   2.932  14.564  0.2982 -0.1229  0.0405
 9314W        W25788   9.376   6.453  13.671  0.2648  0.2298  0.0705
 9315W        W25789   3.763   9.393  16.045 -0.3149 -0.1799 -0.0514
 9316W        W25790   8.203   3.322  14.283 -0.1867  0.1192 -0.1580
 9317W        W25791   9.295  18.171  13.548  0.0654  0.0691 -0.0320
 9318W        W25792   2.096   1.104  15.899  0.4520  0.0327  0.1342
 9319W        W25793  15.543  10.180  10.786  0.4178 -0.5470 -0.1880
 9320W        W25794   1.644  15.090   2.955  0.1141  0.1388 -0.0108
 9321W        W25795   7.469   3.356   0.102 -0.1696  0.2859 -0.0032
 9322W        W25796  16.254   9.141  13.370 -0.2070  0.2091  0.1160
 9323W        W25797  17.543   9.604   0.111  0.0797  0.0398 -0.0531
 9324W        W25798  15.108  16.003   2.629 -0.0452  0.0423 -0.4334
 9325W        W25799   5.913  14.967  16.058  0.0025  0.1223 -0.0939
 9326W        W25800   1.765   0.226   1.332 -0.1133 -0.0743  0.2874
 9327W        W25801  16.285  15.489   2.142  0.0302  0.2480  0.1275
 9328W        W25802  10.388  13.417  11.534 -0.2652  0.0141 -0.0891
 9329W        W25803  16.819  12.376  12.986 -0.0892  0.2894 -0.0512
 9330W        W25804   6.464   7.471   3.842  0.1021 -0.2895 -0.1130
 9331W        W25805   2.487   8.580  14.346  0.1379  0.0407 -0.1299
 9332W        W25806   0.819  10.319   2.226 -0.3008 -0.0934  0.1790
 9333W        W25807  13.191  15.638   2.081 -0.2748  0.3047  0.0698
 9334W        W25808   5.051   7.846   2.932 -0.2084  0.0952  0.1832
 9335W        W25809  15.485  18.049  16.078 -0.2104  0.1164 -0.0648
 9336W        W25810  17.048  16.809   2.587  0.1687  0.1546 -0.1632
 9337W        W25811  13.480   0.011  12.940  0.1845 -0.0443 -0.0597
 9338W        W25812  11.757  12.218   0.428 -0.1675 -0.2097  0.0279
 9339W        W25813   9.382  14.806  15.472  0.0206 -0.0113 -0.0596
 9340W        W25814   2.908  14.055   0.704  0.2744  0.3189 -0.2000
 9341W        W25815  10.346  16.091   4.147  0.0517  0.0220  0.1949
 9342W        W25816   6.473   4.196   1.715 -0.3509 -0.0871  0.0237
 9343W        W25817  14.639  17.645  15.072  0.0292 -0.0570  0.1444
 9344W        W25818   8.268  17.930   1.943  0.2421 -0.0673  0.2170
 9345W        W25819  12.786  12.160  11.545  0.0094 -0.2234 -0.2023
 9346W        W25820  11.803   0.575   1.072 -0.1172 -0.2949 -0.1649
 9347W        W25821   1.144   3.983   5.330  0.0917  0.4090 -0.1057
 9348W        W25822   0.456  16.520  13.033 -0.0638  0.0091  0.0315
 9349W        W25823   4.501   0.009   5.293  0.1362 -0.3681 -0.0338
 9350W        W25824   8.086   5.767   4.966 -0.0357  0.0892 -0.0043
 9351W        W25825  15.060   6.444   1.591  0.1627 -0.1646 -0.1965
 9352W        W25826   0.225   3.417   3.079 -0.1255  0.1819 -0.1709
 9353W        W25827  14.329  17.090  15.118 -0.0425  0.1013  0.0887
 9354W        W25828   5.221   7.223  11.486 -0.2400  0.0640  0.4926
 9355W        W25829  15.884   0.685   4.845 -0.1403  0.1473  0.2428
 9356W        W25830   1.282   1.796  14.811  0.0339 -0.1332  0.0916
 9357W        W25831  13.275  17.675   1.600 -0.2266  0.2432  0.0802
 9358W        W25832  10.176  11.835   3.259 -0.0634  0.2948 -0.2100
 9359W        W25833  17.279  14.588  14.598 -0.3434 -0.0917  0.0959
 9360W        W25834  14.102  12.153   6.103 -0.0683  0.0235  0.0714
 9361W        W25835   9.266  10.520  15.492  0.0409  0.3594  0.0957
 9362W        W25836  12.784  17.597   3.611 -0.0940 -0.0379  0.0337
 9363W        W25837   7.565   3.925   5.657 -0.1367 -0.1945  0.0155
 9364W        W25838  17.194   1.237   0.406 -0.1235 -0.3497  0.0229
 9365W        W25839  12.667  16.129   5.314 -0.1468  0.0617 -0.0621
 9366W        W25840   7.472   2.729   1.552  0.0264  0.1538 -0.0657
 9367W        W25841   7.609  14.258  15.828  0.0609  0.2383  0.0594
 9368W        W25842   1.180   9.605   6.047  0.0056 -0.3540  0.2046
 9369W        W25843  15.336   2.740   4.469  0.0140 -0.1587  0.1061
 9370W        W25844  14.739   4.006  12.318  0.1440  0.1761  0.0195
 9371W        W25845  10.656  17.868   4.251  0.2843  0.1354 -0.0548
 9372W        W25846  16.926  11.671  14.230  0.0577  0.0491 -0.3796
 9373W        W25847  14.480  16.359   1.482 -0.3786 -0.0224 -0.1972
 9374W        W25848  11.628  11.149   1.927  0.3111  0.1479  0.1960
 9375W        W25849  11.337  15.221  13.185 -0.1748  0.2779 -0.2769
 9376W        W25850   6.237   8.738   3.117  0.1687  0.2663 -0.1556
 9377W        W25851  14.164   1.014   2.264 -0.0957 -0.0119 -0.2972
 9378W        W25852   3.455  15.294   4.502 -0.0496  0.2762  0.1582
 9379W        W25853  10.661  11.820  15.140  0.3210 -0.4623 -0.1480
 9380W        W25854   6.461  16.516  16.256 -0.1840 -0.0140  0.0460
 9381W        W25855   0.096   3.226   2.649  0.2378  0.2489  0.0247
 9382W        W25856   3.545   8.663   1.359  0.1936 -0.0184 -0.0161
 9383W        W25857   9.687   1.430  15.228  0.0678  0.0794  0.0981
 9384W        W25858   4.854   2.442   5.492  0.1017 -0.1984 -0.0133
 9385W        W25859   9.251   8.937  14.493 -0.2336 -0.1090 -0.0409
 9386W        W25860   0.273   2.512  14.487  0.1180  0.1914 -0.2866
 9387W        W25861   4.757   8.956   1.724 -0.2197  0.0464  0.2176
 9388W        W25862  10.763   9.634  12.828 -0.1802  0.1350 -0.1700
 9389W        W25863  16.356  11.785   1.668 -0.2382  0.0291 -0.0127
 9390W        W25864  18.133   1.408   2.093  0.0210  0.0968  0.1084
 9391W        W25865  17.423  15.178   5.586 -0.0375 -0.0251  0.1854
 9392W        W25866  12.673  14.797  12.570 -0.0918 -0.1871  0.1135
 9393W        W25867  15.707  13.531  12.579 -0.0942  0.0672  0.0302
 9394W        W25868   8.206  16.639   2.642  0.0124 -0.1045 -0.0141
 9395W        W25869   2.941  17.073  16.226 -0.0223  0.0186  0.0168
 9396W        W25870  11.508  16.480   3.781 -0.1537 -0.3706 -0.2098
 9397W        W25871   7.827   1.108  15.463  0.1073 -0.1554  0.2012
 9398W        W25872   4.970  17.207  12.072 -0.0970 -0.1718 -0.1150
 9399W        W25873  11.140   7.551   4.125 -0.2944  0.1383  0.2897
 9400W        W25874   4.182  13.892   1.182  0.1579  0.0771 -0.1210
 9401W        W25875  17.056   4.791   3.344  0.1239 -0.1120 -0.1514
 9402W        W25876   2.460  11.050  15.324  0.2226  0.0830 -0.3637
 9403W        W25877  10.109   1.682   0.953  0.0592 -0.2415  0.1696
 9404W        W25878   9.340   1.424  12.062  0.3260  0.1149 -0.0517
 9405W        W25879   9.608  16.609   2.010 -0.1186  0.4027  0.0990
 9406W        W25880  12.368  10.759  16.278  0.0320 -0.0170 -0.0816
 9407W        W25881  15.256   5.362  14.888  0.0660 -0.1959  0.1713
 9408W        W25882  15.213   2.748   2.476 -0.0659 -0.0480 -0.0729
 9409W        W25883   1.705  14.697  13.185 -0.1794  0.2982  0.1444
 9410W        W25884   8.801  14.653   4.058 -0.0126  0.1639 -0.3521
 9411W        W25885   8.658  12.172  16.325 -0.0673  0.1815 -0.1325
 9412W        W25886   3.081  15.953   5.337 -0.1929 -0.3516 -0.0528
 9413W        W25887  15.422  14.680  13.120 -0.0829  0.0497  0.0960
 9414W        W25888   5.005   4.821  15.034  0.0409  0.0882  0.1167
 9415W        W25889   1.136  12.382   1.331 -0.0453 -0.1664 -0.2504
 9416W        W25890  12.493  12.905   4.764 -0.1614 -0.4834 -0.0720
 9417W        W25891  11.567  13.977   4.958  0.1980  0.0182 -0.2291
 9418W        W25892   8.797   6.059   3.915  0.1882 -0.0545 -0.0806
 9419W        W25893  17.719   7.349  11.819 -0.2352 -0.3024  0.1581
 9420W        W25894  14.822   4.776  11.214  0.0391 -0.1488 -0.2299
 9421W        W25895   8.108  17.697  10.872 -0.1075 -0.0397  0.1967
 9422W        W25896   7.310   5.082  11.841  0.1803 -0.1245  0.2020
 9423W        W25897  13.339   8.217  12.841  0.0901 -0.1214  0.3837
 9424W        W25898  17.490   8.417   5.067  0.0034 -0.3101 -0.0479
 9425W        W25899   2.601   9.756   0.542 -0.0766 -0.1757  0.2681
 9426W        W25900   3.915  18.146   0.611  0.2053 -0.0334 -0.0690
 9427W        W25901  12.867   9.332   1.061  0.2086 -0.2137  0.2875
 9428W        W25902  14.776  15.472  12.954 -0.1182 -0.0773 -0.2589
 9429W        W25903   8.862  14.310   2.473 -0.4180 -0.1130  0.0704
 9430W        W25904  16.690  11.985   5.224  0.2501 -0.2123 -0.0276
 9431W        W25905  10.680   7.786  14.779 -0.0835 -0.0559  0.0925
 9432W        W25906  17.101   7.657  16.248  0.0769 -0.1931  0.0880
 9433W        W25907   4.118   7.807   0.513 -0.3905 -0.1301 -0.0771
 9434W        W25908   6.196   3.080   4.399  0.0756 -0.0819 -0.1468
 9435W        W25909   8.867   2.628  13.752  0.1381 -0.0757  0.2107
 9436W        W25910   3.932  13.154   3.907  0.0691  0.1442 -0.0186
 9437W        W25911   9.248   1.896   3.676  0.1213 -0.3735 -0.1087
 9438W        W25912   3.376  17.250  12.554 -0.1520  0.1125 -0.3647
 9439W        W25913  11.974   1.769  12.782 -0.1117  0.0483  0.0838
 9440W        W25914  14.265   1.192  15.036 -0.0515  0.1575 -0.1235
 9441W        W25915   1.961  10.596   0.356 -0.1008  0.2578 -0.3565
 9442W        W25916   1.770  12.593   2.463  0.2779  0.3787  0.0499
 9443W        W25917   3.583   9.307  14.842 -0.1912  0.0144 -0.0388
 9444W        W25918   3.908  16.445   0.156 -0.1309 -0.0972  0.1394
 9445W        W25919  12.569  11.560   2.307  0.1265  0.1860 -0.0424
 9446W        W25920   5.873  12.513   1.899 -0.0857 -0.1567 -0.0127
 9447W        W25921   7.233  11.126   0.285  0.0678  0.0438 -0.0788
 9448W        W25922  15.423   8.793  12.249  0.0513 -0.1175 -0.6278
 9449W        W25923   7.751  14.618  12.210  0.1568 -0.2327 -0.3728
 9450W        W25924  10.892   8.629   0.486  0.0678  0.0283 -0.1211
 9451W        W25925  11.164  13.746   3.624  0.0420 -0.1114 -0.4802
 9452W        W25926  15.981   6.912  14.507 -0.1380 -0.0511 -0.0718
 9453W        W25927   0.778   5.092   3.437 -0.2774 -0.0759 -0.2016
 9454W        W25928  15.196  12.975  12.415 -0.0938  0.1347 -0.0774
 9455W        W25929   3.148   8.905   0.198 -0.1680 -0.0420 -0.2041
 9456W        W25930   0.178   8.293  12.842  0.0643 -0.0822 -0.0828
 9457W        W25931   5.062   9.515   4.520 -0.3905  0.0622 -0.3794
 9458W        W25932  14.109  13.828  12.132  0.2376 -0.3204 -0.0091
 9459W        W25933   9.960   9.027  13.153  0.1538  0.0982  0.0681
 9460W        W25934  10.383   3.205   5.257  0.0199  0.1787  0.1246
 9461W        W25935   3.759   4.652  13.875  0.2220 -0.1228  0.0292
 9462W        W25936  12.229   0.470  11.241  0.1716  0.1204  0.0193
 9463W        W25937   0.060   0.217  11.666  0.2073 -0.0429 -0.2211
 9464W        W25938  10.570  17.419  12.662  0.2339 -0.0359 -0.1772
 9465W        W25939   1.182   8.667  15.396 -0.0623 -0.4208  0.1112
 9466W        W25940   0.406   4.100   1.013  0.0743 -0.2637 -0.0720
 9467W        W25941  17.796   3.255  10.692  0.1265  0.0769  0.2455
 9468W        W25942   6.530   7.615  13.103 -0.1950 -0.0490 -0.2016
 9469W        W25943  16.891   3.328   4.975 -0.0587 -0.0335  0.1020
 9470W        W25944   0.035  13.716   2.527  0.2373 -0.0599  0.1179
 9471W        W25945  12.900   8.158   2.403  0.4098  0.0261  0.1284
 9472W        W25946   2.512  18.044   2.576 -0.1855  0.0922 -0.0394
 9473W        W25947  12.641  12.669   4.370 -0.0294 -0.0641  0.0736
 9474W        W25948  16.626   8.784  16.028  0.2742 -0.0517  0.2736
 9475W        W25949   1.881  16.150  12.639 -0.0021 -0.0085 -0.0008
 9476W        W25950  11.911   4.344  14.561  0.1577 -0.1778 -0.2543
 9477W        W25951   2.017  16.577   0.049 -0.2715 -0.0855  0.0031
 9478W        W25952   6.946  14.484  11.987  0.1753 -0.3260  0.1362
 9479W        W25953  11.421  15.341  13.644 -0.1164 -0.0152  0.4228
 9480W        W25954   4.264   2.815  12.632  0.1450 -0.1751 -0.2165
 9481W        W25955   0.862  10.611  11.711 -0.1765 -0.0922 -0.2365
 9482W        W25956   4.591  14.183  11.756  0.1154 -0.0807  0.0220
 9483W        W25957   9.571   2.770  12.055 -0.2777 -0.1006  0.1702
 9484W        W25958  11.390  12.541  15.138 -0.2703  0.4994  0.1339
 9485W        W25959  12.748   8.792   3.066  0.1375  0.0358 -0.1548
 9486W        W25960   4.584   4.205  12.699  0.0583  0.2569  0.1579
 9487W        W25961   7.272   9.628  14.370  0.1218 -0.4521 -0.2796
 9488W        W25962   8.742   8.090   3.814  0.0481  0.0368  0.0831
 9489W        W25963   4.613  16.834   2.078 -0.0784  0.0612 -0.4471
 9490W        W25964   5.409  18.119   0.431  0.0323  0.1274 -0.2842
 9491W        W25965   9.612  11.973  13.743 -0.0883 -0.0836 -0.0847
 9492W        W25966  15.435  16.140   2.972 -0.0177 -0.1116 -0.1826
 9493W        W25967  16.553   3.442  15.603 -0.0502  0.3547 -0.3780
 9494W        W25968  10.316  14.408   2.607  0.1472  0.1625 -0.0387
 9495W        W25969   9.561  16.957   5.036  0.2335 -0.1816  0.0962
 9496W        W25970   6.925   2.544   4.374  0.0862  0.1113  0.0337
 9497W        W25971  12.377   9.641  12.260 -0.4358 -0.0619  0.0444
 9498W        W25972   3.193  14.437   0.981  0.2417  0.3075 -0.0810
 9499W        W25973  15.872  14.466   1.245  0.0877 -0.0791  0.2678
 9500W        W25974  14.663   2.757  11.498  0.4431 -0.1868 -0.1980
 9501W        W25975   8.319   1.912   2.750  0.2253  0.0490  0.1807
 9502W        W25976   1.014  13.334   2.307 -0.1232 -0.0861 -0.1200
 9503W        W25977   5.149  13.630  12.466 -0.1307 -0.0980 -0.2895
 9504W        W25978   4.351  13.998   0.261  0.1138  0.0421  0.0773
 9505W        W25979  15.939   7.836   2.049 -0.2736  0.0597  0.1800
 9506W        W25980   7.380   9.003  12.632  0.0369  0.0933  0.0337
 9507W        W25981   6.378  10.090  15.133 -0.0108  0.0846  0.0974
 9508W        W25982   0.860   8.464  11.390 -0.1506  0.1785 -0.0430
 9509W        W25983  14.409   5.886   0.035  0.0074 -0.0160  0.0440
 9510W        W25984   7.870   2.650  11.784  0.1843 -0.0255  0.0082
 9511W        W25985   9.712  12.299   0.020 -0.0137  0.2299  0.0749
 9512W        W25986  11.193  13.158   4.901 -0.1445 -0.0643 -0.0894
 9513W        W25987  15.486   6.444   2.929  0.2093  0.0688  0.1031
 9514W        W25988   4.469   9.719  12.291 -0.0006  0.0096 -0.0978
 9515W        W25989   1.628   8.022   2.338 -0.1199 -0.1494  0.1013
 9516W        W25990   9.511  11.001  12.705  0.1309  0.0659 -0.0003
 9517W        W25991   7.681  16.849   3.341 -0.4111  0.3102  0.3173
 9518W        W25992  15.007  17.179  10.786 -0.0957  0.1408  0.1118
 9519W        W25993   1.533  10.266  14.189 -0.0871 -0.1637  0.0999
 9520W        W25994   7.940   1.883   3.834 -0.2278 -0.0502  0.2475
 9521W        W25995   9.416  10.340   1.637 -0.1470 -0.0386  0.1093
 9522W        W25996  10.491  12.355   2.181 -0.1902 -0.0195  0.1629
 9523W        W25997   7.027   4.030  12.439  0.1169 -0.2037 -0.1765
 9524W        W25998   7.090   2.816   3.264 -0.1256  0.0321 -0.4143
 9525W        W25999  14.141   7.842  13.340  0.0239  0.1441  0.1289
 9526W        W26000  15.134   7.831   2.358 -0.1080  0.2652  0.2020
 9527W        W26001   3.484  15.104  14.465 -0.1991  0.4723 -0.1117
 9528W        W26002   6.680  12.545  16.070 -0.2641  0.1143  0.3349
 9529W        W26003  13.098  13.439   0.140 -0.0512 -0.0209 -0.0958
 9530W        W26004  16.512  11.783   0.393 -0.1585 -0.0110 -0.0870
 9531W        W26005   2.852  13.560   0.872  0.0132  0.0551  0.0870
 9532W        W26006  11.781  11.121   3.774  0.2238 -0.3067 -0.1257
 9533W        W26007   9.707   5.603   1.839 -0.0146  0.1592 -0.2837
 9534W        W26008  10.856  17.619   5.080  0.1172  0.0586  0.4432
 9535W        W26009  10.541   8.877  15.273  0.1097 -0.1048 -0.0317
 9536W        W26010   7.246   4.279   5.437 -0.0709 -0.1528 -0.3568
 9537W        W26011   2.318   3.043  11.306  0.1614 -0.0721  0.2141
 9538W        W26012   4.828  11.721   5.593 -0.1775 -0.1473 -0.2739
 9539W        W26013   9.038  17.752   1.445 -0.4127  0.2206  0.2843
 9540W        W26014   9.408   5.624   4.413 -0.2684  0.0115 -0.0792
 9541W        W26015  10.692  15.410   5.821  0.0517 -0.0115  0.3885
 9542W        W26016   7.290   7.567  11.800 -0.2872 -0.2049 -0.1428
 9543W        W26017   6.836  13.451  12.864 -0.0773  0.0704  0.2968
 9544W        W26018  11.973   4.311  13.715 -0.0377  0.2001 -0.4233
 9545W        W26019   0.189   4.692   0.671  0.0320  0.0868  0.1107
 9546W        W26020   1.027   5.511   1.190  0.0439  0.0894 -0.1379
 9547W        W26021   5.997  18.052  10.593  0.0817 -0.1598 -0.1666
 9548W        W26022  17.883   6.279  15.088  0.0706 -0.2574 -0.1029
 9549W        W26023   1.712  17.426   0.335  0.0402  0.3363 -0.2034
 9550W        W26024   8.886   8.936  14.167 -0.1965 -0.1840 -0.1114
 9551W        W26025   8.077   3.902  12.590 -0.3253  0.2170  0.0627
 9552W        W26026   9.017   1.722  10.307  0.2043 -0.1757 -0.1992
 9553W        W26027   9.574   7.327  14.561 -0.0768 -0.0967  0.1535
 9554W        W26028   0.085   0.692  14.437  0.0872 -0.2594  0.0751
 9555W        W26029  15.538   1.180  15.019 -0.0222  0.4287  0.2219
 9556W        W26030   2.003   7.510  15.359  0.6527  0.0743 -0.0569
 9557W        W26031   0.771  10.469   4.230 -0.1122  0.1030 -0.3736
 9558W        W26032   3.872   0.708   3.840 -0.0303  0.1263 -0.0697
 9559W        W26033   1.380   6.974   1.932  0.0487 -0.1388  0.2505
 9560W        W26034   0.251   1.978  13.915  0.3140  0.0486 -0.1665
 9561W        W26035  11.622  10.517  13.771 -0.1706 -0.3369 -0.0710
 9562W        W26036   4.726   8.456  11.957  0.0457  0.1062  0.1018
 9563W        W26037  13.139  13.390  14.057  0.0144 -0.0711 -0.1721
 9564W        W26038  14.685  10.900  15.077  0.0738 -0.1653 -0.4024
 9565W        W26039  17.937  16.225   5.048 -0.2392 -0.1340  0.2022
 9566W        W26040  11.906   6.714  12.175  0.2224 -0.0226 -0.3421
 9567W        W26041   4.558   2.561   4.498  0.2435  0.2453  0.0851
 9568W        W26042  16.793   2.196   5.029  0.5692 -0.0203  0.1067
 9569W        W26043  12.889  12.133   6.550  0.3427 -0.0447  0.1944
 9570W        W26044   6.674   0.369   0.742 -0.1860 -0.0220 -0.2190
 9571W        W26045   8.814   6.283   0.898 -0.1781  0.0421 -0.2157
 9572W        W26046   0.376   9.552  14.802  0.0161 -0.1006 -0.0678
 9573W        W26047  13.184  12.377  14.989 -0.0172  0.1012  0.0376
 9574W        W26048   4.468   1.821  14.806  0.0950  0.1235  0.0172
 9575W        W26049  15.124   7.421  12.584 -0.0116 -0.1283  0.0860
 9576W        W26050   5.033   4.897   1.449  0.1432  0.3023 -0.0162
 9577W        W26051  17.048  11.006   0.400 -0.1892 -0.1725 -0.4355
 9578W        W26052  11.880  17.796   0.930 -0.0359 -0.1047  0.4338
 9579W        W26053  10.999  13.872  14.697  0.0324 -0.0053 -0.1928
 9580W        W26054   8.111  17.236  12.550  0.0400  0.0218 -0.0313
 9581W        W26055  15.573   2.413   2.377  0.0008 -0.1020  0.2050
 9582W        W26056  10.577  11.114  12.339 -0.0381 -0.1751 -0.0557
 9583W        W26057  10.327  12.261  10.838 -0.0795  0.0807 -0.1114
 9584W        W26058   2.513   5.023   3.334  0.0788 -0.0038 -0.1391
 9585W        W26059   1.748   4.030  14.080 -0.1506 -0.0470 -0.1829
 9586W        W26060  14.581  13.435  14.820 -0.1939  0.1598  0.3179
 9587W        W26061  13.920   2.951   3.529  0.0232 -0.2290 -0.0030
 9588W        W26062   7.199   1.648   3.561 -0.3072  0.3357 -0.0588
 9589W        W26063  10.199   2.213  16.085 -0.1498  0.0808  0.0098
 9590W        W26064   3.491   5.122   5.202  0.1418 -0.2150  0.0889
 9591W        W26065   5.038  13.247   0.560 -0.2190  0.1751 -0.1460
 9592W        W26066   5.178  16.859  14.445  0.2049  0.0021  0.0491
 9593W        W26067   9.766  14.231  10.973  0.1367  0.1698  0.0655
 9594W        W26068   9.813   0.284  14.084 -0.1687 -0.0147  0.0248
 9595W        W26069  12.261   0.941  11.151 -0.1214  0.0807  0.2576
 9596W        W26070  14.471   8.695   4.716 -0.3260 -0.2221 -0.0248
 9597W        W26071  12.599   9.153  14.291  0.0611 -0.3080  0.0445
 9598W        W26072   9.482  12.010   4.242  0.1883  0.0485 -0.0627
 9599W        W26073  13.937   9.252   0.874 -0.1015 -0.0497  0.0945
 9600W        W26074   3.931  14.529  13.562  0.0736 -0.2069 -0.1710
 9601W        W26075   4.176   5.016  15.508 -0.0270  0.0460  0.0647
 9602W        W26076  11.766   7.187  12.147  0.0666  0.0112  0.0311
 9603W        W26077  14.617  17.247  10.334  0.2308 -0.0417 -0.1303
 9604W        W26078   0.262  15.906   3.935 -0.0302  0.0142  0.1707
 9605W        W26079  17.258   1.302   2.497  0.1614  0.0420  0.0681
 9606W        W26080   8.703   3.904  14.127 -0.1315  0.0835 -0.1986
 9607W        W26081   8.544  13.574   2.258  0.1355  0.1999 -0.1618
 9608W        W26082  13.582   4.623   3.233 -0.3037  0.1701  0.2559
 9609W        W26083  14.375  15.274   4.935  0.1127  0.3707 -0.3385
 9610W        W26084  15.004   9.390  11.898 -0.1026 -0.0944 -0.0813
 9611W        W26085   6.493   8.170  12.263 -0.1854  0.1007  0.1953
 9612W        W26086  16.136  18.004  15.965 -0.1335 -0.3810 -0.4468
 9613W        W26087   1.190  14.986  14.124 -0.1160 -0.1247 -0.0281
 9614W        W26088   4.347   7.584   4.896  0.1387  0.1925 -0.0874
 9615W        W26089   2.081   9.483  13.419  0.0412 -0.0630 -0.0767
 9616W        W26090   0.965  16.460  14.525  0.1160 -0.0737 -0.0795
 9617W        W26091   0.132  17.588   1.365  0.1912 -0.0335 -0.1499
 9618W        W26092   7.350   7.875  12.557 -0.1987  0.1641 -0.2097
 9619W        W26093   9.202   5.796   0.853 -0.1123 -0.4710 -0.1690
 9620W        W26094   8.020   9.299   1.155 -0.3922 -0.1032  0.2589
 9621W        W26095  10.952   5.410  14.228 -0.0863 -0.2946 -0.0925
 9622W        W26096  13.318   0.244   1.985 -0.0364  0.1213  0.1483
 9623W        W26097   1.277   2.074  13.844  0.1239  0.0079  0.2067
 9624W        W26098  14.146   0.159   4.064  0.0399 -0.3170  0.1843
 9625W        W26099   1.016   3.580   3.653 -0.0956 -0.0387  0.3246
 9626W        W26100  10.610  13.709  12.904  0.3914 -0.0167 -0.2863
 9627W        W26101   5.631   7.631  15.227 -0.0388 -0.2966  0.2419
 9628W        W26102  15.443  11.090  12.384 -0.1439  0.0683 -0.1770
 9629W        W26103   1.273   6.583   5.213 -0.2227  0.1595  0.1189
 9630W        W26104   1.388   3.173   5.544 -0.1374 -0.0785 -0.0173
 9631W        W26105   9.775  10.750  14.315 -0.0274  0.0683  0.2138
 9632W        W26106  10.648   1.148  15.577 -0.2370 -0.0814  0.3256
 9633W        W26107  18.161  14.782   1.854  0.2540  0.2280  0.1940
 9634W        W26108  12.743  17.536  13.280  0.1203  0.0281 -0.1836
 9635W        W26109  10.529  12.758  10.972  0.1421 -0.1059  0.3489
 9636W        W26110   8.171  15.963   3.466 -0.0288  0.2573  0.1118
 9637W        W26111  12.053   5.947   4.148 -0.4402  0.0939  0.1022
 9638W        W26112  15.173  13.051   4.793 -0.0726  0.4522  0.1011
 9639W        W26113   7.500  11.361  14.601 -0.2505  0.2007 -0.1297
 9640W        W26114   5.445   6.719   1.597 -0.1410  0.1430  0.0642
 9641W        W26115  15.963  11.051  14.184 -0.0289  0.1352 -0.1738
 9642W        W26116  14.736   1.456   0.592 -0.2512  0.3397  0.0953
 9643W        W26117  16.431   6.039  15.170 -0.0268  0.1640  0.1686
 9644W        W26118   9.926   6.043   2.174 -0.0164  0.0383  0.0455
 9645W        W26119   1.876   7.572  13.036 -0.0126 -0.5272 -0.1727
 9646W        W26120   4.735   1.520   4.425  0.0591 -0.1674  0.1683
 9647W        W26121   4.183  13.978   4.985  0.1587 -0.3378 -0.1479
 9648W        W26122   4.974   7.063  14.253 -0.1115  0.0414  0.1510
 9649W        W26123   2.750  14.983  12.741 -0.0021  0.1851  0.3138
 9650W        W26124   3.795   4.514   5.698 -0.0233  0.0542 -0.0590
 9651W        W26125  12.513   3.805   1.987 -0.1113  0.0158  0.2020
 9652W        W26126   8.720   8.875   5.313 -0.1768 -0.0205  0.1162
 9653W        W26127   9.255   8.057  16.085  0.1683  0.2076  0.0610
 9654W        W26128   7.564   4.606   2.774  0.0030 -0.1603  0.1865
 9655W        W26129   6.780  11.786   3.297  0.0949 -0.4231 -0.1345
 9656W        W26130   2.497  10.263  11.406  0.0406  0.2926 -0.3803
 9657W        W26131  11.555   0.731   1.903 -0.1989  0.0785  0.1119
 9658W        W26132   3.706  14.628  12.192 -0.0269 -0.0224  0.1760
 9659W        W26133   4.938   9.456  15.401 -0.1665  0.0164 -0.0262
 9660W        W26134   9.979   2.517  12.317  0.1175 -0.0625  0.1177
 9661W        W26135   4.794   2.774   3.230 -0.0989 -0.1017  0.0815
 9662W        W26136   4.844  16.669   0.436 -0.0210 -0.2392  0.2811
 9663W        W26137   9.141   6.071   0.019  0.1423 -0.1547 -0.1882
 9664W        W26138   4.330   4.580  15.289 -0.1758  0.2394  0.1531
 9665W        W26139   6.587   2.444  14.480  0.3270  0.0187 -0.3630
 9666W        W26140  13.702   3.031  12.491 -0.0930 -0.0598  0.1487
 9667W        W26141   6.190  11.006  11.288 -0.1667  0.2849  0.1265
 9668W        W26142  14.180   0.472  16.273  0.3176  0.1448 -0.3087
 9669W        W26143   1.540   2.852   3.254  0.1448  0.1555 -0.1395
 9670W        W26144   2.969  12.863   3.936 -0.1699  0.1485 -0.0077
 9671W        W26145  15.728  13.418   0.406  0.0360 -0.0512 -0.1318
 9672W        W26146   0.536  17.881  14.222 -0.0120  0.2298 -0.1297
 9673W        W26147  13.667   2.327  15.502  0.3184 -0.1247 -0.0059
 9674W        W26148  17.924  11.434   5.362 -0.0765 -0.0361 -0.1443
 9675W        W26149   6.626  16.043   2.110 -0.1583  0.1913 -0.0149
 9676W        W26150   7.226   6.937   3.447  0.0111  0.0997 -0.0494
 9677W        W26151   8.383  12.632   2.140  0.1002  0.0954 -0.1190
 9678W        W26152   4.035  15.091  12.096 -0.1255  0.2903 -0.0968
 9679W        W26153  15.732  14.859   0.416 -0.1832  0.2353  0.0360
 9680W        W26154   2.600  13.422  14.862 -0.0088 -0.1194 -0.3368
 9681W        W26155   4.725  14.732   2.723  0.0557  0.4112  0.1386
 9682W        W26156   9.577  11.274  13.168 -0.1379  0.1954  0.0859
 9683W        W26157   9.061  15.375   1.563  0.1326  0.2339  0.1143
 9684W        W26158   7.589   6.482   2.019  0.2298 -0.1542 -0.0537
 9685W        W26159   3.679   3.000   5.442 -0.1691 -0.0100 -0.1493
 9686W        W26160   4.529   9.600  12.800 -0.0901 -0.2209 -0.1297
 9687W        W26161  13.473   3.263   1.456 -0.0015 -0.1475  0.0529
 9688W        W26162   2.213  14.687  16.327  0.3150 -0.0149 -0.2319
 9689W        W26163   7.657   2.644   2.806  0.0051 -0.3469  0.0845
 9690W        W26164  15.776   2.505   4.532  0.2872 -0.2038 -0.1178
 9691W        W26165  13.372  13.456   3.535 -0.0196  0.0676 -0.0643
 9692W        W26166  16.411   4.111  11.504  0.2215 -0.1727  0.1193
 9693W        W26167  15.064   8.917   1.430  0.2169  0.0327  0.1048
 9694W        W26168  13.830   6.352  14.631  0.2621  0.2083 -0.1090
 9695W        W26169  16.096  12.053  14.866 -0.0518  0.0271  0.2380
 9696W        W26170   1.963   1.582  15.992  0.1702  0.1823 -0.0284
 9697W        W26171   1.866   3.439   3.301 -0.2132 -0.3019  0.0188
 9698W        W26172  13.920  15.753   5.659  0.0626 -0.0755 -0.0420
 9699W        W26173   2.312   5.456  13.621 -0.1070  0.3151 -0.0890
 9700W        W26174  12.351   2.231   0.548  0.1575  0.4384 -0.1197
 9701W        W26175  12.029   8.874   4.194 -0.2497 -0.1292 -0.0766
 9702W        W26176   0.934   2.675  10.647 -0.0442 -0.1797  0.0873
 9703W        W26177   8.848   4.335   1.891  0.1980  0.0285  0.0286
 9704W        W26178   4.776   6.606   2.443 -0.1571  0.1637 -0.1705
 9705W        W26179   4.025   6.286   4.215  0.3419 -0.1603  0.2330
 9706W        W26180  11.463  11.837  14.079  0.2309 -0.3222 -0.0540
 9707W        W26181  13.274   6.387   0.767 -0.0464 -0.1114 -0.2108
 9708W        W26182  17.327   2.419   2.497 -0.0054  0.1973 -0.0289
 9709W        W26183  12.955   8.575  12.736 -0.0421 -0.1965 -0.0332
 9710W        W26184   0.132   5.819   3.175 -0.1266 -0.1908  0.1849
 9711W        W26185   0.491  11.344   3.688  0.0599 -0.3592 -0.0333
 9712W        W26186   4.699  17.999  16.059 -0.1155 -0.0936  0.0801
 9713W        W26187   8.912   8.690  12.497  0.1273  0.2791  0.0970
 9714W        W26188   8.553  15.835   0.331 -0.0322  0.2487 -0.0716
 9715W        W26189  13.142  15.134   4.412 -0.2928  0.2744 -0.4916
 9716W        W26190  17.257  18.164   0.780  0.0656  0.0483 -0.0011
 9717W        W26191  10.850  14.048   4.696  0.3317  0.0335  0.0209
 9718W        W26192  17.953  10.639   3.245 -0.3154 -0.1058 -0.0315
 9719W        W26193  16.574   9.827   0.153  0.0197  0.1412  0.1557
 9720W        W26194   6.625   2.889   5.116  0.0196 -0.0865 -0.1104
 9721W        W26195  15.245  12.011  14.537  0.0401  0.0249 -0.0962
 9722W        W26196  16.709  18.111   2.765 -0.1050 -0.1551 -0.1918
 9723W        W26197   2.834   2.226   5.687 -0.1538 -0.1187  0.2847
 9724W        W26198   5.919  12.815   0.794  0.0602  0.1115  0.0989
 9725W        W26199   0.667  18.143  14.776 -0.0131 -0.1417  0.3274
 9726W        W26200   6.367   5.672  12.479  0.2178 -0.2795 -0.0176
 9727W        W26201   7.542  11.470   0.878 -0.2139 -0.1920 -0.1607
 9728W        W26202  12.643   2.655  14.927 -0.0660 -0.2047 -0.2513
 9729W        W26203  13.236   9.885   1.677  0.0706 -0.0009  0.0432
 9730W        W26204  12.132  14.790   1.675 -0.4084  0.0735  0.0555
 9731W        W26205   3.197   8.700   4.009 -0.0483  0.1921  0.2072
 9732W        W26206   1.500  15.536   3.146  0.2406  0.0606  0.0596
 9733W        W26207   0.765   1.492  11.255 -0.2442 -0.1235  0.2076
 9734W        W26208   4.095   2.984  15.508  0.0761 -0.2021  0.2521
 9735W        W26209  15.666  17.163  11.662  0.2054 -0.1011  0.3233
 9736W        W26210  16.687  16.593  13.314 -0.0089 -0.1974  0.0109
 9737W        W26211   4.274  10.068  15.311 -0.0843  0.0684  0.2081
 9738W        W26212  14.214   1.917   3.254  0.0065  0.2481 -0.0174
 9739W        W26213  14.573  16.006  11.708  0.2522  0.0938 -0.0345
 9740W        W26214  11.921   8.480  11.801  0.0456 -0.3371 -0.1253
 9741W        W26215   7.049   1.786   5.241  0.0392  0.0175 -0.0425
 9742W        W26216  12.897   3.838  11.749  0.0441 -0.1350 -0.0084
 9743W        W26217  16.926   8.811   0.423 -0.0274  0.0448 -0.1343
 9744W        W26218   9.781   5.663   3.881  0.2343  0.1795  0.1991
 9745W        W26219  11.870  15.264  15.987 -0.0947  0.0542 -0.0581
 9746W        W26220  13.687   7.220  11.321 -0.0431 -0.0246  0.5048
 9747W        W26221   2.905  16.274   2.469 -0.0271 -0.0774  0.0032
 9748W        W26222  12.330  14.224   3.928  0.1789  0.0797 -0.2059
 9749W        W26223   9.526   9.697  12.191  0.1331  0.0111 -0.1286
 9750W        W26224  14.361   1.113   0.619  0.1080  0.0048  0.0091
 9751W        W26225  14.557   3.522  14.639 -0.0648 -0.1885  0.1422
 9752W        W26226   9.070  16.594   2.819 -0.0227  0.2473  0.2206
 9753W        W26227   6.254   5.901  11.625  0.3576 -0.0298 -0.1004
 9754W        W26228   3.416  15.711  11.563 -0.0184  0.0968 -0.0008
 9755W        W26229   9.296   4.848   2.094 -0.1338  0.1624  0.0579
 9756W        W26230  12.531   3.280   1.915 -0.1564 -0.0597  0.0319
 9757W        W26231   3.636  10.548   1.730  0.1315 -0.0151 -0.0774
 9758W        W26232   0.740   1.305  12.464 -0.2642  0.0726 -0.1370
 9759W        W26233   2.545   0.166   1.038  0.0043  0.0613  0.1548
 9760W        W26234   2.468  12.568  12.891 -0.0461  0.2844  0.2442
 9761W        W26235  14.430   0.120  15.484  0.0768 -0.0655  0.2311
 9762W        W26236   6.834   3.872   3.836 -0.2645  0.0129 -0.0466
 9763W        W26237   0.726  12.104  12.857  0.0253  0.0686  0.4704
 9764W        W26238  17.041   1.760   4.611 -0.3561 -0.0017  0.3450
 9765W        W26239   1.829   8.411   3.861  0.0415 -0.0798 -0.0692
 9766W        W26240  17.404   2.901   2.748  0.0194  0.0512  0.3473
 9767W        W26241  17.036  13.919  16.048 -0.0411 -0.0253  0.1585
 9768W        W26242   5.662   1.307   9.723  0.2290  0.0279  0.3961
 9769W        W26243   2.610   8.790   1.061  0.1565 -0.1649 -0.1700
 9770W        W26244  16.482  14.309   5.591  0.1575 -0.0024  0.0684
 9771W        W26245   2.787   6.415  12.392  0.0162  0.0513 -0.1723
 9772W        W26246  14.396   1.880   1.224  0.0836  0.0320  0.0012
 9773W        W26247  13.750   1.023   2.594  0.0616 -0.2536 -0.0621
 9774W        W26248   7.145   1.373   4.844 -0.0206  0.0047  0.0688
 9775W        W26249   7.405   7.387  14.660 -0.2014 -0.0677 -0.1102
 9776W        W26250  12.185   7.752  11.419  0.2726 -0.0305 -0.0235
 9777W        W26251  15.460   7.955  16.186 -0.1555 -0.1840 -0.1035
 9778W        W26252   7.747  14.495   0.333  0.0563 -0.1752 -0.3210
 9779W        W26253   3.612  11.672   5.188 -0.4190 -0.1260 -0.3041
 9780W        W26254  15.229  12.699  15.164  0.0396 -0.0450 -0.2222
 9781W        W26255   0.465  17.369  10.938 -0.2091  0.1105 -0.1459
 9782W        W26256   4.224  12.011   0.259  0.1787 -0.2661 -0.1278
 9783W        W26257   4.991  13.297  10.104  0.0051  0.0239 -0.1859
 9784W        W26258   3.393  17.819  16.319 -0.2237  0.0645  0.1000
 9785W        W26259   3.170  10.396  15.167  0.1350 -0.0240 -0.1827
 9786W        W26260  14.328  15.121   3.805 -0.1536  0.0605  0.1249
 9787W        W26261   3.371  17.439  15.638  0.0034  0.0515  0.2006
 9788W        W26262   3.608  13.591   0.457  0.0843 -0.3618  0.0052
 9789W        W26263  13.163   3.668   4.482  0.0222  0.1786 -0.0590
 9790W        W26264   6.386   5.102   2.061 -0.0701  0.0759  0.0104
 9791W        W26265   8.557   6.609   1.876  0.1672 -0.3953 -0.2883
 9792W        W26266  16.392   5.801  12.052  0.2715  0.0808 -0.2150
 9793W        W26267  12.333   9.222  11.835  0.1412 -0.2047 -0.0073
 9794W        W26268  17.268   1.160   4.581  0.2238  0.1670 -0.0717
 9795W        W26269  16.303   5.113   6.035  0.3887  0.2034  0.2422
 9796W        W26270  15.134   6.396   4.472 -0.0620 -0.0296 -0.1295
 9797W        W26271  10.372  10.357   3.245  0.1314  0.3669 -0.0304
 9798W        W26272   6.534  14.548   3.592 -0.0991  0.0161 -0.3175
 9799W        W26273   7.157   3.270  13.668  0.0985  0.2799 -0.1080
 9800W        W26274   7.956   2.407   1.636  0.2061 -0.0002  0.2583
 9801W        W26275   9.056   7.961  13.173 -0.0207  0.0072 -0.3630
 9802W        W26276  11.955   3.822  14.670  0.2547  0.2338  0.0138
 9803W        W26277  11.985   4.139   5.664 -0.0515 -0.1840  0.2636
 9804W        W26278  17.681  11.036   1.765  0.0576  0.1611 -0.1896
 9805W        W26279   7.204  12.048  13.808 -0.0321  0.0540 -0.3088
 9806W        W26280   7.034   7.170   1.503 -0.0313 -0.1943 -0.2012
 9807W        W26281  11.636   4.283  14.111 -0.2766 -0.1820  0.0830
 9808W        W26282   5.606   6.290   0.432 -0.2842 -0.1407 -0.1295
 9809W        W26283   6.483   6.013   4.806 -0.1705 -0.0814  0.0742
 9810W        W26284   7.048  17.725   4.446 -0.1641  0.1373  0.0066
 9811W        W26285  12.697   4.423  13.074  0.0523  0.2046  0.1414
 9812W        W26286  13.313  17.172  12.888 -0.2419  0.2230 -0.0092
 9813W        W26287   8.530   4.113   4.426  0.1229  0.1025 -0.0849
 9814W        W26288   1.812  17.437   1.553 -0.2795 -0.0747 -0.0699
 9815W        W26289   3.734  11.288   0.067 -0.2417 -0.2534  0.0182
 9816W        W26290   0.308   4.876   5.700 -0.0998 -0.1923 -0.0914
 9817W        W26291   9.539   6.782  16.316  0.0483  0.1231 -0.4194
 9818W        W26292   5.457   1.869  14.606  0.1253 -0.1794  0.0363
 9819W        W26293  11.066  14.937   2.192 -0.1543  0.1092 -0.3576
 9820W        W26294   7.491   7.476  12.320 -0.1832 -0.0672  0.0264
 9821W        W26295  12.605   7.154   4.299  0.0116 -0.6553  0.1156
 9822W        W26296  17.381   9.205  16.162  0.0637  0.1928  0.0170
 9823W        W26297  14.743   8.422  14.583  0.3218  0.1035 -0.2082
 9824W        W26298   4.127  11.234   5.654 -0.0402 -0.1102 -0.0904
 9825W        W26299  15.719   6.881  14.925 -0.1116  0.2146 -0.0191
 9826W        W26300   3.879   7.720   4.835  0.2138  0.0908  0.1679
 9827W        W26301  13.344   1.106  11.959 -0.4328  0.1294 -0.0098
 9828W        W26302   3.681  10.209  16.092  0.1130  0.0923 -0.1808
 9829W        W26303   0.716  11.163   5.187 -0.4156 -0.0906  0.1115
 9830W        W26304  16.033  14.420   2.306  0.1822  0.1443 -0.2410
 9831W        W26305   1.158   6.935  12.244 -0.0048  0.0377  0.1286
 9832W        W26306  16.579   9.903   5.948  0.1369 -0.1560  0.0017
 9833W        W26307  15.890  17.888   3.835  0.2124  0.2587  0.0116
 9834W        W26308   8.904  10.109  10.517  0.2972  0.0661 -0.0551
 9835W        W26309   7.582   5.896  16.331 -0.2254 -0.0664 -0.0744
 9836W        W26310  13.019   4.714  11.742 -0.0883 -0.1183 -0.3902
 9837W        W26311   3.350  16.751   5.697  0.4140  0.1858 -0.0662
 9838W        W26312   6.637   3.994   4.332  0.2645  0.1227 -0.0968
 9839W        W26313  11.510   9.713   4.014  0.0809  0.0040 -0.0913
 9840W        W26314   4.218   8.719  13.151 -0.1419 -0.0775  0.0036
 9841W        W26315   2.605   8.714  13.470  0.0167 -0.1617 -0.0423
 9842W        W26316   5.451  15.961  15.702 -0.0643  0.2350 -0.3680
 9843W        W26317   0.512   9.809   3.158  0.0831  0.2608 -0.0836
 9844W        W26318   4.016  17.359   3.805 -0.2129 -0.1749  0.1965
 9845W        W26319  13.564   6.864  12.718 -0.0815 -0.1417 -0.3925
 9846W        W26320   0.431   1.731   3.132  0.2604 -0.0923 -0.1432
 9847W        W26321  12.369   8.690   5.838 -0.4036  0.0909  0.0163
 9848W        W26322   2.187  10.240  11.915  0.0928  0.2310  0.2252
 9849W        W26323   9.385  12.987   3.281  0.0005  0.0862 -0.2936
 9850W        W26324   0.551  15.182   6.086 -0.1548 -0.1172  0.0280
 9851W        W26325   1.726  10.473   1.439  0.1918  0.1223 -0.2152
 9852W        W26326  10.229   0.747  14.760  0.0240 -0.0678 -0.0989
 9853W        W26327   4.350  15.542  13.259 -0.1562 -0.2068 -0.1206
 9854W        W26328   6.998  10.231  11.347 -0.2630  0.0375  0.1340
 9855W        W26329   3.871   0.641  15.440 -0.1645  0.0709  0.0261
 9856W        W26330  14.579   2.454   0.589 -0.1513 -0.1878 -0.2967
 9857W        W26331  12.099   6.418   3.896 -0.3068  0.0665  0.2114
 9858W        W26332   0.572  16.058   1.788  0.2857  0.2431  0.1108
 9859W        W26333   9.517  17.861   0.524 -0.2183  0.1464  0.0915
 9860W        W26334  13.053  15.605   0.753  0.0431  0.1061  0.1686
 9861W        W26335  16.902   4.934  13.067 -0.0027 -0.2354  0.1843
 9862W        W26336   4.984  15.731  15.686  0.1862 -0.1014 -0.0875
 9863W        W26337   8.224  17.104   2.031 -0.1700  0.1142 -0.1169
 9864W        W26338   2.039  16.246   0.781 -0.0043  0.1029 -0.0368
 9865W        W26339   9.804  17.504  15.625  0.2758  0.2303 -0.0621
 9866W        W26340  17.220   4.883  11.454 -0.0112  0.0986 -0.1249
 9867W        W26341  16.346  15.498  11.832  0.2878  0.0974 -0.1025
 9868W        W26342  10.567  18.112   0.620  0.2086  0.1099 -0.4427
 9869W        W26343   7.358   0.960   5.245  0.2844 -0.1925 -0.0503
 9870W        W26344   4.235   3.592  11.423  0.1389  0.1553  0.0190
 9871W        W26345   1.741   2.344  15.493  0.1286 -0.2818  0.2170
 9872W        W26346  15.717  12.547   0.486 -0.1870 -0.3010  0.0139
 9873W        W26347  17.381   9.049  13.478  0.0113  0.2377 -0.2623
 9874W        W26348   1.848   4.071   0.653  0.0693  0.0418  0.0818
 9875W        W26349   3.383  15.476   5.434  0.1383  0.1046  0.0209
 9876W        W26350  13.302   4.090  11.866 -0.0522  0.1686 -0.2831
 9877W        W26351  17.184   6.794   4.480 -0.2243 -0.1302  0.0946
 9878W        W26352   5.312   6.270  11.672 -0.1307  0.1485 -0.1810
 9879W        W26353   0.826   6.431   3.128 -0.2496 -0.0368 -0.2152
 9880W        W26354  14.632   1.931  11.683 -0.1214 -0.0401  0.0639
 9881W        W26355  13.556  10.437  13.100 -0.0159  0.2405 -0.0144
 9882W        W26356  12.000  12.465   3.685  0.3296  0.1871 -0.0823
 9883W        W26357   1.542  15.230   4.358 -0.0977  0.0424  0.0594
 9884W        W26358   9.565   9.063  14.104 -0.2053  0.2442  0.0734
 9885W        W26359   4.361   1.662   4.666  0.1340  0.0249  0.0807
 9886W        W26360  17.104  14.224   1.758  0.3762 -0.5009 -0.2853
 9887W        W26361   0.629   8.808   4.806 -0.1361  0.1990 -0.0951
 9888W        W26362   4.242   3.255  12.329 -0.0785 -0.0363  0.1091
 9889W        W26363   5.842   9.305  12.650 -0.3519  0.4216 -0.1238
 9890W        W26364   9.073   5.134  16.297 -0.2538  0.3795  0.1684
 9891W        W26365  14.242   6.005   1.355  0.0114  0.0360 -0.1024
 9892W        W26366   2.986   1.060   1.130 -0.1251 -0.2142 -0.1718
 9893W        W26367  11.061   1.880   2.493 -0.0376  0.2823 -0.0626
 9894W        W26368   4.697  11.325   1.244 -0.1283  0.2978 -0.1091
 9895W        W26369  18.007  12.925   3.414  0.4386  0.2709 -0.0127
 9896W        W26370   6.201   1.130   2.311  0.2285  0.1692  0.0570
 9897W        W26371  13.749  14.493   5.229 -0.0525 -0.0638 -0.0761
 9898W        W26372   9.801  10.194  13.791 -0.0771  0.2243 -0.2431
 9899W        W26373   6.989  13.427   2.229  0.1138 -0.0173 -0.0712
 9900W        W26374   2.775  11.419   3.542  0.2033 -0.0387  0.1132
 9901W        W26375   2.883   3.359  14.979 -0.0996  0.1557  0.0993
 9902W        W26376   3.734   0.612  11.632  0.3272  0.0028 -0.1271
 9903W        W26377   4.368   2.359  14.875  0.1554  0.1470  0.0351
 9904W        W26378  17.249   3.400   1.174 -0.2467  0.1764 -0.3421
 9905W        W26379  16.497   7.852  14.016 -0.0033 -0.2126 -0.2103
 9906W        W26380   5.926   0.692  14.514  0.1904  0.3475 -0.2514
 9907W        W26381  11.797  17.866   5.329 -0.0572  0.1603 -0.2163
 9908W        W26382   0.914   3.415  13.304  0.1362  0.1839  0.2119
 9909W        W26383  10.998   6.656   4.523 -0.1457  0.0689 -0.1279
 9910W        W26384   4.854  17.993  12.999 -0.2000 -0.1003 -0.1149
 9911W        W26385  12.093  14.494   4.327  0.0410  0.0395  0.1100
 9912W        W26386  16.381  10.262  11.191 -0.0678 -0.0421 -0.2406
 9913W        W26387  13.625  16.057  13.067 -0.0338  0.1311 -0.2039
 9914W        W26388   2.455  17.712  15.647 -0.0952  0.1077  0.2873
 9915W        W26389   0.836   5.101  11.763  0.1884  0.3056 -0.1270
 9916W        W26390   5.872  15.499   1.537 -0.4294 -0.3868  0.2641
 9917W        W26391  13.857   5.747  13.661 -0.3581 -0.0160 -0.3860
 9918W        W26392  10.735  14.035  10.483  0.0634 -0.2170  0.0909
 9919W        W26393  11.279  18.037   3.277 -0.2953 -0.3023 -0.0361
 9920W        W26394  13.542  17.338  12.481  0.0399  0.3571  0.2896
 9921W        W26395  10.260  11.921   0.086 -0.4222 -0.2876  0.1170
 9922W        W26396  14.238   6.243   0.902 -0.1272  0.0065 -0.0628
 9923W        W26397   8.019   7.559   4.904 -0.1830  0.3967  0.3111
 9924W        W26398  14.801  13.977  14.719 -0.1256 -0.1495  0.0494
 9925W        W26399   0.162  10.577   3.590 -0.0871 -0.2333  0.1302
 9926W        W26400   1.997  10.327  14.676  0.3699  0.0183  0.1623
 9927W        W26401  16.407  15.770   5.797  0.3054 -0.2520  0.3588
 9928W        W26402  15.963  17.500   2.891 -0.1200 -0.2143  0.0717
 9929W        W26403   2.810   2.457   0.518 -0.0434 -0.0280  0.2075
 9930W        W26404   2.920   3.655   1.379  0.0066 -0.1686  0.1757
 9931W        W26405  16.792  13.212  11.046  0.0945 -0.1829  0.2846
 9932W        W26406   5.810   5.793  13.334  0.2636  0.0324 -0.1463
 9933W        W26407   2.515  14.751  14.784 -0.0163 -0.2362 -0.0609
 9934W        W26408   1.870   2.560   3.660  0.1744  0.0794 -0.2473
 9935W        W26409   5.738   8.764  15.964  0.0065  0.1766 -0.0378
 9936W        W26410   6.627  10.821   4.212  0.1922  0.2316 -0.1084
 9937W        W26411  14.913  12.067  13.186 -0.0823  0.1023  0.0841
 9938W        W26412  13.124  14.185   0.792  0.3532  0.0643 -0.0055
 9939W        W26413  12.293  18.177   0.853 -0.1801  0.0654  0.3022
 9940W        W26414   1.546  14.057   5.048  0.0703 -0.1615 -0.0877
 9941W        W26415  12.304  12.055   2.774 -0.0306 -0.0149 -0.0930
 9942W        W26416   5.752   8.475   2.965 -0.1271  0.1512  0.1818
 9943W        W26417   1.258   5.042  14.586 -0.1011  0.0733 -0.1421
 9944W        W26418   5.840  13.573  12.594  0.1810 -0.1197  0.3151
 9945W        W26419   1.581  12.002  15.974  0.2368  0.0628  0.3032
 9946W        W26420   2.900   0.958  14.245  0.0090 -0.3071  0.0797
 9947W        W26421  11.197   0.278   3.010  0.1275 -0.2716  0.1526
 9948W        W26422   7.560   0.218   2.710 -0.1769 -0.2295 -0.2849
 9949W        W26423  10.086   1.752   4.237  0.2647 -0.1348 -0.3325
 9950W        W26424   8.020   2.093   2.118  0.2627 -0.3366 -0.2635
 9951W        W26425  13.083  12.549   0.570  0.0945 -0.0141 -0.4606
 9952W        W26426  13.815  11.675  13.317  0.0403  0.0022 -0.2601
 9953W        W26427   1.014   2.979  15.210  0.0211 -0.0104  0.3887
 9954W        W26428   0.148  14.646   1.171  0.2155 -0.2966  0.0277
 9955W        W26429   1.014  16.726  12.670 -0.1590  0.0615 -0.1034
 9956W        W26430  13.498  16.504   3.298 -0.1245 -0.3198 -0.0757
 9957W        W26431  17.332   7.794   2.562  0.0266  0.1568  0.0518
 9958W        W26432   9.193   0.567   1.128  0.1261 -0.0911  0.2557
 9959W        W26433  14.716  15.479   0.707 -0.1889  0.1134 -0.0279
 9960W        W26434  14.695   9.351  11.472  0.0216 -0.2023 -0.1078
 9961W        W26435   0.641  17.273   4.920 -0.0525 -0.1394  0.2541
 9962W        W26436  13.695   4.848   2.290 -0.0374  0.0288  0.1493
 9963W        W26437   6.676   4.857  16.059 -0.0360 -0.0480 -0.2793
 9964W        W26438  12.553  15.659   0.986 -0.0911  0.0078  0.2301
 9965W        W26439   2.306   0.289   4.580  0.2475  0.2746  0.0113
 9966W        W26440  11.148   9.981  15.457  0.1565 -0.3023 -0.0872
 9967W        W26441   3.467  14.662  11.320 -0.2500 -0.0205  0.1369
 9968W        W26442   5.476  17.755  15.401 -0.0589 -0.3597  0.0290
 9969W        W26443   9.057  11.379  13.055 -0.0921 -0.1424  0.0932
 9970W        W26444  11.538  11.529  11.739 -0.1629 -0.0786  0.2423
 9971W        W26445   4.189  14.606  12.450 -0.1111 -0.6123 -0.3485
 9972W        W26446   7.301   6.005  12.317 -0.0423  0.2706  0.2770
 9973W        W26447   9.854   2.584   1.464  0.1182 -0.0254 -0.0391
 9974W        W26448   0.275  12.343  11.766  0.2484 -0.0829  0.0548
 9975W        W26449   2.798  10.768  15.053  0.0359 -0.2145 -0.0800
 9976W        W26450   5.288  12.570   2.029 -0.0518  0.1433  0.1369
 9977W        W26451  16.731   5.637   3.728  0.2190 -0.0300 -0.0130
 9978W        W26452  14.177   6.003  15.947 -0.2012  0.1435 -0.2926
 9979W        W26453   2.685  14.267   4.057  0.1153  0.0700 -0.0950
 9980W        W26454  16.589   8.385  12.507  0.0192 -0.0370 -0.2453
 9981W        W26455  14.858   6.905   0.494 -0.0286 -0.0944 -0.5047
 9982W        W26456  12.428   3.094  11.401  0.1774 -0.0799  0.0127
 9983W        W26457   7.101   0.196  16.142  0.1821 -0.0664 -0.0055
 9984W        W26458  13.589   6.029   5.754 -0.1873  0.1109  0.0988
 9985W        W26459   0.911   0.748   3.585 -0.1157  0.1479  0.1561
 9986W        W26460   7.884  12.740   5.513  0.0224  0.3979  0.1176
 9987W        W26461  11.204   8.990   0.331  0.2865  0.1198 -0.3650
 9988W        W26462  14.559  12.226  15.780  0.1849  0.0216  0.2031
 9989W        W26463  12.627  12.895   0.540 -0.1009 -0.1363  0.1757
 9990W        W26464   5.382   5.756  14.178 -0.0388 -0.0817 -0.2373
 9991W        W26465   9.905   1.385   3.894  0.2269  0.3316  0.0837
 9992W        W26466   4.126  13.431   0.966 -0.2810 -0.0419 -0.1055
 9993W        W26467   3.615   5.568   4.876  0.1615 -0.1547 -0.1124
 9994W        W26468  14.228   8.445   4.346  0.0965 -0.1677 -0.0234
 9995W        W26469   7.327  12.747   3.734  0.3355  0.0637  0.2432
 9996W        W26470  12.327   0.694  15.727  0.1183  0.3554  0.1957
 9997W        W26471   9.079  11.739  12.698  0.0067  0.0802  0.0368
 9998W        W26472  15.122   5.901   4.655  0.0235  0.1547 -0.0037
 9999W        W26473  16.503  12.237  13.722 -0.1125 -0.0717 -0.1036
10000W        W26474   6.670  11.364   2.475  0.1156 -0.2531 -0.3258
10001W        W26475   2.462  16.272   3.371  0.3290  0.2916  0.2931
10002W        W26476   7.930   4.438   4.552  0.2968 -0.0278  0.0443
10003W        W26477  15.512  13.641   5.203  0.0740 -0.2082 -0.0172
10004W        W26478  11.273   7.993   5.124  0.0993  0.0834 -0.0013
10005W        W26479   9.146  14.993   3.881 -0.1726 -0.1207 -0.3148
10006W        W26480   6.414  12.773   0.677 -0.1367  0.3094 -0.0791
10007W        W26481   6.559   7.091  13.309 -0.2661  0.0665 -0.0669
10008W        W26482   3.358  11.435  14.233  0.2943 -0.0050 -0.2018
10009W        W26483   4.184   5.033  14.824  0.2074  0.1418  0.0674
10010W        W26484  10.841  12.015  12.969 -0.1183 -0.0161  0.2467
10011W        W26485   2.992   7.849   2.385  0.1527  0.3669  0.0664
10012W        W26486   9.162   1.378   2.400 -0.5098 -0.2641  0.4577
10013W        W26487   7.092   1.566  15.730  0.2896  0.0436  0.0646
10014W        W26488  13.216   8.926   4.016  0.2281  0.1237 -0.0697
10015W        W26489   9.210   4.417  13.449 -0.0283  0.1690  0.2171
10016W        W26490   4.261  17.416   2.209  0.3954 -0.1578  0.0648
10017W        W26491  12.733  12.060   3.848 -0.2495 -0.0314 -0.4482
10018W        W26492   0.455   3.939  11.884 -0.1897 -0.1626  0.0987
10019W        W26493   0.720   5.230  12.456 -0.1985 -0.2524 -0.0813
10020W        W26494   7.710  16.668   4.519 -0.1565 -0.0117  0.2343
10021W        W26495   6.246   1.606  13.123  0.2683 -0.0746  0.2148
10022W        W26496  14.930  18.067  12.326  0.0882  0.2694 -0.1320
10023W        W26497  16.523  13.263  14.273  0.0376 -0.0214 -0.1565
10024W        W26498   4.342   2.025  12.100 -0.0256 -0.0593  0.0794
10025W        W26499   3.716   5.412   4.324 -0.2302  0.0930 -0.0899
10026W        W26500   9.400  10.090  11.792 -0.0899 -0.1320 -0.2222
10027W        W26501   9.161  13.807  13.275 -0.1866 -0.0566 -0.0701
10028W        W26502  10.360   8.108  13.376  0.0416 -0.1724 -0.2343
10029W        W26503   3.971  14.760  15.543 -0.0693 -0.1965  0.2975
10030W        W26504   1.768  13.605   1.438  0.0119 -0.1785 -0.1206
10031W        W26505   5.349   7.763  15.632  0.1811  0.0823 -0.0756
10032W        W26506   6.007  17.829  14.221  0.0567  0.1099 -0.0816
10033W        W26507   3.133   8.619  13.742 -0.1774  0.1590 -0.3034
10034W        W26508  17.119  11.374   4.404 -0.2000 -0.1111  0.2170
10035W        W26509   1.918   1.304  12.561 -0.3142  0.1206  0.0924
10036W        W26510   7.493   8.222   4.276  0.0876  0.3956 -0.1149
10037W        W26511  16.589  10.689   2.689  0.2543 -0.3105  0.2033
10038W        W26512   9.879  14.914   1.212 -0.0177 -0.1443  0.1530
10039W        W26513   6.797   0.592  15.025  0.1516 -0.0044  0.0683
10040W        W26514  11.172   0.896  14.599 -0.1619 -0.1615  0.0629
10041W        W26515   7.373   4.839   3.224  0.0120 -0.0552 -0.0436
10042W        W26516  18.063  12.120  14.327 -0.0815  0.3711  0.0028
10043W        W26517  12.091   8.090  14.224  0.0067 -0.1574 -0.1316
10044W        W26518  17.033   4.723   2.521  0.0025  0.2901 -0.1943
10045W        W26519   3.503   9.291   0.195  0.1109 -0.2085  0.2312
10046W        W26520  14.581   9.204  12.070 -0.2521 -0.1623  0.0141
10047W        W26521  11.210   4.701  11.739  0.1488 -0.0733  0.1474
10048W        W26522  12.162  14.295   2.254 -0.1218 -0.3022  0.3513
10049W        W26523   5.001  14.843  13.347  0.3010  0.0476 -0.0055
10050W        W26524  14.254  18.160  15.939  0.0323 -0.1542 -0.2383
10051W        W26525  14.057   0.595  11.420  0.0803  0.0257 -0.0432
10052W        W26526  14.888  14.483  16.140  0.0967  0.1705  0.1939
10053W        W26527  13.213   1.263   3.887  0.1673 -0.0551  0.0907
10054W        W26528  13.498  12.967   2.633 -0.1213  0.2432 -0.1101
10055W        W26529  14.338   4.298  14.824  0.2553 -0.0286 -0.0189
10056W        W26530   5.816  17.971   5.219  0.2024  0.1933 -0.0221
10057W        W26531   3.739   9.115   3.178  0.0680  0.2143 -0.0571
10058W        W26532  10.214  15.684   5.167  0.2803  0.1386  0.1380
10059W        W26533  11.696  17.324   1.352  0.0134 -0.0757  0.1987
10060W        W26534   6.784  15.204   3.611  0.0692 -0.3238 -0.0762
10061W        W26535   1.550   7.732  15.745 -0.2742  0.0184 -0.2087
10062W        W26536  15.761   9.318   4.469 -0.0835 -0.1769  0.0849
10063W        W26537  17.015  16.397  12.001  0.2226 -0.0098 -0.0370
10064W        W26538  15.688  14.272  15.931 -0.0674 -0.2138  0.1182
10065W        W26539   2.890  17.137   4.425  0.0452  0.0309  0.0148
10066W        W26540  14.344   8.814  15.970  0.2926 -0.2890  0.1939
10067W        W26541   6.703  15.615   4.333 -0.0884  0.0860  0.2621
10068W        W26542   3.327   9.785   3.609 -0.1806  0.0010  0.2662
10069W        W26543   6.128  17.064   3.280 -0.2414  0.2821  0.1472
10070W        W26544  14.365  10.189  12.612 -0.0687 -0.1624 -0.1714
10071W        W26545  10.470   0.820   2.423 -0.2881  0.1041  0.1120
10072W        W26546  12.546   9.575  14.030  0.0826  0.0373  0.1101
10073W        W26547   9.719   4.930   5.057  0.1375 -0.0977  0.2531
10074W        W26548  11.335   7.204   2.660 -0.4998 -0.3125 -0.0872
10075W        W26549   4.426   4.702  14.547  0.0983 -0.0730  0.0036
10076W        W26550  11.205  15.191   4.962 -0.1542 -0.2598 -0.0418
10077W        W26551   8.888   8.947   4.310 -0.1110  0.4202 -0.0126
10078W        W26552   7.935  11.733  15.622  0.2058  0.0098  0.3358
10079W        W26553  12.583  13.079  13.062 -0.0441  0.0936 -0.2993
10080W        W26554  11.791   4.591   5.347  0.0736  0.2218  0.0518
10081W        W26555  13.178   2.274   3.589  0.0419 -0.0317  0.0965
10082W        W26556   9.277  15.846  11.923 -0.0361  0.0596 -0.1170
10083W        W26557  14.274  11.669   3.938 -0.2548 -0.1212 -0.1552
10084W        W26558  16.002   4.973   4.328  0.1232  0.2131 -0.1117
10085W        W26559   4.753   4.445   5.991  0.3580 -0.0937 -0.2129
10086W        W26560   1.815   6.727   4.553 -0.0356  0.0613 -0.1374
10087W        W26561   8.131  13.678  11.269  0.0918 -0.1310 -0.0159
10088W        W26562   7.318   7.757   4.518 -0.0092 -0.0029  0.1087
10089W        W26563  13.050  17.742   4.494 -0.1139 -0.2959 -0.0303
10090W        W26564   7.455   4.761  15.500 -0.1071  0.0905 -0.1051
10091W        W26565   1.723  15.459   2.547  0.1148  0.1158  0.2684
10092W        W26566  16.185   2.572   3.040  0.2511  0.0665 -0.0067
10093W        W26567   7.232  13.755   3.557 -0.2882 -0.0350  0.1092
10094W        W26568   1.872   0.292  16.349  0.0535 -0.2650 -0.4032
10095W        W26569  14.364   2.618  12.181  0.1204 -0.0400  0.2720
10096W        W26570  11.449   7.892   3.757 -0.0829  0.2583 -0.1246
10097W        W26571   0.038  13.255  15.374 -0.1768  0.1659 -0.0468
10098W        W26572   7.044  16.089   4.761  0.1548  0.2131  0.2280
10099W        W26573  16.846  11.641   0.887  0.0721  0.0631  0.1217
10100W        W26574   2.152  12.600  16.201 -0.1057  0.1204 -0.3969
10101W        W26575  14.653   1.957   0.156  0.1010 -0.1684 -0.1706
10102W        W26576  12.965   1.770   5.353  0.0337  0.0192 -0.1193
10103W        W26577  17.346  10.744  16.032 -0.1575 -0.4218  0.2559
10104W        W26578  10.915   3.679  13.205  0.1139 -0.1680  0.0198
10105W        W26579  10.318   0.558   2.787 -0.0183  0.1792 -0.1036
10106W        W26580   6.965  13.482  14.340  0.0064 -0.0404  0.0661
10107W        W26581  12.755   7.053  14.502  0.2065  0.0296  0.0560
10108W        W26582   2.806   5.749  11.752  0.0684 -0.1381 -0.0464
10109W        W26583   0.865   8.268   3.319  0.1288  0.0560 -0.0546
10110W        W26584   7.667   6.577   0.176 -0.1969 -0.0112  0.1409
10111W        W26585  17.884   5.832   4.283 -0.3031  0.0255  0.1751
10112W        W26586   3.793   7.839   1.803 -0.1654 -0.0442 -0.1884
10113W        W26587   1.486  11.980   5.856  0.0463  0.1464 -0.1871
10114W        W26588  17.589   5.978  14.788 -0.2171  0.2033  0.1130
10115W        W26589  17.202   2.624  15.216  0.0036 -0.1402  0.0301
10116W        W26590  11.645  13.408  16.238  0.1146 -0.0627 -0.1283
10117W        W26591   5.592   2.074  14.137  0.1775  0.1359 -0.0293
10118W        W26592   0.369  13.224  14.622 -0.1732 -0.0401 -0.0191
10119W        W26593   4.673   9.307   2.619  0.0272 -0.2388 -0.1437
10120W        W26594  12.914  11.474   1.868  0.1815 -0.1552 -0.1349
10121W        W26595  13.200  10.453  14.217  0.1244 -0.0408  0.2667
10122W        W26596  14.671   5.466   2.014  0.3008  0.0123 -0.2451
10123W        W26597  17.272  11.893  13.860 -0.1124  0.1515 -0.1937
10124W        W26598   1.737  12.785   0.609 -0.1392 -0.1698  0.2307
10125W        W26599   2.241   4.990   0.990 -0.0915 -0.0790 -0.2025
10126W        W26600  12.252  16.572   2.565  0.2526  0.1913 -0.0491
10127W        W26601  13.700  10.747   1.060 -0.0610 -0.0128 -0.2034
10128W        W26602   4.763   2.789  16.303  0.2131  0.1945  0.2533
10129W        W26603  13.467  14.048  13.536  0.0455 -0.1230 -0.1218
10130W        W26604   1.886  10.881   2.573 -0.1461 -0.1432  0.2710
10131W        W26605  10.917   5.358   5.506  0.1708 -0.1731 -0.0409
10132W        W26606  13.920   0.031  14.713  0.1389  0.1056  0.2078
10133W        W26607   2.563  14.751   1.596  0.0416 -0.3537 -0.3379
10134W        W26608   2.490   3.312  14.085  0.0892  0.0653 -0.0465
10135W        W26609  16.325   1.528  11.497 -0.1268  0.1094  0.0170
10136W        W26610   7.443   2.223  14.998 -0.1779 -0.1545  0.0820
10137W        W26611   2.907   7.993  11.973  0.1054 -0.0817  0.0705
10138W        W26612   7.194   7.163   0.994 -0.0243 -0.0613  0.2884
10139W        W26613  14.931   6.859   3.597  0.0360 -0.1689 -0.0177
10140W        W26614   8.298  17.998  15.092 -0.0014 -0.0115 -0.2986
10141W        W26615   9.098  16.203  13.062  0.1564 -0.1434  0.3841
10142W        W26616  16.168  10.130   0.782 -0.0547  0.0852 -0.1379
10143W        W26617   6.150   5.578  16.263  0.0699 -0.1415  0.0020
10144W        W26618   1.865   3.588   2.785 -0.1817 -0.2811 -0.1603
10145W        W26619   2.660  15.978  13.964  0.2846 -0.0881  0.0281
10146W        W26620  17.119   4.447   3.771 -0.1829  0.0167 -0.1280
10147W        W26621   6.473   3.190  11.430  0.1667  0.2246  0.1524
10148W        W26622  14.703   5.350   5.371  0.1167 -0.0128  0.0204
10149W        W26623   4.592   7.726   1.588  0.2137 -0.2504  0.6107
10150W        W26624   7.291   9.460   1.368 -0.0440  0.1210 -0.0336
10151W        W26625  17.715  12.111   0.336 -0.0058 -0.1422 -0.2775
10152W        W26626   1.313   4.212   3.601  0.1332 -0.0585  0.0462
10153W        W26627  14.431  13.453   5.446  0.1394  0.1483 -0.3046
10154W        W26628   2.713  11.623  13.479  0.0164  0.1748 -0.1405
10155W        W26629  15.413   1.598  11.294  0.1953  0.0651  0.3005
10156W        W26630  10.909  12.224   3.086  0.1539  0.0846  0.1227
10157W        W26631  10.352  16.675   0.878 -0.2369 -0.3593  0.0178
10158W        W26632  12.391   4.003  11.620  0.0553 -0.1232 -0.1163
10159W        W26633   8.916  13.270  11.781  0.0706 -0.0065  0.1183
10160W        W26634   9.975   0.731   1.293 -0.1294  0.2823 -0.2613
10161W        W26635   7.914   8.518   4.204  0.1310 -0.0097  0.3451
10162W        W26636   3.243  11.172   2.126 -0.0676 -0.1692  0.1198
10163W        W26637   2.255  13.562   2.996 -0.3336 -0.2759 -0.2491
10164W        W26638  14.080  17.692  13.363 -0.1423  0.0773  0.0217
10165W        W26639  16.358   6.557   3.674  0.1101 -0.1726 -0.2479
10166W        W26640  10.428  12.249   5.548  0.1113 -0.0089  0.3573
10167W        W26641   8.158   8.591  14.799 -0.3820 -0.0919 -0.0318
10168W        W26642  14.952  15.814  16.230  0.2482  0.0287 -0.1353
10169W        W26643   2.058   0.253   0.516 -0.0346 -0.1897  0.0604
10170W        W26644  14.951   2.147   0.586 -0.3212  0.1855 -0.2435
10171W        W26645  12.876  13.159  13.596  0.0545  0.1685  0.0210
10172W        W26646   7.489   7.184  10.987  0.3393  0.1373 -0.0077
10173W        W26647   2.369  11.151   2.529 -0.1752  0.2459 -0.0230
10174W        W26648  17.582   3.325  13.048  0.2218 -0.3008 -0.0659
10175W        W26649   5.743  16.542  15.117  0.0537  0.3459 -0.2578
10176W        W26650   7.776   5.127  15.261 -0.0107 -0.0580 -0.1048
10177W        W26651   5.732   5.219   1.213  0.5144  0.4784 -0.0971
10178W        W26652   8.343  14.482   4.282  0.1609  0.2124  0.1709
10179W        W26653  13.733  10.725   4.949  0.2820 -0.0208  0.3043
10180W        W26654  12.589  13.411   2.841 -0.1609 -0.0088 -0.0846
10181W        W26655  13.351   1.127   0.966  0.2644  0.3676  0.2900
10182W        W26656   7.864   1.868   4.839  0.1579  0.1144 -0.1679
10183W        W26657  11.062   1.181  11.601  0.2567 -0.0957 -0.0392
10184W        W26658   8.448  12.927   4.394 -0.1541  0.0530 -0.0434
10185W        W26659   4.789  17.585  16.242 -0.0896  0.2497 -0.0849
10186W        W26660  15.505  16.481  15.901  0.1082 -0.1595  0.0053
10187W        W26661  10.557   7.776   3.173 -0.0623 -0.1312 -0.2650
10188W        W26662   3.518  16.959   5.193 -0.2310  0.2246 -0.0605
10189W        W26663   0.219   8.416   0.037 -0.1919 -0.0433 -0.0596
10190W        W26664   2.011  11.919  12.256  0.1064  0.0895 -0.1434
10191W        W26665   4.508   1.483   1.232 -0.0294  0.0855 -0.0171
10192W        W26666  16.102  12.012   3.890 -0.0298 -0.4784  0.1398
10193W        W26667   4.452  17.359   3.141 -0.1403 -0.2087  0.2006
10194W        W26668  15.822  17.127   0.687  0.2464 -0.0988  0.0273
10195W        W26669   4.333   3.661   0.385 -0.0306 -0.1577  0.0047
10196W        W26670   3.095   9.319  14.359 -0.0238 -0.0107  0.1125
10197W        W26671  10.281   4.107   4.126  0.0769  0.3658  0.1886
10198W        W26672   5.444   8.776  11.755 -0.0640  0.0657  0.2733
10199W        W26673  15.848   4.747   4.790  0.1858  0.1283  0.0012
10200W        W26674   4.487   8.553  11.323  0.2169 -0.0119  0.3885
10201W        W26675   0.414   5.938  13.954  0.0345 -0.2240 -0.3148
10202W        W26676   2.209  10.864   4.251 -0.3153  0.0271  0.0131
10203W        W26677   7.965   8.254  12.959  0.2230  0.2914 -0.2126
10204W        W26678  13.033  12.473  15.655 -0.0582  0.1091 -0.0352
10205W        W26679  11.043  12.823  13.937  0.2557  0.0850 -0.0207
10206W        W26680   8.071  12.057  11.575  0.0305 -0.0517 -0.1007
10207W        W26681   9.322  10.460   4.588 -0.0176  0.2203  0.1938
10208W        W26682   4.141   4.152  11.524  0.0706  0.0155 -0.1934
10209W        W26683   3.447   2.607  16.130  0.0728 -0.5394  0.0663
10210W        W26684  14.636  14.789  15.265  0.2622 -0.5890 -0.0321
10211W        W26685   4.423  10.708   1.222 -0.2437 -0.0148 -0.1430
10212W        W26686  13.937   4.202  12.446  0.1767  0.0865 -0.3661
10213W        W26687   3.715  16.646  15.771  0.0123 -0.0899  0.2772
10214W        W26688   2.575   8.566  10.596 -0.0992  0.1266 -0.0901
10215W        W26689  14.411   4.370   0.035 -0.0462 -0.1116 -0.0087
10216W        W26690   5.180  16.384  13.826 -0.1633  0.1239  0.2061
10217W        W26691   6.268   6.157  13.238 -0.0669 -0.1766 -0.0959
10218W        W26692   3.696   3.454  11.436  0.0540  0.3795 -0.2876
10219W        W26693  17.448   5.071   4.774 -0.1379 -0.0613  0.1284
10220W        W26694  11.466   5.433  15.357  0.2177 -0.0808  0.1186
10221W        W26695   6.317   7.274  14.739  0.1726  0.3219 -0.1955
10222W        W26696  16.841   0.908  14.028 -0.1062  0.0153  0.1536
10223W        W26697   5.140   6.017   5.174  0.0316 -0.0372 -0.0361
10224W        W26698   8.194   5.368  13.055  0.3791 -0.1870  0.1452
10225W        W26699  12.098   7.760  12.627  0.0709 -0.1748  0.3146
10226W        W26700   1.434   7.161  11.891  0.2333  0.0712 -0.4923
10227W        W26701  13.433  10.478  13.747 -0.1974  0.0892 -0.2317
10228W        W26702  14.723  17.427   5.365  0.0966 -0.0490  0.3092
10229W        W26703  15.876  13.830  12.985 -0.0172 -0.1102 -0.3030
10230W        W26704   0.424   5.460  11.993  0.0626  0.1969 -0.2511
10231W        W26705   9.981   4.662   5.413 -0.1607  0.0020  0.1139
10232W        W26706   3.312   1.368   3.981 -0.3033 -0.3594 -0.0544
10233W        W26707   3.329   2.891  12.479 -0.0959  0.0714 -0.2915
10234W        W26708   2.363   7.674  14.463 -0.0950 -0.2644  0.1402
10235W        W26709  12.495   8.582   2.304 -0.1550  0.1938  0.0938
10236W        W26710   6.662  12.901   0.217 -0.0576  0.0850  0.0062
10237W        W26711  13.167  16.652  12.107  0.0223 -0.1342  0.2226
10238W        W26712  13.531  15.176   1.810  0.2301  0.0349 -0.1364
10239W        W26713   0.084   1.661  15.324  0.0900  0.2488 -0.1229
10240W        W26714  14.437   3.845  16.342  0.2677  0.2753  0.1559
10241W        W26715   5.952   7.302  13.726 -0.0759 -0.0049  0.0034
10242W        W26716  11.624  10.039   4.737 -0.3682  0.0981  0.0299
10243W        W26717   9.049   9.287   1.846 -0.0072 -0.5296 -0.2354
10244W        W26718  17.078  15.902   3.850  0.0710  0.0780  0.0261
10245W        W26719  13.133  10.699  15.292 -0.0090  0.0250  0.1450
10246W        W26720  16.296  14.040  15.328  0.0459 -0.1803 -0.3490
10247W        W26721   6.980  12.847  13.872 -0.1546  0.0960  0.4210
10248W        W26722   6.145   0.717   1.665 -0.0404  0.2887 -0.0636
10249W        W26723  11.003  17.811   5.514  0.0330 -0.1155  0.1140
10250W        W26724  16.115  10.887   5.315  0.3550 -0.0781  0.1691
10251W        W26725   1.736   4.130  14.622  0.1200  0.1991 -0.0393
10252W        W26726   9.285   6.490  14.908  0.0969 -0.1992  0.0033
10253W        W26727  10.738   6.334   1.095  0.0513 -0.1980 -0.0646
10254W        W26728   7.030   4.249  10.853 -0.4165 -0.1219  0.0297
10255W        W26729  16.133  14.848  14.837  0.2262  0.1726 -0.0177
10256W        W26730  17.970  12.678   2.868  0.0845 -0.1705  0.0191
10257W        W26731  17.253  12.718   1.947 -0.0511  0.1732 -0.2116
10258W        W26732   9.345   4.568  12.254 -0.0763 -0.0301  0.0558
10259W        W26733   2.014   4.384  12.865 -0.1050  0.2328  0.2222
10260W        W26734  15.666   6.763   5.241 -0.0304  0.0369 -0.0129
10261W        W26735   7.122   7.817   2.625 -0.0134  0.1666  0.1454
10262W        W26736  16.774  14.985  12.068 -0.0038 -0.4069  0.1109
10263W        W26737  17.749  13.772   0.271  0.1553 -0.3494  0.2698
10264W        W26738  16.511  18.135  16.349 -0.0727  0.0572  0.2182
10265W        W26739  13.612   0.735   1.159  0.1853  0.1950 -0.1899
10266W        W26740   5.700  12.872  15.218 -0.2560  0.2608 -0.0679
10267W        W26741  14.114   1.684  15.120  0.0998  0.1738  0.4233
10268W        W26742  12.831  15.905   2.671 -0.1013 -0.0146  0.0315
10269W        W26743  15.573  14.923  15.574  0.2644 -0.0314 -0.0181
10270W        W26744   0.790  11.002  16.187  0.3535 -0.1159 -0.0570
10271W        W26745  12.129   1.968   4.997 -0.1667  0.3334 -0.1296
10272W        W26746   5.323   9.623   0.900 -0.0233 -0.1135 -0.2287
10273W        W26747   0.292  15.436  12.506 -0.1206 -0.0187  0.0187
10274W        W26748  11.601  10.136  12.420 -0.1633 -0.0397  0.0552
10275W        W26749   6.667   9.886  15.565  0.0292 -0.2703  0.2257
10276W        W26750   9.210   5.991   2.549  0.2060  0.0659 -0.0067
10277W        W26751   7.225  11.661   3.529 -0.3049  0.0029  0.2751
10278W        W26752  14.081   4.964   1.368 -0.1390 -0.2027 -0.2596
10279W        W26753  18.172  16.496  15.790  0.0178 -0.5246 -0.1413
10280W        W26754   1.612  10.218   0.515  0.1717  0.1735  0.0694
10281W        W26755   6.801   1.929  16.342  0.0391  0.5049  0.0077
10282W        W26756  11.081  11.196  12.397  0.0583 -0.0136 -0.1839
10283W        W26757   1.354   1.321   2.126 -0.1004 -0.2468  0.1704
10284W        W26758  14.559   8.360  15.904 -0.0320  0.0392 -0.0435
10285W        W26759  11.017  10.283   2.236 -0.2554 -0.1430  0.3451
10286W        W26760   7.918   8.490   1.890 -0.0686  0.2281 -0.0586
10287W        W26761  11.495   4.856  15.369 -0.1358 -0.0908 -0.1337
10288W        W26762   2.357   2.187  14.509  0.0997  0.1198  0.3371
10289W        W26763   8.134   5.480  13.943 -0.0464  0.3457 -0.0734
10290W        W26764   2.133   1.217   2.680  0.2575 -0.0506 -0.0271
10291W        W26765  13.840   0.730   6.006 -0.2092  0.1701  0.0090
10292W        W26766  10.755   5.837   3.042 -0.1618 -0.3585 -0.2680
10293W        W26767   1.297  12.165  13.981 -0.1257  0.1737  0.0080
10294W        W26768   9.838  11.658   4.359 -0.1349  0.0734  0.1053
10295W        W26769  15.357   1.511   4.198 -0.0115  0.0829  0.2270
10296W        W26770   5.672  14.920   0.692  0.0069 -0.2207  0.2130
10297W        W26771  10.188  17.536   2.816 -0.0398 -0.0375 -0.4930
10298W        W26772  18.146   5.638  13.796 -0.0782  0.0764  0.1772
10299W        W26773  16.769   5.051  12.571  0.4369 -0.1311  0.3066
10300W        W26774  10.057   4.627  11.551 -0.1527  0.5203  0.0410
10301W        W26775  14.945   8.612   1.921 -0.0340  0.2090  0.2086
10302W        W26776  11.830   2.152  14.762  0.3377  0.3360  0.1455
10303W        W26777  11.958  16.181   0.069  0.1152 -0.0618 -0.0286
10304W        W26778  17.046  15.310  12.431 -0.2824 -0.0287 -0.4780
10305W        W26779  10.058  16.276   4.558 -0.1207  0.1892  0.0575
10306W        W26780   6.085   4.414  12.245  0.1372  0.0594 -0.3345
10307W        W26781   5.008   0.078   1.682  0.0204 -0.0950 -0.0584
10308W        W26782   7.450  17.071   3.749 -0.0170  0.0394  0.0793
10309W        W26783   3.694  17.611  13.916 -0.0478  0.0210  0.1228
10310W        W26784   1.331   9.024  14.054  0.5498  0.2531  0.0475
10311W        W26785  15.931   6.679   3.943  0.1165 -0.1966  0.3226
10312W        W26786  11.994   0.746  16.106 -0.0336 -0.1111 -0.0665
10313W        W26787  13.112   0.188  12.196 -0.1017 -0.2219  0.4820
10314W        W26788  16.612   3.653   0.576  0.1749  0.1170 -0.0485
10315W        W26789  10.193   4.960   2.029  0.2436  0.1341  0.1385
10316W        W26790   5.129   8.333   5.068 -0.2683  0.0939 -0.1941
10317W        W26791   7.033  14.391   0.291 -0.2473 -0.1107 -0.2395
10318W        W26792   0.055   1.161   3.951 -0.2361 -0.0226  0.1388
10319W        W26793  17.201  16.284   3.371 -0.0277 -0.0476 -0.0669
10320W        W26794  16.752  18.175  11.653  0.0497  0.2995  0.0413
10321W        W26795   5.220  10.265  12.380  0.1071  0.0333  0.0581
10322W        W26796   5.458  12.011  11.350  0.1967 -0.2319  0.1553
10323W        W26797  11.841   3.808   1.379  0.3774 -0.2185 -0.1950
10324W        W26798   1.578   0.292   0.390 -0.1021  0.0851 -0.4132
10325W        W26799  13.569  12.146  12.464 -0.1787 -0.0297 -0.0271
10326W        W26800  12.625   6.781   2.177 -0.3006  0.0394 -0.0792
10327W        W26801   7.054   5.480  13.045 -0.2021 -0.2161  0.1872
10328W        W26802   7.137   2.365   4.782  0.1143 -0.1317  0.2098
10329W        W26803  16.295   3.488   2.614 -0.2904  0.2287  0.0132
10330W        W26804   3.717   7.010   4.283  0.1626  0.0300 -0.2598
10331W        W26805  17.830  10.983  15.904  0.0780  0.0908  0.0393
10332W        W26806   8.211   6.451   1.057 -0.2131  0.2202 -0.0991
10333W        W26807  12.209  13.576   4.663  0.2699 -0.1270  0.1246
10334W        W26808  17.366   1.737   1.668  0.0227  0.1903  0.2152
10335W        W26809   6.847   0.036   3.265 -0.0672 -0.1239  0.1599
10336W        W26810  11.319   2.105  12.197  0.0267  0.1980 -0.1675
10337W        W26811   9.647   1.653   1.165 -0.1976  0.0022  0.1100
10338W        W26812  11.096  13.704  13.277 -0.0208 -0.3443  0.0520
10339W        W26813  16.696  10.333  15.683  0.0955  0.1537 -0.0442
10340W        W26814   9.918  11.712  11.936 -0.0638 -0.2834 -0.0921
10341W        W26815   5.609   1.759   6.371 -0.0212 -0.2074  0.0138
10342W        W26816  13.044   6.367   4.059 -0.2576  0.3589 -0.0017
10343W        W26817   3.027   5.942   2.335 -0.1901 -0.1453  0.0002
10344W        W26818  13.938  15.757   1.392  0.0189  0.0165  0.0875
10345W        W26819  13.063   6.573  11.667 -0.3112  0.1897  0.3863
10346W        W26820   1.214   9.437   3.745  0.0192 -0.2541  0.3880
10347W        W26821  10.470  15.901   0.139 -0.1515 -0.2415  0.1049
10348W        W26822   9.070  10.436  15.080 -0.1212  0.0487  0.1506
10349W        W26823   3.512  12.627   3.141 -0.2419 -0.0178 -0.0289
10350W        W26824  15.291  12.906  13.969 -0.0720  0.0386 -0.0802
10351W        W26825   6.371   2.549   2.208  0.0419  0.1746  0.1961
10352W        W26826  12.625   6.746  14.158  0.0504 -0.1780  0.1302
10353W        W26827  17.932   3.622  13.864 -0.0958  0.0314 -0.1255
10354W        W26828  10.978  17.868   3.622 -0.2068 -0.1117  0.0899
10355W        W26829  11.443  10.222   1.542  0.0132 -0.0120 -0.0330
10356W        W26830  13.644  14.450  13.255 -0.2928 -0.0813 -0.3122
10357W        W26831  15.081  15.868   0.788 -0.0970  0.0862  0.0126
10358W        W26832  17.329   8.827   5.378 -0.0231 -0.2364 -0.0702
10359W        W26833   9.759   8.014  15.993  0.0592  0.1193 -0.0901
10360W        W26834   3.734   4.886   0.675 -0.3067 -0.1820 -0.1367
10361W        W26835   1.969  15.249   3.442 -0.0162 -0.0409  0.2138
10362W        W26836  13.786  14.828  14.545  0.2882 -0.4967 -0.0043
10363W        W26837   2.697   3.930  10.804  0.0550 -0.0603  0.2195
10364W        W26838  14.037  14.567  13.606 -0.2013  0.4114  0.0825
10365W        W26839   2.809  13.923   5.250 -0.1475 -0.1520  0.2121
10366W        W26840   4.199   9.437   2.872 -0.0194  0.1507 -0.2992
10367W        W26841   9.610   0.779   4.330  0.3057 -0.0912  0.1024
10368W        W26842   5.376  14.037   0.753  0.1073  0.0130 -0.2196
10369W        W26843   2.176  13.902  13.019 -0.2289 -0.1628 -0.0842
10370W        W26844   0.629  12.001   2.997 -0.2794  0.1319  0.2736
10371W        W26845  10.600   6.520  13.986  0.2678 -0.1431  0.1655
10372W        W26846   7.126   7.213   2.136 -0.2082 -0.1815  0.1459
10373W        W26847   6.904  16.725   5.462  0.2786 -0.1181 -0.2694
10374W        W26848   0.658  11.693  14.755 -0.0084 -0.2186  0.1663
10375W        W26849   0.565   0.938   3.331  0.1525  0.0369  0.2151
10376W        W26850  11.666   2.638   4.458 -0.3304 -0.4742 -0.0087
10377W        W26851   1.996  11.020   0.719 -0.0408 -0.3475 -0.0163
10378W        W26852   6.116   4.408   3.288 -0.2846  0.1355 -0.0255
10379W        W26853   4.678  16.269   1.359  0.0662  0.0124  0.0775
10380W        W26854   1.383  17.232  11.395 -0.0706  0.0041  0.1015
10381W        W26855   8.521  13.096   2.070  0.4418 -0.1497  0.6133
10382W        W26856   4.421  16.881  12.804  0.2051  0.0848 -0.6058
10383W        W26857   0.144  15.132  13.800  0.3759 -0.2121  0.3185
10384W        W26858  15.427  13.086  14.867 -0.1850  0.1116  0.1747
10385W        W26859  14.821  14.339  13.673  0.2278  0.1422  0.0506
10386W        W26860  14.501   7.820  12.988  0.1559 -0.0659 -0.2329
10387W        W26861   4.748   2.656   1.848  0.0565 -0.1614 -0.1865
10388W        W26862   3.601   7.050   1.094  0.2154 -0.0749  0.0873
10389W        W26863  11.913   2.487   2.761 -0.0485 -0.0871  0.1447
10390W        W26864   2.477   6.248   1.675  0.0826 -0.3128 -0.0133
10391W        W26865  15.822  17.943  13.753  0.2250  0.2389 -0.2160
10392W        W26866  12.666  12.495   6.260  0.1359  0.0080  0.0526
10393W        W26867   4.591   8.670   5.747 -0.1548  0.0669  0.0482
10394W        W26868  10.706  15.655  12.983 -0.3060 -0.1702  0.1824
10395W        W26869  16.747   4.690  10.098 -0.2601  0.0558  0.2150
10396W        W26870  13.840   5.444  12.082  0.0946 -0.1458  0.0372
10397W        W26871   5.305   6.306  14.988  0.0882 -0.1961  0.0413
10398W        W26872  16.662  11.329   0.104 -0.0781 -0.1034  0.0887
10399W        W26873  13.121  14.567  13.356 -0.0963  0.0864 -0.1990
10400W        W26874  12.760  17.197  14.527  0.1872 -0.2024  0.3977
10401W        W26875  15.284   5.411   3.106 -0.1220  0.1202 -0.1114
10402W        W26876  12.736  11.682  15.325  0.0709 -0.0122  0.0408
10403W        W26877   7.440   2.706   5.278  0.2584 -0.0490  0.1693
10404W        W26878  11.015  16.368  14.018  0.0866  0.0002 -0.0364
10405W        W26879  17.314  12.395  14.149  0.0415 -0.0434  0.3164
10406W        W26880   5.563  11.676  13.302  0.0269  0.4269 -0.1427
10407W        W26881   1.697  13.167  12.293  0.1490 -0.0261 -0.0667
10408W        W26882  14.831  11.078  16.158  0.1188  0.2379  0.1688
10409W        W26883  10.821  12.028  12.164 -0.1921  0.0554 -0.0954
10410W        W26884  11.345   9.057  15.138 -0.2175  0.0251 -0.1964
10411W        W26885  11.094   4.595   5.431 -0.2432  0.2800  0.0017
10412W        W26886   1.385  16.208  14.712  0.1028  0.3881  0.0298
10413W        W26887   9.356  14.366   1.208 -0.0931  0.0683  0.0518
10414W        W26888   5.009  16.244   5.112 -0.1035 -0.1744  0.0553
10415W        W26889   0.624  17.729   2.250  0.0886 -0.3201 -0.2043
10416W        W26890  13.201  16.971   2.640 -0.2298 -0.0969  0.5391
10417W        W26891  15.003   5.660   2.318 -0.2671 -0.0285 -0.3064
10418W        W26892   1.408  12.114   4.353 -0.1350  0.0822 -0.2216
10419W        W26893   8.885   0.232  12.596 -0.1962  0.1476 -0.2636
10420W        W26894  11.928   1.859   4.494  0.0132 -0.0772  0.0448
10421W        W26895   9.875   6.382  11.974 -0.1030  0.1902  0.3222
10422W        W26896   7.305   0.330  15.128 -0.1744  0.1778 -0.2311
10423W        W26897  17.924   9.085   4.415 -0.0125 -0.4257  0.0773
10424W        W26898  16.033   5.137   3.388 -0.0999  0.1667 -0.0319
10425W        W26899   2.460  11.449   0.759  0.0087 -0.2829  0.0684
10426W        W26900   2.828   3.798   2.444 -0.2851  0.0474  0.0654
10427W        W26901  11.670  17.810   1.364  0.0719 -0.0295  0.1976
10428W        W26902  10.292  13.046  13.198 -0.1096  0.0291 -0.0891
10429W        W26903  10.762   7.912  15.880  0.0153 -0.1479 -0.1156
10430W        W26904  17.253  12.145  12.025  0.2528  0.1723  0.1780
10431W        W26905  17.021   8.104   4.772  0.0499  0.0878 -0.0924
10432W        W26906  13.883  14.581  14.048  0.0850 -0.0535 -0.1601
10433W        W26907   7.527   1.415  12.594 -0.0523  0.1088 -0.0335
10434W        W26908  15.542   6.719   4.341  0.3682  0.0629  0.1899
10435W        W26909  12.792   5.039   3.264 -0.1116  0.1749 -0.0191
10436W        W26910  14.217   7.355   0.169 -0.1392  0.2735  0.1926
10437W        W26911   5.543   1.119   1.553 -0.0325  0.2142 -0.2040
10438W        W26912   3.196   1.559   2.793 -0.1019 -0.1994 -0.2340
10439W        W26913  18.115  17.917  11.578  0.2733 -0.0742 -0.1585
10440W        W26914   2.495   5.753  16.063 -0.0278  0.0174 -0.1712
10441W        W26915   9.207   4.019  14.358  0.0243 -0.0781  0.1594
10442W        W26916   0.130   8.713   5.015  0.1262 -0.2171  0.1881
10443W        W26917  13.081   8.032   1.910  0.1336 -0.1178 -0.1800
10444W        W26918   2.294   3.220   4.976 -0.1093  0.0526  0.0763
10445W        W26919   3.000   8.233   3.182 -0.2301 -0.0813  0.0641
10446W        W26920  12.806   2.890   5.567  0.0554  0.0613  0.0502
10447W        W26921  17.870  13.320  11.134 -0.1592  0.1380  0.0536
10448W        W26922  14.611   3.921  11.787 -0.0578 -0.2348  0.1797
10449W        W26923   4.608  17.227   1.762 -0.0446  0.0860  0.2715
10450W        W26924   2.507  14.784  15.437  0.0355  0.3227  0.2677
10451W        W26925   2.367  13.235  15.429 -0.0999 -0.0023 -0.2336
10452W        W26926   9.523  13.405  13.519 -0.4499  0.1527 -0.1564
10453W        W26927  11.183   1.411   2.274  0.0095  0.1550 -0.0013
10454W        W26928   6.353   9.241   1.949 -0.0002 -0.1316  0.0505
10455W        W26929   5.792   3.360  14.720  0.1445  0.0850  0.2512
10456W        W26930   6.841  13.921   0.320  0.5009  0.1350 -0.1344
10457W        W26931  16.189   8.173  12.672  0.0821  0.1540 -0.0598
10458W        W26932   9.821  13.013   2.501  0.1317 -0.1115  0.2642
10459W        W26933   2.802  13.446   2.944 -0.0321 -0.2307  0.1290
10460W        W26934  10.144   6.118  12.774 -0.0767 -0.0709 -0.0628
10461W        W26935   6.824  16.285  13.047  0.0999  0.2774 -0.2008
10462W        W26936   3.473   2.724   2.347 -0.0997 -0.2737 -0.0873
10463W        W26937   8.800   7.439  12.475  0.2424  0.1995 -0.3317
10464W        W26938  14.462  11.288  13.583  0.1210 -0.1043 -0.1674
10465W        W26939  12.162   6.919  15.086 -0.0969  0.2332  0.0059
10466W        W26940   4.737   5.916   1.706 -0.1033 -0.0752  0.0087
10467W        W26941  11.267  16.337  12.928  0.0584 -0.0047 -0.0368
10468W        W26942   1.683   1.039   1.787 -0.0043  0.0855 -0.1267
10469W        W26943  11.641   2.973   3.542  0.1673 -0.0872 -0.2278
10470W        W26944   3.796   6.005  14.530 -0.2336 -0.0058  0.4588
10471W        W26945  12.470  14.945   2.712  0.2099  0.0824 -0.1393
10472W        W26946  16.626  15.652  10.942  0.3055 -0.2015 -0.3659
10473W        W26947  13.421   4.311  13.992  0.0876  0.0718 -0.5246
10474W        W26948   5.360   4.405   2.761  0.1049 -0.0267 -0.1075
10475W        W26949   7.507  10.875  15.375 -0.3683  0.3314 -0.0363
10476W        W26950   9.001   1.343   2.870  0.0860 -0.2981 -0.1426
10477W        W26951   0.641   9.454  15.245 -0.1101 -0.1075 -0.1641
10478W        W26952  10.703  12.121   2.551 -0.1211  0.3124  0.0061
10479W        W26953  12.704   1.182  11.370 -0.2589  0.1652  0.0517
10480W        W26954   0.101   9.162  14.611 -0.0240 -0.0831 -0.2464
10481W        W26955   6.565   6.185  13.615 -0.2749 -0.0125  0.1675
10482W        W26956  11.389   0.687   2.853  0.3170 -0.2002  0.1663
10483W        W26957  14.970   1.510   4.500  0.0066  0.1295 -0.2178
10484W        W26958   7.006   2.414   2.908  0.1546  0.5717  0.1219
10485W        W26959   0.796  17.193   3.037 -0.1866 -0.0348 -0.0352
10486W        W26960   2.294  17.840   0.518  0.1756  0.1490 -0.1921
10487W        W26961   0.411  16.081   5.014 -0.0017  0.0582 -0.1853
10488W        W26962  14.294   9.185  14.336 -0.0369 -0.0838  0.0686
10489W        W26963  15.377   7.503  12.993 -0.0025 -0.1180  0.0759
10490W        W26964  15.015  10.867   1.897 -0.0053 -0.2685 -0.2164
10491W        W26965   9.620  12.098   3.413  0.1432 -0.0320  0.0666
10492W        W26966   4.204   7.667   0.060  0.1266  0.1839  0.1097
10493W        W26967  11.346   7.772   0.588 -0.3137  0.1152 -0.0060
10494W        W26968  14.705  11.644   1.544 -0.1997 -0.1791  0.2403
10495W        W26969  10.330   6.698   1.400  0.3548 -0.1643 -0.0928
10496W        W26970  12.552  11.148  14.443 -0.0874 -0.0931  0.0407
10497W        W26971  14.467  14.426  15.579 -0.1239 -0.1239 -0.1496
10498W        W26972   1.754  11.446   0.417 -0.2774  0.2162  0.1501
10499W        W26973  14.871   6.254   4.885 -0.0275  0.0577  0.0938
10500W        W26974  13.793  17.018   4.560 -0.1602  0.1582  0.1621
10501W        W26975   9.212  12.652   2.915 -0.3336 -0.2777  0.2115
10502W        W26976  16.153   1.039  14.799  0.0514  0.0700 -0.0939
10503W        W26977   4.249   8.402   3.432 -0.1387  0.0579  0.0844
10504W        W26978   1.596   2.526   1.443 -0.2785 -0.1151  0.0111
10505W        W26979   5.267  17.672  12.179 -0.0599  0.1602 -0.1782
10506W        W26980   2.884  13.170   0.057  0.1759  0.6121 -0.1075
10507W        W26981  12.249   0.325   1.284 -0.1079 -0.4679  0.0489
10508W        W26982  10.963   0.319  13.896 -0.1140  0.0150 -0.1655
10509W        W26983   6.177   1.219   5.433 -0.2596  0.2154 -0.1063
10510W        W26984   4.329   7.228  11.713  0.2252  0.0175  0.0265
10511W        W26985   0.058   0.064   1.773  0.1428  0.2059  0.0680
10512W        W26986   7.950   5.558  13.520 -0.0120 -0.2710  0.1774
10513W        W26987   2.051  16.895   4.638 -0.1275  0.1631  0.1282
10514W        W26988  17.394   9.790   4.894 -0.0790  0.3864 -0.0892
10515W        W26989   3.813  13.269  13.348 -0.0128  0.0231 -0.0382
10516W        W26990   8.630  12.320  15.776  0.2521  0.0314  0.1113
10517W        W26991   6.931  17.793  14.841  0.2353 -0.1526 -0.0455
10518W        W26992  14.244   8.467  11.766 -0.2097 -0.3350 -0.2154
10519W        W26993  11.255  10.885   2.932  0.0274 -0.1749 -0.1969
10520W        W26994   0.642   2.165  14.316 -0.2231 -0.1652  0.1044
10521W        W26995   8.141  11.631  15.145  0.3901 -0.0452  0.1534
10522W        W26996   3.600  17.364  11.710  0.0457  0.2545  0.1519
10523W        W26997   8.399  10.849  13.642 -0.2556  0.2585  0.1641
10524W        W26998  14.318   1.755  13.454 -0.1894  0.2747  0.0131
10525W        W26999   2.087  13.998  14.499  0.1600 -0.0865 -0.0722
10526W        W27000   0.253   7.802  14.230  0.2257 -0.2401 -0.2891
10527W        W27001   0.038  11.022  15.623 -0.1569  0.0859 -0.1570
10528W        W27002  15.555  10.273   0.518  0.1172  0.1155  0.0682
10529W        W27003   6.505   4.689   1.698  0.0032  0.0712  0.0637
10530W        W27004   5.580  16.042  13.984 -0.0206  0.2255  0.1105
10531W        W27005  10.053   6.258   1.425  0.1026 -0.1438 -0.0512
10532W        W27006  16.516   9.762   1.032 -0.1287  0.0316  0.2833
10533W        W27007  12.580   3.226   0.353  0.0954 -0.0830 -0.0376
10534W        W27008   8.539  12.324   4.706  0.1572  0.2237 -0.3196
10535W        W27009   5.687  15.851  11.646 -0.3158  0.2272 -0.2559
10536W        W27010   8.188  15.972   5.692  0.0244  0.1610  0.1848
10537W        W27011   1.285   0.427   1.173 -0.2423 -0.2524 -0.1884
10538W        W27012   6.068   6.977  15.751  0.0299 -0.1269  0.0485
10539W        W27013  13.950  14.602   3.885  0.1145  0.0431 -0.0881
10540W        W27014   0.414   8.677  12.654  0.0490 -0.2016 -0.0678
10541W        W27015  12.824  17.640   2.118 -0.0001 -0.3271 -0.2201
10542W        W27016   0.720  12.928   5.093  0.3291 -0.2500  0.1979
10543W        W27017  16.309   9.566   2.363 -0.2623  0.2528 -0.1417
10544W        W27018   1.018   0.945   0.392  0.4064  0.0881  0.3136
10545W        W27019   1.280  10.008   4.939  0.1884  0.0240  0.2424
10546W        W27020  16.671   4.812  14.219  0.0150  0.1702  0.0243
10547W        W27021  17.727  13.388  15.716 -0.0013  0.0644 -0.2671
10548W        W27022   2.832  16.258  11.972 -0.1433  0.2410  0.0434
10549W        W27023   7.380  14.356   0.701 -0.2147 -0.2377  0.2179
10550W        W27024   0.315  10.764  15.325 -0.1568  0.0160  0.0385
10551W        W27025  11.159   4.184   0.454 -0.0164  0.2810 -0.0010
10552W        W27026   4.796  16.818  15.015  0.1551  0.0621  0.1210
10553W        W27027   6.023  10.209   2.954 -0.0305 -0.1072 -0.0490
10554W        W27028  11.372  10.451  14.822  0.0626  0.2048  0.2772
10555W        W27029   7.898   7.768  13.527  0.0729 -0.2760  0.1036
10556W        W27030   5.846  11.104   2.268  0.1308 -0.1064 -0.3082
10557W        W27031   1.944  12.245  15.740  0.1377 -0.1800 -0.0662
10558W        W27032   4.451   3.555   5.115  0.1005 -0.0481  0.3913
10559W        W27033   1.576  16.144   1.183  0.2089 -0.0045  0.0464
10560W        W27034   3.956   4.604  15.731  0.0767  0.0788 -0.3107
10561W        W27035   1.786  14.447  15.315  0.3043 -0.2647  0.0130
10562W        W27036  17.103   3.533  13.082 -0.1755  0.1008  0.1834
10563W        W27037   8.207   8.188  13.346 -0.0865  0.0465  0.0162
10564W        W27038  17.083  17.914  16.195 -0.2951 -0.1847  0.2834
10565W        W27039  17.461   8.668  12.713  0.2669 -0.2414 -0.0037
10566W        W27040   8.823   2.552   1.880 -0.0259 -0.2316 -0.1625
10567W        W27041  14.697  13.032   1.121  0.1165 -0.1497 -0.1053
10568W        W27042   1.731  13.540   0.891 -0.0202  0.0087  0.1230
10569W        W27043  15.461   5.020  11.899 -0.2687 -0.1861 -0.1612
10570W        W27044  12.358   5.149  11.434 -0.1302 -0.0422 -0.1742
10571W        W27045  10.386  13.283  12.714 -0.2504  0.2141 -0.2481
10572W        W27046  17.289  16.392   2.897  0.2859  0.0550 -0.0222
10573W        W27047   0.882   9.006   1.690  0.0629  0.0855  0.1296
10574W        W27048  12.666  12.732  15.107 -0.1965 -0.1429  0.2894
10575W        W27049  15.434   7.249  15.137 -0.1965 -0.1390  0.0952
10576W        W27050   5.267   5.290  12.780  0.0190 -0.4019 -0.0440
10577W        W27051  10.979  13.126  15.329  0.0658 -0.1564  0.1618
10578W        W27052   8.812   6.261   3.279  0.1904 -0.0081  0.1185
10579W        W27053   7.151  11.068  14.330 -0.0024  0.0689  0.1869
10580W        W27054  13.402   6.903  13.817  0.0966 -0.0459 -0.3208
10581W        W27055   3.724   2.047   2.074 -0.0291 -0.0141  0.0604
10582W        W27056   2.799   0.264  13.068 -0.1332 -0.1675  0.0919
10583W        W27057   0.594   7.003   3.974 -0.2627 -0.1247  0.0696
10584W        W27058  10.231   3.867   2.090 -0.2795  0.4058  0.0937
10585W        W27059   0.853  16.127   3.084  0.0247 -0.0835  0.1039
10586W        W27060   2.671  16.968   1.367 -0.2701 -0.0331 -0.2625
10587W        W27061   2.564   6.808  15.950 -0.0006 -0.0714 -0.3925
10588W        W27062   4.321  17.227   4.922 -0.2040  0.3445 -0.0586
10589W        W27063   0.224   5.328  16.229  0.0866  0.0698  0.0686
10590W        W27064   8.361   1.060  16.232 -0.1049 -0.1647 -0.0689
10591W        W27065   7.581  16.181  15.579 -0.0227  0.0436  0.3394
10592W        W27066   6.005   8.654   0.015 -0.1249  0.1149 -0.0572
10593W        W27067   7.592   9.789  11.069 -0.1760  0.0215 -0.1030
10594W        W27068   8.351   8.108  12.027 -0.1399  0.0215  0.0585
10595W        W27069  13.285   7.913   3.991 -0.1288  0.2159  0.1053
10596W        W27070  17.785  13.728   1.351 -0.2639 -0.0438 -0.0520
10597W        W27071  10.079  14.162   5.833  0.0526  0.1793 -0.0220
10598W        W27072   1.451  13.943   1.660  0.4005 -0.1545  0.0012
10599W        W27073   8.243  12.950  15.186  0.2004  0.2441 -0.0742
10600W        W27074  10.849   8.151  11.765 -0.1061 -0.0491  0.1234
10601W        W27075   9.477  16.520  15.402  0.0983  0.0473  0.1641
10602W        W27076  15.598   8.111   2.238  0.2838 -0.0096 -0.0391
10603W        W27077  13.728   2.795   0.120  0.0265 -0.0698  0.3478
10604W        W27078  16.201   5.889   5.258 -0.0404  0.0906 -0.0210
10605W        W27079   8.921  14.913   0.159 -0.0865  0.1137 -0.0688
10606W        W27080  11.669   2.362  13.173 -0.0906 -0.1656 -0.1415
10607W        W27081  10.517   3.154   0.021  0.2735 -0.0274  0.0831
10608W        W27082   6.022   3.201  11.797  0.0682 -0.1279  0.2464
10609W        W27083   8.145   9.004   1.973  0.1223  0.1046  0.1621
10610W        W27084  18.107   7.128   4.768 -0.1325 -0.1422 -0.0942
10611W        W27085  10.653   8.575  11.585 -0.0081  0.2789  0.0663
10612W        W27086   4.603  18.167   1.404 -0.2150  0.1019  0.2215
10613W        W27087   8.377  14.337   5.685  0.0346 -0.0489  0.2931
10614W        W27088   6.254   4.389  11.381 -0.2385  0.3015 -0.1838
10615W        W27089   7.647   5.155   5.450 -0.0152  0.1394 -0.3192
10616W        W27090   0.078   8.922   0.631 -0.0490  0.3366  0.1478
10617W        W27091  13.521   4.830  13.305 -0.0197 -0.0892  0.0948
10618W        W27092   6.601  10.259  15.936 -0.0082 -0.1551  0.1623
10619W        W27093   0.706  12.152   5.448  0.2033  0.3066  0.2558
10620W        W27094  16.296   7.858   5.499 -0.0665 -0.1816 -0.0323
10621W        W27095   7.877   6.891   2.184  0.0894 -0.1252  0.1384
10622W        W27096   6.199   5.769   5.176 -0.2544 -0.1252  0.3640
10623W        W27097  13.811   6.009   4.356 -0.4179  0.1519  0.1767
10624W        W27098   3.074   9.891   1.569 -0.1246 -0.0184  0.0417
10625W        W27099  15.293  11.815  11.802 -0.3116 -0.1015 -0.0199
10626W        W27100  17.624   0.247  11.392 -0.2682 -0.0494  0.1808
10627W        W27101   4.789   9.926   4.501  0.1270  0.1453 -0.1696
10628W        W27102  15.298  13.859  12.398 -0.0702 -0.2522  0.0703
10629W        W27103   6.095   2.236  15.255 -0.0271 -0.2901  0.1326
10630W        W27104  13.425   5.150   0.760 -0.2321 -0.1946  0.2572
10631W        W27105   2.545   0.706  15.714 -0.1509 -0.3161  0.0264
10632W        W27106   6.283  16.030   0.612 -0.0078  0.2194  0.0691
10633W        W27107   7.625  10.395   5.063 -0.2646  0.0519 -0.1857
10634W        W27108   5.869   3.744   1.836 -0.0590 -0.1095 -0.1657
10635W        W27109   8.242   2.790   3.598 -0.2093 -0.0154  0.1176
10636W        W27110  12.712   2.175  14.725 -0.3532 -0.1478  0.0375
10637W        W27111  15.611   5.085  15.168  0.1815  0.1967 -0.0445
10638W        W27112   9.511   0.944  15.320 -0.1728 -0.0278 -0.2168
10639W        W27113   6.180  16.283  15.274  0.1145  0.1959  0.0251
10640W        W27114  15.218  11.730   0.277 -0.1012  0.0493  0.0567
10641W        W27115   3.947   5.779  13.731 -0.1177  0.0233 -0.1120
10642W        W27116   3.479  10.604  13.920 -0.1549  0.1487 -0.1299
10643W        W27117  17.396   1.852  12.850  0.0533  0.3130 -0.0318
10644W        W27118  12.721  15.059   4.747 -0.0971 -0.0646  0.4350
10645W        W27119   8.175   0.892  15.760 -0.1548 -0.0976 -0.4631
10646W        W27120   3.499  12.275   1.745 -0.1655  0.1848  0.1458
10647W        W27121   6.297   6.975  13.705 -0.2106  0.1557  0.1271
10648W        W27122   7.786   1.881  15.158 -0.0951 -0.0225 -0.0532
10649W        W27123   8.745   8.690   2.657 -0.0276  0.1856  0.2044
10650W        W27124   6.131  10.381  11.272 -0.0092  0.0007 -0.1248
10651W        W27125   0.391  17.959  15.132  0.2207 -0.3868 -0.1512
10652W        W27126  17.763   1.427  11.636 -0.2919 -0.1294  0.1193
10653W        W27127   6.715   6.047  12.353 -0.2939 -0.0965  0.1305
10654W        W27128  11.101   5.351   3.065 -0.0133  0.2075  0.1822
10655W        W27129  11.106   6.677  13.883  0.0268 -0.0657 -0.1354
10656W        W27130  11.345   9.161   5.837 -0.2306 -0.1482 -0.2554
10657W        W27131   4.139  12.650   4.549  0.0886 -0.0782 -0.0643
10658W        W27132   2.098   9.106   2.717 -0.1186 -0.0824 -0.1014
10659W        W27133  17.254   0.835  12.209  0.1491 -0.1903  0.1162
10660W        W27134  14.266   6.112   3.024  0.1520  0.1819 -0.2162
10661W        W27135   3.827   7.985   0.980  0.0605  0.0782  0.2646
10662W        W27136  15.569   3.148  11.449 -0.0482  0.0209 -0.2420
10663W        W27137   5.565   9.147  14.248  0.1484  0.0908  0.1207
10664W        W27138   0.434   3.148  13.175 -0.2986 -0.1987 -0.0861
10665W        W27139  13.999   0.954   3.558  0.2949  0.1197  0.2116
10666W        W27140   3.981   0.265   4.088  0.1194  0.2376  0.4880
10667W        W27141  10.945   3.991  14.378  0.2475  0.1150  0.0588
10668W        W27142  15.229   1.971   4.301  0.2101  0.0209  0.0334
10669W        W27143   4.678   7.508  14.362 -0.0449 -0.0092 -0.0409
10670W        W27144  12.341  16.234  13.626 -0.1142  0.0093 -0.1349
10671W        W27145  11.140   7.976   3.082 -0.3312 -0.0480 -0.2539
10672W        W27146   3.820  10.710   0.848 -0.1478 -0.0507 -0.1106
10673W        W27147  11.530   5.154   1.169  0.0820  0.3205 -0.0467
10674W        W27148   1.527   2.630  14.165  0.2016 -0.3288  0.0842
10675W        W27149  14.782  16.717  10.549 -0.1875  0.0607  0.2546
10676W        W27150  14.887   7.897  16.037 -0.0763  0.2856  0.0084
10677W        W27151   5.609  11.654  15.353 -0.0167 -0.1816  0.1480
10678W        W27152  12.154  17.445   1.543 -0.1180 -0.0751  0.0394
10679W        W27153   6.685   3.830  12.176 -0.1968 -0.0525 -0.2273
10680W        W27154   4.324  12.097   1.681 -0.3866  0.2420  0.0863
10681W        W27155   8.238   8.870   0.989 -0.1769 -0.2713 -0.2422
10682W        W27156   4.185  13.701  15.827 -0.2530  0.1242 -0.4611
10683W        W27157  16.572   6.745   1.599  0.2593 -0.0230 -0.1683
10684W        W27158   5.486  14.796   2.140 -0.1878  0.0851  0.3734
10685W        W27159   0.053   4.945  13.549 -0.2141 -0.0075  0.0317
10686W        W27160   7.240  15.431   5.879  0.2342  0.1641 -0.0899
10687W        W27161   4.331  12.665  12.661 -0.2463  0.1737 -0.1728
10688W        W27162  18.077  13.351   2.233 -0.0814 -0.0686 -0.2146
10689W        W27163  16.920   1.970  10.669  0.0563 -0.0081  0.2302
10690W        W27164  16.269  11.748   5.378  0.0736  0.0329  0.1012
10691W        W27165  12.735  11.950   1.943 -0.2655 -0.0856  0.0387
10692W        W27166   7.997  14.318   1.648 -0.0260  0.0334 -0.2081
10693W        W27167  16.443   8.722   5.844  0.1481  0.0734  0.1585
10694W        W27168   4.662   2.186   1.793  0.0006  0.2742  0.1179
10695W        W27169   6.688  10.374  11.870 -0.2413  0.0547 -0.1253
10696W        W27170  12.294   3.776  15.065 -0.0785  0.1885 -0.1290
10697W        W27171   5.642   2.582   2.000  0.2289 -0.2574 -0.1568
10698W        W27172   5.900   6.095   1.224  0.0588  0.1254  0.1840
10699W        W27173  13.330  17.812   0.775 -0.2137  0.0661  0.0126
10700W        W27174  10.189  14.913  11.156  0.2605 -0.1427 -0.0250
10701W        W27175   0.081  11.049   1.037 -0.0568  0.2320  0.0146
10702W        W27176   5.360   0.740   2.707  0.0252 -0.0699  0.1491
10703W        W27177  15.807  14.014   5.155 -0.2397 -0.1443 -0.1008
10704W        W27178   1.837  17.453  11.070  0.2574 -0.0599  0.2454
10705W        W27179  13.237  14.782   4.911  0.1339 -0.1145 -0.1021
10706W        W27180   9.799  15.257  13.612  0.0437  0.2642 -0.1732
10707W        W27181   8.053   5.960  13.850  0.0843 -0.0781  0.2247
10708W        W27182   2.048  10.405   4.052 -0.1141  0.1243 -0.0345
10709W        W27183   6.000   2.861  12.247 -0.0719  0.0991  0.3785
10710W        W27184  16.519   0.954   5.620 -0.2536  0.2661 -0.0506
10711W        W27185  12.946   4.606   4.716 -0.0686  0.0452  0.0202
10712W        W27186  16.604  14.494   3.282  0.1234  0.2689  0.1570
10713W        W27187  14.965  14.625  15.671 -0.0135  0.1107  0.2773
10714W        W27188  11.244   3.934   4.263  0.1826 -0.0290  0.0824
10715W        W27189  11.887  12.790  12.680 -0.0134  0.1955 -0.1690
10716W        W27190   8.912   0.682   0.585 -0.3118 -0.2500 -0.0777
10717W        W27191  17.746   0.989  12.411 -0.0652  0.1557  0.1639
10718W        W27192  10.042   1.740  15.286 -0.0471 -0.0238  0.3464
10719W        W27193   8.890  10.787  11.577 -0.0782 -0.0203 -0.1945
10720W        W27194   2.421   6.140  12.028 -0.1251  0.0957 -0.0627
10721W        W27195  12.107  15.043  14.222 -0.2589 -0.1266  0.3705
10722W        W27196  14.349   8.863  15.274 -0.0984  0.2803 -0.2946
10723W        W27197   7.888  10.932  13.623 -0.0096  0.0053  0.1826
10724W        W27198  11.147  13.409   2.599  0.1435  0.0539  0.0623
10725W        W27199   5.040  15.489  14.637 -0.3209  0.1884  0.0362
10726W        W27200  14.402  11.425  13.113 -0.1590  0.0721  0.1942
10727W        W27201  10.175   5.588   2.073  0.2768 -0.1789 -0.1091
10728W        W27202   8.189  13.854  15.463 -0.2186  0.1210  0.0557
10729W        W27203   5.469   9.612  12.938  0.3233 -0.0066  0.1154
10730W        W27204   9.507  13.398   1.752  0.1870 -0.1576  0.1242
10731W        W27205   2.981   2.639   2.346  0.1102 -0.3386  0.3953
10732W        W27206   4.719  13.619  14.080 -0.0269  0.0626  0.1808
10733W        W27207   8.251   5.980  11.908 -0.2319 -0.4284 -0.1807
10734W        W27208   9.753   1.659  14.191 -0.1482 -0.2842  0.1307
10735W        W27209  17.793   2.925   1.647  0.0375 -0.0519  0.1358
10736W        W27210  16.088   7.542   4.700  0.0815 -0.1099 -0.1409
10737W        W27211  11.906  11.623   4.291 -0.1775 -0.1778 -0.2141
10738W        W27212   0.705   4.298   4.065 -0.0101  0.1754 -0.0231
10739W        W27213  10.199   3.906   0.579 -0.0180  0.1582 -0.1511
10740W        W27214   2.707  15.725   1.744 -0.0114  0.0929 -0.1821
10741W        W27215  13.055   6.450   5.143  0.0252 -0.0247  0.3380
10742W        W27216  16.374  10.515   5.356 -0.0716 -0.1326 -0.1959
10743W        W27217   5.992  10.201   2.212 -0.1134  0.0150  0.1826
10744W        W27218   9.802   6.947   4.540  0.0995  0.0369 -0.1973
10745W        W27219   4.209   3.776  16.315  0.3276 -0.0033  0.0411
10746W        W27220   1.726   0.718   1.407  0.0502  0.0553  0.0614
10747W        W27221   4.760   0.759  12.267  0.3564 -0.1925 -0.2312
10748W        W27222  14.592   4.891  12.736 -0.0176 -0.0508  0.0681
10749W        W27223   4.254  14.307  16.252 -0.2062 -0.1452 -0.0438
10750W        W27224   1.931  16.229  14.808  0.2649 -0.3886  0.1199
10751W        W27225   9.629   4.087   1.297  0.0096  0.2131 -0.0679
10752W        W27226   0.304   8.142   6.642  0.0497 -0.3078 -0.0524
10753W        W27227  11.730   3.235  10.574 -0.2897  0.0114 -0.2416
10754W        W27228   7.374   1.441   5.440  0.1884 -0.1841 -0.2492
10755W        W27229   6.924   1.079   0.102  0.2793 -0.0584 -0.2002
10756W        W27230  13.112   5.537   5.149 -0.0468  0.1289  0.4049
10757W        W27231  16.463   1.143  14.302  0.1098 -0.1110 -0.0251
10758W        W27232   2.713   5.373  15.715 -0.1459  0.1152  0.1112
10759W        W27233   7.726   2.331  12.581  0.2280 -0.0738 -0.0071
10760W        W27234  13.564   4.719  15.959 -0.0740 -0.1536  0.0911
10761W        W27235  17.506   5.727   0.816 -0.1946  0.0325 -0.0489
10762W        W27236   2.631  11.343   1.305 -0.1602 -0.0844  0.1806
10763W        W27237  16.406   6.171  15.796  0.1774 -0.2286 -0.1469
10764W        W27238  15.548   4.694  15.579 -0.1224  0.0940 -0.1593
10765W        W27239  12.160   3.033  12.601  0.2451 -0.1131  0.0782
10766W        W27240  11.157   7.117   3.203  0.0010 -0.2734  0.1076
10767W        W27241   1.539   8.877   4.799  0.3260  0.2972 -0.0144
10768W        W27242   5.003   0.213  16.140 -0.2629 -0.2241  0.2616
10769W        W27243   6.931   5.912   1.177 -0.4227  0.0304  0.2008
10770W        W27244   8.140   3.774  15.571 -0.1550 -0.2437 -0.2622
10771W        W27245   7.394   4.278   3.738  0.0421 -0.0392  0.0318
10772W        W27246   0.380  10.954  12.396  0.2768  0.0399  0.0391
10773W        W27247   2.145   7.452  12.328 -0.0358  0.4009 -0.0262
10774W        W27248  12.729   4.074  15.098 -0.1166 -0.0549  0.0307
10775W        W27249  10.856   8.988   1.272  0.0978 -0.1614 -0.1345
10776W        W27250  11.384  11.379   3.321  0.1913 -0.2572  0.2189
10777W        W27251   9.590  15.197   1.858 -0.1414 -0.2498 -0.2353
10778W        W27252  13.639  14.878   1.334  0.3228 -0.2483 -0.0978
10779W        W27253  17.747   3.171   2.487  0.0205  0.1483 -0.3100
10780W        W27254  17.287  11.390  13.684  0.0260 -0.0676  0.1881
10781W        W27255   0.808  14.412  11.609  0.2036  0.2986 -0.2974
10782W        W27256   0.255  14.144  12.905 -0.1039 -0.2552  0.2371
10783W        W27257   0.085  15.569  10.623  0.0058 -0.0132 -0.2506
10784W        W27258  11.771   4.778  11.498 -0.2474  0.0773  0.1946
10785W        W27259  14.413   9.783   2.084  0.0191 -0.3078 -0.0620
10786W        W27260  17.733  13.319  12.556  0.1881  0.0512 -0.0777
10787W        W27261  17.956   4.106   3.355  0.0869  0.1372 -0.4207
10788W        W27262  12.135   6.024   1.317 -0.0484 -0.0578  0.0407
10789W        W27263   7.479  16.253   4.200  0.0388  0.2090 -0.1831
10790W        W27264   9.526  11.425  14.961  0.1629  0.3343  0.0446
10791W        W27265  14.686   2.522  13.957 -0.1113 -0.1316 -0.1489
10792W        W27266   6.377   7.336   3.282  0.1737 -0.1914 -0.0040
10793W        W27267  11.150   6.185   0.775 -0.0404 -0.0926 -0.3969
10794W        W27268  10.047  11.993   2.097 -0.0441  0.1770  0.0382
10795W        W27269  12.026  15.075  15.140  0.0478 -0.3352 -0.1685
10796W        W27270   2.699  14.463   1.005 -0.1361 -0.3518 -0.0009
10797W        W27271   5.522   7.550  13.883 -0.3138  0.0765  0.1455
10798W        W27272  11.334   3.616   0.453 -0.1270  0.1560 -0.0234
10799W        W27273   0.842   8.350  12.611  0.0688 -0.5250  0.4381
10800W        W27274  13.765  15.228  15.631  0.1972 -0.0000 -0.1755
10801W        W27275   0.507   0.934  14.288 -0.2873 -0.0841  0.3526
10802W        W27276   3.697   6.360  15.392  0.0369 -0.1135 -0.0486
10803W        W27277   1.146   6.663   5.644  0.0618 -0.0512  0.1016
10804W        W27278  13.810   9.602  15.192 -0.1505 -0.2626  0.1488
10805W        W27279   9.089  13.002   1.992 -0.4391 -0.0999  0.0895
10806W        W27280   1.608   7.679  12.608  0.0326 -0.1414 -0.1149
10807W        W27281   2.092  14.803   3.240 -0.0372 -0.3402 -0.2754
10808W        W27282  14.699   9.939  12.876  0.3856 -0.3097  0.2432
10809W        W27283   8.491  16.613   1.968 -0.2366 -0.0659  0.0295
10810W        W27284  13.329  11.845  13.274  0.2083  0.4203 -0.0165
10811W        W27285  13.127   5.759  15.309 -0.0672 -0.2256  0.1839
10812W        W27286  16.769   5.469   2.015 -0.2585  0.2795  0.1739
10813W        W27287   9.732  11.304   0.392 -0.2597  0.0117 -0.2671
10814W        W27288  16.428   2.977  15.416  0.2352  0.0856  0.0833
10815W        W27289   0.033   5.941   4.980 -0.0247  0.0626  0.1876
10816W        W27290   3.916   4.668   5.208 -0.0723 -0.0472 -0.1470
10817W        W27291   3.062   8.669   2.169  0.0944  0.0545 -0.0669
10818W        W27292  17.964  13.394   4.209  0.0265  0.1909 -0.0615
10819W        W27293  13.232   4.613   5.129  0.0541 -0.0340  0.1259
10820W        W27294   5.622   3.122   0.314 -0.0064  0.0860  0.1367
10821W        W27295  12.368   3.095  14.112  0.0466 -0.1787  0.1958
10822W        W27296   1.302   6.769  15.660  0.0330  0.0772 -0.0894
10823W        W27297  10.818  18.021   1.564  0.1969  0.1756  0.2281
10824W        W27298   2.195   9.796  12.494  0.2031 -0.1710 -0.1614
10825W        W27299   0.898   4.474   5.219 -0.0087 -0.2038 -0.1199
10826W        W27300   3.695  13.738  12.514 -0.1490 -0.0954 -0.0582
10827W        W27301  16.630   5.292   0.794  0.3474 -0.1571  0.1184
10828W        W27302  12.625   2.256   0.953 -0.1051  0.1271  0.0025
10829W        W27303   2.361   0.763   5.443 -0.0843 -0.3404  0.0022
10830W        W27304   9.688  10.304  15.815  0.2409  0.1272  0.0342
10831W        W27305  16.432   3.991   1.081 -0.0493  0.1254  0.1487
10832W        W27306   8.034  15.163   6.154 -0.2056 -0.2103 -0.1868
10833W        W27307   4.395  11.915  13.432  0.2076  0.0141 -0.4306
10834W        W27308   4.708  10.905  12.479  0.1475  0.2349  0.0159
10835W        W27309  14.364  10.468   0.415  0.0879  0.0053  0.2832
10836W        W27310  17.045  15.525  14.815 -0.2532  0.1431  0.1153
10837W        W27311   1.634  13.325   0.413  0.0528  0.0642  0.2630
10838W        W27312  11.120  10.498   3.335 -0.0940 -0.0071 -0.0786
10839W        W27313  17.244   3.721  11.640  0.0907  0.1223 -0.1055
10840W        W27314  16.106   0.938   3.229 -0.2008 -0.0759  0.0010
10841W        W27315   7.361  14.534  11.836 -0.3109 -0.1245 -0.1206
10842W        W27316  16.133   1.100   0.201  0.0524 -0.0643  0.2231
10843W        W27317   8.662  14.934   2.848 -0.1473 -0.1308 -0.3445
10844W        W27318  15.967   4.025   3.338  0.1543  0.0035  0.2340
10845W        W27319  14.920  17.362  16.341 -0.0962  0.2013  0.2550
10846W        W27320   6.793   3.496   5.678 -0.0208  0.1227 -0.0503
10847W        W27321  16.589  13.329   4.180  0.2951 -0.1980 -0.2977
10848W        W27322   6.957   3.063  11.300  0.0389  0.1292 -0.1399
10849W        W27323   8.569   4.264   1.498  0.0385  0.0690 -0.0298
10850W        W27324   7.503  16.986   0.381  0.2439 -0.0700 -0.0695
10851W        W27325   2.773   5.781   0.850  0.1392 -0.0829  0.0792
10852W        W27326   4.031  14.184   1.988 -0.1118 -0.2517  0.0256
10853W        W27327   6.704   3.924   2.676 -0.2761 -0.0906 -0.0767
10854W        W27328  17.305  11.608   1.147 -0.0346  0.1361 -0.1714
10855W        W27329   7.663   4.073   0.361 -0.2642 -0.0175 -0.0477
10856W        W27330  17.631   8.093  15.125 -0.1569 -0.0812  0.0520
10857W        W27331  12.936   7.223  14.022  0.0651  0.1724  0.1437
10858W        W27332   0.743   8.386   4.314  0.0471 -0.0161 -0.0410
10859W        W27333  14.515  12.575  13.088  0.1482 -0.0274 -0.1083
10860W        W27334  16.599   1.556  15.567 -0.1627  0.0361  0.2412
10861W        W27335   7.802  18.083  12.463 -0.4009  0.0184  0.1063
10862W        W27336   9.646   6.949  13.808 -0.2353  0.1480  0.0870
10863W        W27337  10.928  14.429  10.781 -0.1515 -0.0077 -0.0760
10864W        W27338  12.185  17.400   4.080  0.0808 -0.1422  0.2228
10865W        W27339   4.733   7.611  15.795 -0.2557  0.0591 -0.2473
10866W        W27340  11.502  15.585   2.846  0.2011  0.0530  0.0048
10867W        W27341   4.945  15.395   3.604  0.0349 -0.2464  0.0992
10868W        W27342   1.626  13.833   2.181  0.0495 -0.0592  0.0598
10869W        W27343  10.852  15.062   1.782  0.1241  0.0975 -0.2507
10870W        W27344   5.029   9.085   4.752 -0.2080  0.0431  0.1361
10871W        W27345  13.614   3.236   2.796 -0.2831 -0.2262  0.0534
10872W        W27346   3.612  16.825   2.848  0.4582 -0.1118 -0.2308
10873W        W27347   1.386  14.620  11.414 -0.1663  0.2339 -0.2320
10874W        W27348  15.742   3.436   1.774 -0.1905  0.1326  0.0129
10875W        W27349  10.149   0.032  12.868 -0.0976  0.0516 -0.1102
10876W        W27350   2.048  17.616  15.918 -0.3090 -0.3141  0.1092
10877W        W27351  11.108   9.214  12.455 -0.1135 -0.1684  0.2870
10878W        W27352  14.287  10.214   4.358 -0.2961  0.0812  0.1165
10879W        W27353  13.224   4.810   2.443  0.0029 -0.0628 -0.1543
10880W        W27354   4.822   7.401   4.794  0.0748 -0.2083  0.0607
10881W        W27355   7.178  16.862  10.726  0.0530  0.0803  0.1037
10882W        W27356   1.795   4.913   1.239  0.1088  0.0415 -0.1780
10883W        W27357  13.939  10.021   0.667 -0.0338 -0.0747 -0.0608
10884W        W27358   3.412   2.012  11.704  0.3461  0.0759 -0.2250
10885W        W27359  15.189   3.525  13.351  0.1473  0.2658 -0.0495
10886W        W27360   0.587   4.886   1.502 -0.1929 -0.2621 -0.1915
10887W        W27361   3.348   8.169   2.235 -0.1136 -0.1110  0.1815
10888W        W27362   9.889   0.962   0.408  0.0507  0.0894  0.2224
10889W        W27363   8.542   5.228   1.027  0.1243 -0.0821 -0.0393
10890W        W27364   1.156  16.769   4.451 -0.0302 -0.0034  0.1130
10891W        W27365  10.961   5.921   0.187  0.1611 -0.0352 -0.0959
10892W        W27366  14.922   5.652   2.862 -0.1013  0.1711  0.3122
10893W        W27367   1.308   4.357  14.341  0.0661  0.0126  0.0640
10894W        W27368   4.920  13.892  12.874 -0.1176 -0.1963 -0.1560
10895W        W27369   6.968   9.814  16.136 -0.0356 -0.2974  0.0911
10896W        W27370   8.360   6.765  13.433  0.0788  0.2359  0.2504
10897W        W27371  14.907  16.913  11.687 -0.0827  0.1873  0.0267
10898W        W27372  10.725   7.615  11.370  0.0718  0.4319 -0.1272
10899W        W27373   0.749  16.311  14.043 -0.0348 -0.0666  0.0367
10900W        W27374   3.592  11.231   2.447 -0.1037  0.0398  0.0294
10901W        W27375   4.972   9.906   1.174 -0.1754  0.1667 -0.1496
10902W        W27376  15.222   4.668  15.189  0.3711 -0.1928  0.0249
10903W        W27377   6.648   7.901   4.868 -0.0372 -0.2253 -0.2319
10904W        W27378  13.988  15.179  12.686 -0.0490 -0.0849  0.0106
10905W        W27379   1.966   9.519   2.466  0.0208 -0.1998 -0.2565
10906W        W27380   5.251  14.827   1.146 -0.1090 -0.1226 -0.0291
10907W        W27381   3.050   0.561   4.490 -0.3714  0.1174  0.1414
10908W        W27382   0.486  12.802  11.535 -0.1422  0.2497 -0.1191
10909W        W27383   1.727   0.920  14.817 -0.1131  0.0168  0.0683
10910W        W27384  16.253  11.453  12.725 -0.0302  0.0459 -0.0742
10911W        W27385  12.380  10.028  13.796  0.3726  0.1507 -0.1306
10912W        W27386   4.286  11.330   9.853  0.0051 -0.0709 -0.1996
10913W        W27387  14.810   6.854  16.198 -0.2117  0.1995 -0.1087
10914W        W27388  15.274   1.443  14.596 -0.0067  0.0704  0.2811
10915W        W27389  11.996   2.653  12.239  0.0067  0.0279  0.2343
10916W        W27390  13.082   1.288   3.386 -0.2088 -0.1727  0.2150
10917W        W27391   7.341  13.155  14.788  0.1220 -0.3389  0.2003
10918W        W27392  15.570  16.192  14.808  0.1167  0.4204 -0.1282
10919W        W27393   8.654   7.258  15.984  0.0932  0.1220 -0.3736
10920W        W27394   9.323  17.242   4.539  0.0419 -0.1847  0.0022
10921W        W27395  17.728  13.743  14.922 -0.0211 -0.3066 -0.1893
10922W        W27396   8.312   1.275   5.415  0.0382 -0.2364 -0.0661
10923W        W27397   8.910  11.706   0.096 -0.1645  0.1032  0.0512
10924W        W27398   4.618  13.138   4.567 -0.1176 -0.2475 -0.2061
10925W        W27399  10.368   3.799   4.540 -0.0280  0.1329 -0.2530
10926W        W27400   0.334   2.927  12.720 -0.1486  0.0142  0.2818
10927W        W27401  11.855  16.829   6.123 -0.0976  0.0809 -0.0185
10928W        W27402   2.571  16.796  10.541  0.0820 -0.0950 -0.2065
10929W        W27403   3.646  15.391  12.764 -0.1898  0.2018 -0.0913
10930W        W27404  16.309   8.184   0.290  0.2663  0.0644  0.0754
10931W        W27405   4.995  17.214   0.500 -0.2436 -0.0585 -0.1376
10932W        W27406   9.309  15.355  14.293  0.1301  0.1422 -0.3005
10933W        W27407  15.248   7.021   2.938  0.1529  0.1469 -0.1822
10934W        W27408  10.272  10.956  14.056  0.1678  0.1019 -0.1222
10935W        W27409   0.323  15.237   3.006  0.0611  0.2871 -0.0343
10936W        W27410   2.653  15.172  14.617 -0.1358 -0.2104  0.0637
10937W        W27411   3.738   5.513   1.337 -0.0686 -0.1146 -0.0716
10938W        W27412   9.545   6.491   4.901 -0.1337  0.1550 -0.1342
10939W        W27413  16.615  11.444  14.644  0.2445  0.0924 -0.2325
10940W        W27414  12.878   7.984   4.275 -0.1063 -0.1645  0.0071
10941W        W27415  12.537   0.159   1.650 -0.1431 -0.2276 -0.0381
10942W        W27416  12.713  16.605   5.449  0.0742 -0.2827  0.1342
10943W        W27417  16.287  17.533   4.524  0.0003  0.1070  0.2086
10944W        W27418  12.777  10.567  12.034 -0.0069  0.0098 -0.0399
10945W        W27419  12.907   7.976   5.495  0.0414 -0.2400  0.1820
10946W        W27420   1.379  12.478   0.403  0.3348 -0.2308  0.3966
10947W        W27421   6.311   5.318   4.181 -0.0294 -0.0359 -0.1129
10948W        W27422   8.644  10.800   0.408 -0.3653 -0.4721  0.3132
10949W        W27423   8.730  17.508   3.690  0.1244 -0.0956  0.1561
10950W        W27424   7.845  10.134  12.334 -0.0474 -0.1628 -0.1332
10951W        W27425  16.850  16.218   1.180  0.2051 -0.2030 -0.0148
10952W        W27426  17.680   1.645  15.872  0.2313 -0.1297 -0.1654
10953W        W27427   6.041   8.827  10.374 -0.0967  0.0915  0.5218
10954W        W27428  11.084   6.134   3.313  0.2055  0.0624 -0.0496
10955W        W27429   4.877   8.520  15.699  0.0885 -0.0201  0.1949
10956W        W27430   2.588   7.855  13.664 -0.0962 -0.2343  0.0035
10957W        W27431  15.573  15.802  14.425  0.1883 -0.0994 -0.1090
10958W        W27432   2.302  11.844  10.257 -0.2886 -0.1918 -0.3860
10959W        W27433   0.814   0.349  11.451  0.2133  0.0136  0.0849
10960W        W27434   5.539   6.818   2.211 -0.0853  0.0428  0.3133
10961W        W27435  16.358  10.225  15.257  0.1741 -0.2396  0.2396
10962W        W27436   5.073   6.800   2.049 -0.0041  0.1304 -0.1255
10963W        W27437  14.391   0.140  11.470 -0.0754 -0.0771 -0.1598
10964W        W27438  10.592  16.578   3.132  0.0140 -0.0233 -0.1845
10965W        W27439  11.644  12.338  12.027  0.0911  0.0371 -0.0875
10966W        W27440   4.671  15.650   2.640 -0.0155  0.2043 -0.0176
10967W        W27441  12.703   6.290   1.570 -0.1721  0.2902  0.1313
10968W        W27442   3.819   1.809  16.087 -0.3618 -0.0596 -0.0189
10969W        W27443  17.428  14.553   3.872  0.0084 -0.0192 -0.2382
10970W        W27444   8.638   2.638   3.354 -0.1981 -0.0364  0.0116
10971W        W27445  18.048   4.413  13.803 -0.1452 -0.0032 -0.0198
10972W        W27446  10.143   8.360   0.609  0.2538  0.3118  0.0811
10973W        W27447  11.701   9.030  13.162  0.0571 -0.0254  0.0533
10974W        W27448   6.228   3.887   2.194 -0.0354 -0.1129  0.0719
10975W        W27449   8.328  11.692  11.305  0.1459  0.1277 -0.0378
10976W        W27450   9.048   0.041   2.241  0.2731  0.2909 -0.3247
10977W        W27451   4.410   9.659  14.938 -0.0028 -0.2444 -0.0243
10978W        W27452  14.133  14.158   5.007 -0.0789  0.0069  0.0139
10979W        W27453  16.334   9.201   3.775  0.1053  0.2334  0.2618
10980W        W27454   2.751   8.944  14.479 -0.2056  0.0437 -0.0737
10981W        W27455   7.720  10.681   2.065 -0.0560 -0.3242 -0.1282
10982W        W27456  11.932   7.182  13.826  0.1580 -0.0322  0.0820
10983W        W27457  11.220   7.753  12.435 -0.0573  0.0679 -0.0628
10984W        W27458   7.737  13.739   3.405 -0.0240  0.3469 -0.1830
10985W        W27459   9.580  11.572  12.756 -0.0021 -0.1238  0.0949
10986W        W27460  16.573   2.702   0.054 -0.0904 -0.2179  0.1408
10987W        W27461   8.512   3.891  11.927 -0.1964 -0.2771  0.0327
10988W        W27462  16.567  17.643   2.104  0.2763  0.1896  0.2853
10989W        W27463   5.140  16.446  12.530  0.0298  0.0565 -0.0689
10990W        W27464   0.036  14.766  13.447 -0.2042  0.0713 -0.0023
10991W        W27465  17.808   0.878  14.309  0.1407 -0.0280  0.3880
10992W        W27466   5.864  14.164  12.333 -0.0892 -0.1429  0.2061
10993W        W27467  14.677  10.030  11.315  0.0279 -0.0778  0.1179
10994W        W27468  13.908  17.872  15.676  0.1723 -0.1557 -0.0155
10995W        W27469   5.667   9.246   2.736 -0.2634  0.2953  0.0471
10996W        W27470   8.800  15.297  14.560  0.0126 -0.1148 -0.3198
10997W        W27471   0.120  11.796  15.823 -0.0461 -0.1112 -0.0937
10998W        W27472  15.739  14.568  16.339  0.1527 -0.2228 -0.0175
10999W        W27473   1.360  10.938  15.055 -0.2160  0.2202 -0.1983
11000W        W27474  17.748   1.961  11.821  0.0445  0.2915 -0.1028
11001W        W27475  13.980   7.502   0.716  0.0169  0.0002 -0.0367
11002W        W27476   8.791   6.500   4.386  0.2720 -0.2081 -0.1965
11003W        W27477   5.991   8.070   4.928 -0.1028 -0.0906 -0.1819
11004W        W27478   9.375  16.960   3.649 -0.0178 -0.2469  0.2774
11005W        W27479   1.366  11.382   4.496  0.1815  0.0792  0.0252
11006W        W27480   1.908   1.894  15.233  0.0220  0.0812 -0.0428
11007W        W27481  14.232   7.689   2.664  0.5390 -0.1260 -0.1777
11008W        W27482   2.346  17.913  13.605 -0.1236 -0.0393  0.1165
11009W        W27483   7.491  14.205   3.486 -0.1149 -0.0452 -0.0720
11010W        W27484   3.743  13.169  15.421 -0.1100  0.0460  0.0867
11011W        W27485  17.210   5.794   1.853  0.3134  0.1248  0.0571
11012W        W27486  13.048  15.911  13.292  0.1347  0.0684 -0.2116
11013W        W27487   4.483   8.013  12.077 -0.1069 -0.1430 -0.2829
11014W        W27488   0.831  10.940   4.420  0.1891 -0.1162  0.0678
11015W        W27489  16.170  16.050  16.211  0.3497 -0.0217  0.1051
11016W        W27490   7.351  18.143  14.750 -0.1828 -0.0083  0.0997
11017W        W27491  11.709   0.879  11.993  0.2548  0.2550  0.3121
11018W        W27492   7.675   0.783  15.795 -0.2056 -0.1015 -0.4378
11019W        W27493  13.906  13.034  12.081 -0.1970  0.0582  0.2153
11020W        W27494   0.523   2.317   2.332  0.1638  0.1419  0.3089
11021W        W27495   2.799   0.933   2.217  0.2575  0.0119  0.0182
11022W        W27496  17.989  13.613  12.875  0.0549  0.1429 -0.1034
11023W        W27497   5.431   6.209  12.653  0.3881 -0.2013 -0.2974
11024W        W27498  14.037  11.173   1.055  0.0633 -0.0444  0.1785
11025W        W27499  11.309  14.805  11.464  0.0938  0.2659 -0.1174
11026W        W27500  17.610   3.274   0.347 -0.3363  0.0571  0.2025
11027W        W27501  17.155   5.702  13.241  0.0384  0.1263  0.0005
11028W        W27502  11.866   1.184   1.208 -0.0218 -0.1937  0.3369
11029W        W27503  13.540  17.276   2.003 -0.0277  0.1786 -0.2979
11030W        W27504  12.951  16.848  12.502 -0.0369  0.0641  0.1242
11031W        W27505  12.113  11.326   4.665  0.1336  0.1454 -0.1581
11032W        W27506  12.185  13.479  11.191 -0.0888  0.1177  0.1691
11033W        W27507   6.593  10.813  15.742 -0.3001  0.3829 -0.1147
11034W        W27508  13.044   3.174   1.185 -0.0407 -0.0372  0.2216
11035W        W27509   6.147  14.168   4.299  0.0179  0.1015 -0.0051
11036W        W27510   1.416  15.861   2.745  0.1867 -0.0285  0.0536
11037W        W27511   1.810   5.280  12.288  0.0884 -0.1472 -0.0082
11038W        W27512  11.396   3.882  14.087 -0.2999 -0.0851 -0.3728
11039W        W27513   1.070   8.047   4.388  0.2172  0.1367 -0.0179
11040W        W27514   7.459   0.030   0.470 -0.3240  0.1616 -0.0521
11041W        W27515   7.342  14.278  12.362 -0.0558  0.0644 -0.1694
11042W        W27516   0.202  10.104  14.801 -0.0047 -0.2810  0.4654
11043W        W27517   7.776   1.334  12.177 -0.0847 -0.0747 -0.0693
11044W        W27518  12.086   2.778   4.694 -0.3261  0.3713 -0.1154
11045W        W27519   8.165   2.643   0.276  0.1159 -0.0328  0.1365
11046W        W27520   5.419   3.725   1.915  0.0189 -0.2956 -0.0190
11047W        W27521   8.542  17.041  11.122 -0.0867 -0.1930 -0.1864
11048W        W27522   7.112   1.071   4.293 -0.3213  0.1397 -0.0463
11049W        W27523  14.942   3.953  14.229  0.0576  0.1895  0.0792
11050W        W27524   6.813   6.289  15.889  0.0852 -0.0956  0.2886
11051W        W27525  10.965   9.528  14.659  0.0616  0.1082  0.0375
11052W        W27526  15.950  14.819   0.911  0.0368 -0.1092  0.2114
11053W        W27527   4.404  13.697   2.897  0.0285  0.1351 -0.1023
11054W        W27528  13.299   0.603   2.751  0.0170  0.2308  0.0080
11055W        W27529  14.244   8.408   1.101  0.0460 -0.1026  0.1379
11056W        W27530   2.500  16.164   0.478  0.0723 -0.2395  0.0353
11057W        W27531  13.621   7.088   3.458  0.1222  0.0151 -0.4452
11058W        W27532  17.217  13.023   3.984 -0.0023  0.1246  0.1272
11059W        W27533   7.995  11.386  13.787 -0.3248  0.2865 -0.1606
11060W        W27534  13.008   3.407   3.547  0.0589  0.0305  0.1396
11061W        W27535  12.046  11.343  13.795 -0.2518  0.2063 -0.0448
11062W        W27536  16.736   0.163   1.397  0.2634 -0.0528 -0.1260
11063W        W27537   2.230  14.836  12.851 -0.0427 -0.0515  0.0056
11064W        W27538  13.739  13.758   4.242 -0.0568 -0.1238  0.1035
11065W        W27539   4.911  11.896  12.308  0.1346  0.1920  0.0477
11066W        W27540   0.245   3.815  15.193  0.0245  0.0481 -0.2544
11067W        W27541  12.876  13.823   1.102 -0.0865 -0.0063  0.2018
11068W        W27542   2.001   8.966   4.633 -0.0814  0.0843 -0.1129
11069W        W27543   5.694   1.708  12.852  0.2051 -0.1658  0.0871
11070W        W27544  15.668   1.420  11.645  0.0689 -0.2497  0.2585
11071W        W27545   7.305  12.043   4.531 -0.1475  0.1463 -0.0495
11072W        W27546  14.717   6.573  12.849 -0.0014 -0.0056  0.0319
11073W        W27547  17.380   9.585   2.222  0.0588  0.2646  0.0326
11074W        W27548  10.161  15.997  14.103  0.2148 -0.0068  0.0684
11075W        W27549  10.183  17.973  12.417  0.1528  0.1645  0.2061
11076W        W27550   7.018  11.972   0.394 -0.0576 -0.3796 -0.2487
11077W        W27551  13.322   0.990   3.066 -0.0468 -0.0376 -0.1639
11078W        W27552  17.569  11.990  14.372  0.2167 -0.0333  0.0401
11079W        W27553   6.969  13.027  10.867  0.3570 -0.1754  0.1861
11080W        W27554   9.631  12.909   1.983  0.2541  0.2515  0.0367
11081W        W27555   7.756   9.165   0.096 -0.1514 -0.1277 -0.2272
11082W        W27556   7.108  14.206   2.649 -0.0935 -0.1250 -0.1400
11083W        W27557   5.702   9.226   3.738  0.1475 -0.2812  0.3939
11084W        W27558  11.822   0.160  14.809  0.1430 -0.1661 -0.1614
11085W        W27559  11.936   7.395  15.056  0.1842 -0.1247  0.0396
11086W        W27560   5.565  15.434   2.379  0.0116 -0.2208  0.1429
11087W        W27561  16.000   1.073  13.852 -0.0756  0.1099 -0.0164
11088W        W27562   4.156  10.674  11.175 -0.2976  0.2804 -0.1767
11089W        W27563   4.365   3.512  13.848  0.1361 -0.2525  0.1431
11090W        W27564   6.922   4.412   1.695  0.3093 -0.0377  0.1872
11091W        W27565   4.649  16.765   1.262  0.2236  0.4599 -0.0101
11092W        W27566  14.660  18.099   2.776 -0.2130 -0.1951  0.0688
11093W        W27567  17.815   4.111  14.114  0.1102  0.1395  0.0341
11094W        W27568   8.152   7.106  15.790  0.2169  0.4868  0.0127
11095W        W27569   7.187  11.313  16.164  0.2024  0.2725  0.4134
11096W        W27570  17.559   3.726   1.939 -0.0707  0.1588 -0.1226
11097W        W27571  15.661   6.441  15.189 -0.1162  0.1238  0.1339
11098W        W27572   8.102  11.455  16.031  0.3359 -0.1758  0.0983
11099W        W27573   0.509  11.998  11.504  0.1963  0.1835  0.0801
11100W        W27574   7.305   3.489  16.018 -0.0657 -0.1569 -0.1086
11101W        W27575  14.287  14.353   3.096  0.0831  0.1629  0.2238
11102W        W27576  17.369  15.364  15.893 -0.0949  0.0876 -0.1282
11103W        W27577  15.428  16.674  14.926 -0.0701 -0.1522 -0.0905
11104W        W27578   4.330  13.047   2.216  0.0452  0.1686  0.0680
11105W        W27579   6.539  11.153  15.321  0.1889 -0.0039 -0.0705
11106W        W27580   8.221  14.915  14.180 -0.2437 -0.1913  0.1582
11107W        W27581  12.835  15.593   4.408 -0.1667  0.1676 -0.1986
11108W        W27582   7.748  17.803   3.530  0.1418  0.2465  0.1196
11109W        W27583  15.462  14.479  15.444 -0.1561 -0.3950  0.1790
11110W        W27584  17.430   9.917  16.033 -0.1961  0.0023  0.0080
11111W        W27585  12.558  13.186   1.382 -0.1208  0.2361 -0.0549
11112W        W27586   5.459   6.695  10.775  0.0132  0.2777 -0.1197
11113W        W27587   8.945   6.034   1.862 -0.0327  0.0712 -0.1784
11114W        W27588  16.905   2.343   3.258  0.1402 -0.0909  0.0731
11115W        W27589  18.153  11.191   4.949 -0.0308 -0.2436 -0.2101
11116W        W27590   3.134   3.152   1.321  0.3218 -0.1377 -0.4010
11117W        W27591   7.044  16.315  12.247  0.0107 -0.2999  0.0106
11118W        W27592  13.462  10.735   2.778 -0.0086  0.2563  0.0675
11119W        W27593  12.121   4.644   4.944 -0.2212 -0.0030  0.0498
11120W        W27594   6.431   5.270   0.227 -0.0781 -0.1446  0.0663
11121W        W27595  10.351  16.824  14.413  0.0136  0.1581  0.0404
11122W        W27596   4.250  15.647   0.016 -0.3694 -0.0906  0.0026
11123W        W27597  17.982  15.321   4.929 -0.0746 -0.1303 -0.0345
11124W        W27598   3.482   9.785  12.956  0.0177  0.2322 -0.1545
11125W        W27599   7.358  14.749  12.562  0.0056 -0.0783 -0.1134
11126W        W27600  14.092   1.461  10.347 -0.0899 -0.0977  0.1763
11127W        W27601  11.176   4.370  14.129 -0.0274 -0.0150  0.2237
11128W        W27602   6.335   3.830   3.947 -0.0307  0.0968 -0.3675
11129W        W27603  12.534  10.371  13.424  0.0084  0.3787 -0.0950
11130W        W27604   5.894   8.524   3.997  0.1070  0.2009 -0.0008
11131W        W27605  15.678  14.748   2.233 -0.0618  0.1288 -0.2923
11132W        W27606  12.115  17.463   5.267 -0.1813 -0.2513  0.3390
11133W        W27607  13.484   2.112  15.930 -0.1697 -0.1425  0.0229
11134W        W27608  16.984  12.750   0.806 -0.2063  0.0885  0.1252
11135W        W27609   6.520   8.903   0.991  0.0393 -0.3334  0.0372
11136W        W27610   7.575  15.027  10.937  0.0506  0.1136  0.0593
11137W        W27611   5.959  17.694  15.159  0.0012  0.2886 -0.1160
11138W        W27612   9.631  12.990   1.461  0.2474  0.1214  0.0836
11139W        W27613   3.100  10.632   3.731  0.2749  0.1063  0.2435
11140W        W27614  15.968  18.085  15.095 -0.0038  0.1122  0.0674
11141W        W27615   6.890   9.067  11.476 -0.0638 -0.0454 -0.1894
11142W        W27616   2.255  12.601  14.850  0.0360  0.3245 -0.1122
11143W        W27617  14.754  13.987   1.840 -0.2080 -0.2300 -0.1264
11144W        W27618  13.159   8.717  12.206 -0.0182 -0.1918 -0.2095
11145W        W27619   0.773   6.751   0.763 -0.0717  0.0968 -0.0208
11146W        W27620  10.850  14.373  14.078 -0.1639 -0.3939 -0.2700
11147W        W27621   0.240   3.521  14.158  0.2915  0.0788 -0.1358
11148W        W27622   4.831   8.105   2.501 -0.1276  0.1930 -0.2817
11149W        W27623   0.847   1.377  14.376 -0.0007 -0.4683 -0.2085
11150W        W27624   9.869   1.223   4.390  0.0669 -0.0349 -0.0755
11151W        W27625  12.935   5.143  11.495 -0.2012 -0.0988  0.2293
11152W        W27626   2.832  13.431  11.320 -0.0975 -0.1069 -0.2946
11153W        W27627  15.055  12.039  15.583  0.0579  0.0071 -0.0085
11154W        W27628   8.676   3.349   1.343 -0.0726  0.0238 -0.0169
11155W        W27629  14.226  17.456  11.896 -0.0595  0.0176 -0.3543
11156W        W27630   3.650  15.530   4.111 -0.1053 -0.0682  0.5281
11157W        W27631  13.707   9.830   5.767 -0.0201 -0.0582  0.2270
11158W        W27632  12.039  10.794  13.758 -0.0551 -0.1984  0.2705
11159W        W27633   2.418  16.582  13.244 -0.2402 -0.0588 -0.0344
11160W        W27634   4.457  16.659   3.269  0.2027  0.1921 -0.2009
11161W        W27635  12.305  15.670  11.450  0.1308  0.0359  0.1436
11162W        W27636   9.855   7.081   3.727 -0.0023  0.0919 -0.2941
11163W        W27637   1.739   8.995   1.230  0.3404  0.1993  0.0564
11164W        W27638  16.712   0.047  14.274  0.1597  0.2270  0.0578
11165W        W27639  15.669  10.193   4.640  0.0965  0.1377 -0.0638
11166W        W27640   6.819   9.755  10.567 -0.1745  0.0795  0.1115
11167W        W27641  16.336   9.249   5.294 -0.3540 -0.3136 -0.1241
11168W        W27642   4.542   1.545   0.420  0.1331 -0.2943 -0.1653
11169W        W27643  14.532   3.528  12.044  0.0707  0.0085  0.0737
11170W        W27644  16.457  16.678  13.771  0.0580  0.1037  0.2408
11171W        W27645  10.792   8.061  12.302  0.0607  0.3481  0.0603
11172W        W27646  13.080   8.165  12.362  0.0248 -0.1442 -0.0431
11173W        W27647  12.701   0.749   5.552  0.2630  0.0094 -0.1497
11174W        W27648  14.509   5.162  11.003  0.1186 -0.0907  0.2554
11175W        W27649   4.687  11.245  13.576  0.0152 -0.0918  0.1590
11176W        W27650   9.838   9.771   3.643  0.0120 -0.0704 -0.3471
11177W        W27651  14.313  11.936   1.687 -0.0432  0.0425 -0.2746
11178W        W27652  10.160   6.022   5.955  0.2759  0.1115  0.0839
11179W        W27653  12.705  12.412  13.923  0.2225 -0.0115 -0.1436
11180W        W27654  14.431  15.328   2.868 -0.0098  0.1674 -0.0282
11181W        W27655  10.566   4.806  16.204  0.0343 -0.0320  0.0785
11182W        W27656   1.375   6.499  16.337  0.0271 -0.0470 -0.1354
11183W        W27657   3.164  15.423   3.535  0.2710  0.0460  0.0002
11184W        W27658  15.117  10.607  14.016  0.3319  0.1086 -0.1100
11185W        W27659  11.021  17.364  13.736 -0.1549 -0.2096  0.0877
11186W        W27660  10.749   1.284  16.059  0.1467 -0.1172 -0.0518
11187W        W27661   2.491   0.029  11.318 -0.1740  0.1547  0.1440
11188W        W27662  16.548   6.315   4.972  0.2374 -0.0406 -0.0961
11189W        W27663   2.979   0.806   5.213 -0.0461 -0.0275  0.2557
11190W        W27664  15.915   6.667   2.592 -0.0039 -0.0493 -0.1689
11191W        W27665  14.887  14.150   4.131  0.0505  0.0464  0.0169
11192W        W27666  11.967   0.692   1.635  0.0906  0.1293  0.1730
11193W        W27667  14.082   8.372   3.203  0.1576  0.1523  0.1736
11194W        W27668  13.551   8.078  12.266 -0.2901 -0.3979  0.0758
11195W        W27669  15.887   8.365  11.515  0.1470  0.0702 -0.1265
11196W        W27670  15.556   7.818   4.509 -0.1624  0.1437  0.1909
11197W        W27671   3.227   4.107   4.415  0.0598 -0.1486 -0.0299
11198W        W27672   2.358   5.451   4.848 -0.4217 -0.1801 -0.1897
11199W        W27673   3.820   1.517   1.355 -0.1276 -0.1716 -0.2704
11200W        W27674  13.817  15.548  11.515  0.1711  0.0063  0.2757
11201W        W27675   2.154  15.626  12.080 -0.2152 -0.0948  0.1665
11202W        W27676   7.813   4.306  13.135  0.1612  0.1267 -0.1178
11203W        W27677  16.882  11.149  14.060  0.0415  0.0609  0.0206
11204W        W27678   1.226  13.731  12.730 -0.0766  0.3590 -0.0310
11205W        W27679   5.430   3.847  11.806  0.2231  0.3218  0.2040
11206W        W27680   1.711   6.016  12.957 -0.0056  0.2059 -0.0693
11207W        W27681   2.875  14.366  11.960  0.2255  0.1051  0.2026
11208W        W27682  17.067   6.014  12.749  0.0809  0.0431 -0.0191
11209W        W27683   3.724  17.370  15.107 -0.1319  0.2128 -0.0989
11210W        W27684  11.788   4.793   2.170 -0.1565  0.2464  0.1179
11211W        W27685  11.048  15.113   6.195 -0.2077 -0.0487  0.1512
11212W        W27686  15.928   9.511  12.048  0.0898  0.1336  0.2281
11213W        W27687  16.603   5.297  14.836  0.1440 -0.0133  0.2933
11214W        W27688  14.266   3.393   0.040  0.0457  0.0512 -0.2231
11215W        W27689  16.192  16.688   2.494  0.0785 -0.1250  0.1690
11216W        W27690  17.965   4.930   3.135 -0.0691 -0.2474  0.2231
11217W        W27691  16.666  11.169   0.659  0.1097  0.0913  0.1692
11218W        W27692  10.903  16.134   0.796  0.3004  0.0797  0.0631
11219W        W27693   6.155   9.633  15.372 -0.4410 -0.2646 -0.3092
11220W        W27694   7.790   8.805  14.501 -0.0573 -0.0227 -0.3574
11221W        W27695  17.442  13.120  12.914  0.0063 -0.1036  0.0573
11222W        W27696   4.229   1.486  16.049  0.0712  0.0750 -0.2106
11223W        W27697  15.302   7.271   0.427  0.1311  0.0231  0.0560
11224W        W27698  16.856   6.510  11.976 -0.1231  0.0835  0.3917
11225W        W27699  15.997   2.215   2.183  0.2309 -0.1574 -0.1619
11226W        W27700   6.688   2.961  14.477 -0.0592  0.1637  0.1329
11227W        W27701  12.519  11.533   4.493  0.0513 -0.0501  0.0027
11228W        W27702   1.729  14.763   4.348 -0.0372  0.0673  0.1227
11229W        W27703   7.428  11.088   2.301 -0.1927 -0.0139 -0.1321
11230W        W27704   3.312   5.780   0.020 -0.1131 -0.0754 -0.0438
11231W        W27705   9.299  17.161  13.090 -0.0977 -0.1786 -0.1134
11232W        W27706   7.437  14.285   5.176  0.2836  0.0857  0.0359
11233W        W27707   5.101  15.354  13.711  0.0163  0.1678 -0.0386
11234W        W27708   1.214   0.051  13.970 -0.3374  0.3148  0.0877
11235W        W27709   2.580  10.095   2.124  0.1384  0.5778  0.0264
11236W        W27710   1.349  10.744  13.869 -0.2455  0.0048  0.4498
11237W        W27711  10.491   6.600  16.089  0.1258 -0.3039  0.1036
11238W        W27712   9.832   3.747  13.524 -0.1650  0.2311 -0.4271
11239W        W27713   6.584   7.025  15.777  0.2990 -0.1136 -0.2161
11240W        W27714   8.422  11.281  14.171  0.2409  0.0349 -0.1819
11241W        W27715   2.728   3.000  13.253 -0.0852  0.1827  0.2851
11242W        W27716  11.046   6.178  13.814  0.0932 -0.2703  0.1189
11243W        W27717  13.623  11.511  11.407  0.5893 -0.0665 -0.1637
11244W        W27718   5.099   8.877   3.734  0.1086 -0.0917  0.1922
11245W        W27719  10.826   9.620  15.514 -0.3876  0.1439  0.3126
11246W        W27720   1.441  11.820   0.589  0.1674  0.1884 -0.1331
11247W        W27721   0.397   1.258  14.647 -0.0864 -0.0583  0.1838
11248W        W27722   2.986   1.384   5.273  0.0709  0.0376 -0.2550
11249W        W27723   6.300  12.734   2.966 -0.0984 -0.1993 -0.1394
11250W        W27724   4.996  10.307  11.384  0.2244 -0.1543  0.0438
11251W        W27725  17.569   0.946   0.135  0.1492 -0.2509  0.0455
11252W        W27726  10.219  14.398  15.920  0.0406 -0.0510 -0.0217
11253W        W27727   7.605   6.281  15.496  0.1292 -0.1801 -0.1392
11254W        W27728  17.868   9.632  11.184 -0.2299  0.0010 -0.1687
11255W        W27729   9.933   7.137  14.205  0.2572  0.3686  0.1215
11256W        W27730   4.270   3.036   4.816 -0.2106  0.0073  0.2655
11257W        W27731   1.320   9.413  13.767  0.2438  0.1409  0.0598
11258W        W27732   3.007   5.440   3.067  0.1654 -0.5153  0.1924
11259W        W27733  14.427  15.617  14.293 -0.3079 -0.0431 -0.0687
11260W        W27734  10.224  15.618  12.835 -0.0008 -0.1959 -0.2532
11261W        W27735   0.768   3.647   5.111  0.1390 -0.1337  0.1133
11262W        W27736  18.147  10.621  13.799 -0.2819 -0.1431 -0.0793
11263W        W27737   7.053   1.460  12.504 -0.2540 -0.0392 -0.0373
11264W        W27738   3.576  16.077   4.877 -0.1845  0.0321 -0.2326
11265W        W27739  14.734   6.466   3.481  0.1387 -0.1213  0.1814
11266W        W27740  11.598  15.633   2.338  0.1805 -0.0663  0.0354
11267W        W27741  15.455   8.559   6.266 -0.1002 -0.1025 -0.0440
11268W        W27742   7.256   5.346   3.243  0.3234  0.2170  0.1237
11269W        W27743   9.993  17.558  14.735  0.0341 -0.0616 -0.0759
11270W        W27744   4.665   7.822  15.298 -0.0021 -0.1296 -0.2280
11271W        W27745   6.738  11.862  15.533  0.1304 -0.2911 -0.1738
11272W        W27746  16.368  17.145   2.840  0.1154  0.0781 -0.0120
11273W        W27747  17.536   8.004   4.756 -0.1238  0.2410  0.0300
11274W        W27748  14.669  17.830   0.953  0.1211 -0.0727 -0.0205
11275W        W27749  15.991   8.571   0.273  0.0027  0.1474  0.0454
11276W        W27750  11.673   7.359   0.646 -0.3012  0.0043  0.0797
11277W        W27751  17.139  16.688   5.222  0.2713 -0.2331 -0.1135
11278W        W27752  10.347   1.328   4.086 -0.1700  0.1964 -0.0211
11279W        W27753   8.494   5.849  16.023  0.0945 -0.0488 -0.2538
11280W        W27754   0.089   2.383  12.219 -0.0045 -0.0702 -0.2774
11281W        W27755   3.638   9.113  13.817  0.1705 -0.1344  0.1258
11282W        W27756   2.078  12.920  11.577 -0.0921 -0.1690 -0.0169
11283W        W27757  11.594  12.725  13.141 -0.0398 -0.1028 -0.2733
11284W        W27758   6.592  13.115  14.224 -0.0793  0.0552 -0.1856
11285W        W27759   4.292  12.108   2.277 -0.0970  0.1487  0.1559
11286W        W27760   2.303   0.830  15.297 -0.2016  0.0564 -0.5110
11287W        W27761   5.695   6.031  13.777  0.2350 -0.0906 -0.1717
11288W        W27762   5.447  13.110  11.482 -0.0425  0.0864 -0.2367
11289W        W27763   4.980   5.238   0.613 -0.1006 -0.0801  0.0066
11290W        W27764   6.278   4.986  11.336  0.1692 -0.2286  0.2867
11291W        W27765  12.996   4.027   4.268 -0.1114 -0.1775  0.0097
11292W        W27766  12.544   1.922  11.345  0.0043  0.0202  0.0211
11293W        W27767  14.543   8.774   6.035  0.0551  0.2077 -0.1430
11294W        W27768   6.891  11.795  16.035 -0.3063  0.1743 -0.1029
11295W        W27769   7.991  15.772   1.501 -0.2621 -0.0597 -0.1411
11296W        W27770   2.776  15.878   2.707 -0.2100 -0.1105  0.1357
11297W        W27771   9.477   2.098   3.316  0.0054 -0.2049 -0.1780
11298W        W27772  13.471  15.112   2.330 -0.0738 -0.0671  0.0174
11299W        W27773  18.073   1.325   4.935 -0.1033  0.2494 -0.2158
11300W        W27774  13.025  16.622  15.003 -0.0690 -0.0284  0.0020
11301W        W27775  17.692   1.936   3.559  0.0694  0.1840  0.0909
11302W        W27776   0.697   4.411  13.009 -0.0559  0.0726 -0.0027
11303W        W27777  15.311   7.007  15.982 -0.0366 -0.2657 -0.0103
11304W        W27778  11.328  11.272  14.866  0.0167  0.0670 -0.3590
11305W        W27779  10.548   5.508  15.023  0.0408 -0.1053 -0.0420
11306W        W27780  13.421   5.662   1.722  0.0866 -0.0487 -0.0660
11307W        W27781  13.897  18.129  13.232 -0.0158  0.2453  0.0539
11308W        W27782   1.091   0.560   3.169 -0.1235 -0.0580  0.1615
11309W        W27783   8.786  10.510  16.211  0.0262 -0.2843 -0.5546
11310W        W27784  15.000   9.546  15.706 -0.0372  0.0610  0.0702
11311W        W27785   4.772   5.592  14.508  0.0568 -0.1893 -0.0558
11312W        W27786   2.293  11.733   1.277 -0.5175  0.3573 -0.0848
11313W        W27787  16.544  12.458  16.026 -0.1274 -0.2825  0.1643
11314W        W27788   5.347   1.842   0.303 -0.2607  0.0826 -0.1143
11315W        W27789  12.705   7.085   3.795  0.3060 -0.2991  0.0375
11316W        W27790   8.718  11.697  15.924  0.1073 -0.2337  0.1442
11317W        W27791  11.039  15.734   2.169 -0.0519 -0.0295  0.4033
11318W        W27792  13.231   8.770   0.174 -0.1323  0.0080  0.0048
11319W        W27793  11.690  15.203   0.312 -0.0626  0.3163  0.0075
11320W        W27794   1.549   5.939   3.175  0.0696 -0.2855  0.4810
11321W        W27795   6.467  17.356   1.040 -0.0379 -0.1928  0.2224
11322W        W27796  14.338   9.252   2.011 -0.1574  0.1082  0.0787
11323W        W27797   1.796   7.887   1.820  0.2639 -0.0447  0.0846
11324W        W27798   7.032  14.543   5.316  0.1686 -0.0008 -0.1465
11325W        W27799  11.192  13.322   4.363 -0.1507 -0.1771 -0.1697
11326W        W27800  18.045  14.681   0.732  0.0418  0.0110  0.1948
11327W        W27801   8.494   1.100  12.373 -0.1864 -0.1829  0.3532
11328W        W27802   7.519  14.775  11.434 -0.0133 -0.0803  0.0005
11329W        W27803  14.726   8.925  14.524  0.2041  0.2354  0.2583
11330W        W27804  14.305  13.367  13.988  0.0131 -0.0486 -0.0200
11331W        W27805  16.109   4.631  13.319 -0.0602 -0.0850 -0.0939
11332W        W27806   6.896   6.599   3.222 -0.4069 -0.3296  0.0180
11333W        W27807  13.627   7.957  14.924 -0.1892  0.0460  0.1856
11334W        W27808  16.486   4.787   0.802 -0.0142  0.0182 -0.2507
11335W        W27809   3.397  10.704  12.183 -0.2801  0.3465  0.0981
11336W        W27810   3.718  17.541  14.455 -0.1299 -0.2533 -0.0233
11337W        W27811   5.334   4.690   1.077 -0.0087 -0.0558  0.1776
11338W        W27812  16.182  13.155   4.853 -0.0151 -0.3096 -0.1820
11339W        W27813   0.613  12.738   1.590  0.2129 -0.1790  0.0566
11340W        W27814   3.843  15.614  16.039  0.3679 -0.3807  0.2188
11341W        W27815   3.226  16.434  14.514 -0.0950 -0.0636  0.1556
11342W        W27816   2.484  11.515   2.222  0.1609 -0.2535 -0.2681
11343W        W27817   4.846   7.791  12.296 -0.0620  0.1037 -0.0382
11344W        W27818  11.476   0.869   1.411 -0.1966  0.1884  0.2720
11345W        W27819   0.409  16.665  15.533  0.0583 -0.0772  0.1986
11346W        W27820  11.699  12.752  14.081 -0.0000  0.0657 -0.0839
11347W        W27821  16.967   2.679  12.358 -0.0764 -0.0618 -0.2204
11348W        W27822   3.092  13.245   1.230 -0.0742 -0.2366 -0.0786
11349W        W27823  11.654   3.391   4.770  0.0823  0.4223 -0.0611
11350W        W27824  13.675   3.448   4.465  0.0861  0.0025  0.1946
11351W        W27825   3.364   7.160  14.283  0.2915 -0.1805  0.0766
11352W        W27826   9.517  17.661  16.052  0.2391  0.1610 -0.2403
11353W        W27827  14.033   7.612  13.808 -0.0263 -0.1041 -0.1396
11354W        W27828   9.553   2.831  14.452  0.2071  0.0774 -0.2313
11355W        W27829  11.823   2.970   1.039 -0.1045 -0.0624 -0.0046
11356W        W27830  18.066   8.334  12.021  0.2494 -0.2001  0.2028
11357W        W27831  14.134  11.605  16.188  0.1087  0.1043 -0.0536
11358W        W27832   5.995  11.135   1.719 -0.0895  0.0603  0.4643
11359W        W27833   3.916   7.852   2.918  0.1698 -0.1962 -0.2497
11360W        W27834   6.349   0.697   3.038 -0.0356  0.3229 -0.4237
11361W        W27835  12.229   4.791  13.675 -0.1031 -0.0295  0.3003
11362W        W27836  11.396   0.769  12.734  0.1491  0.0278  0.1882
11363W        W27837  14.399  12.831   0.682 -0.1221  0.1561  0.0702
11364W        W27838   4.998  15.241  12.174  0.1246  0.3709 -0.1043
11365W        W27839   2.675  10.543   5.159  0.2696  0.0545  0.0086
11366W        W27840   2.579   0.747   1.344  0.1832 -0.0052  0.0934
11367W        W27841   7.130   4.443   4.097 -0.0624  0.0767 -0.0142
11368W        W27842  12.414   7.693  15.026 -0.2416 -0.2303  0.1418
11369W        W27843   6.307   1.342  15.053  0.1233 -0.0304 -0.1430
11370W        W27844   6.460  10.472   1.426 -0.1121  0.1111 -0.0067
11371W        W27845  15.107  14.425  14.035 -0.1602  0.1538 -0.0174
11372W        W27846   9.231  11.340   0.279  0.2116 -0.0439 -0.2919
11373W        W27847   5.869   5.977  16.042 -0.0791  0.3189  0.3982
11374W        W27848   7.065   6.401  12.568 -0.3159  0.0552 -0.1471
11375W        W27849  13.358  16.763   4.212  0.2441 -0.1833  0.1791
11376W        W27850  12.798   8.911  15.995 -0.0224 -0.0062 -0.1313
11377W        W27851  15.380   9.744  11.889 -0.0044  0.0865  0.0838
11378W        W27852  16.841  12.560  13.908 -0.3167  0.1730  0.3432
11379W        W27853   0.139  15.977   2.503 -0.1384  0.1286 -0.4619
11380W        W27854   6.636   9.601  15.182  0.0300  0.1359 -0.0359
11381W        W27855  13.220  16.100   5.001  0.3127 -0.4443 -0.0953
11382W        W27856   6.136   3.919  11.516 -0.2956  0.0834  0.0907
11383W        W27857   4.724   1.456  15.689  0.0603 -0.0994  0.1263
11384W        W27858   7.078  13.119   3.394 -0.2863  0.2380  0.0079
11385W        W27859  10.790   7.069  16.035  0.0837 -0.1239  0.0607
11386W        W27860   4.519  11.712  12.743 -0.0063  0.3070 -0.0885
11387W        W27861  13.573   9.274  14.388 -0.0169 -0.1524 -0.1417
11388W        W27862  10.129  10.819   4.356  0.2683  0.1408 -0.0178
11389W        W27863   8.073  16.562   1.083 -0.1558 -0.0994 -0.0877
11390W        W27864  12.285  12.488   3.067  0.3793  0.0743  0.1700
11391W        W27865  17.234   0.983  12.704 -0.1959 -0.0298  0.3419
11392W        W27866  16.301  14.001   0.510 -0.1619  0.1900 -0.0001
11393W        W27867   6.521  13.468   4.090  0.2003 -0.2422 -0.1282
11394W        W27868  16.702   4.929   0.382  0.0461 -0.1391 -0.2172
11395W        W27869   9.059   8.682  13.061  0.2431  0.0467 -0.1783
11396W        W27870   2.786   2.755  12.419  0.0837 -0.2729  0.0515
11397W        W27871   9.962   4.214  10.678  0.2584  0.1403  0.3484
11398W        W27872   7.990  15.723   4.578  0.1118  0.3818 -0.1173
11399W        W27873  11.498   2.437  16.125  0.1673 -0.0709 -0.1258
11400W        W27874   6.257   6.109   0.452 -0.1922  0.2838 -0.2961
11401W        W27875  13.821  14.118  13.863  0.0498  0.2186 -0.1508
11402W        W27876   0.248  13.184  11.223  0.2212  0.4561  0.0115
11403W        W27877  13.444  15.301   3.940  0.2643  0.1980  0.0878
11404W        W27878  15.154   3.480  11.102 -0.1482  0.1897  0.0672
11405W        W27879  14.541  13.449  15.360  0.2325  0.0660 -0.2160
11406W        W27880   6.170  10.980   4.313  0.0329  0.1726  0.0084
11407W        W27881   2.367  13.288   4.340 -0.1926  0.0745 -0.1479
11408W        W27882   0.391  12.422  15.231  0.0922  0.0123  0.2443
11409W        W27883  13.672   1.526   3.221 -0.2458 -0.0679  0.1437
11410W        W27884   1.153   5.508   4.069 -0.1456 -0.2556  0.0726
11411W        W27885   9.519  18.161   4.065  0.2949  0.0141 -0.0115
11412W        W27886   2.498   8.912  15.963 -0.0871  0.0887 -0.4358
11413W        W27887  15.252   3.228   3.367  0.1825 -0.1165 -0.2437
11414W        W27888   0.691  17.023  12.951  0.0237  0.1122 -0.3483
11415W        W27889   6.190  16.376   2.637 -0.1302 -0.1408  0.2546
11416W        W27890   5.813   4.656   2.979  0.1125  0.0818 -0.0701
11417W        W27891  11.672   7.269   1.118 -0.0623 -0.2092  0.0734
11418W        W27892   0.050   5.479   4.420  0.2370  0.4272  0.0411
11419W        W27893  12.075  13.434   2.848 -0.0969 -0.0407  0.2114
11420W        W27894  15.486  16.034  15.599 -0.0909  0.1496  0.0649
11421W        W27895  14.344   6.762   1.899 -0.1471  0.0807  0.2240
11422W        W27896   3.871  14.176   0.296 -0.0850  0.0242 -0.0018
11423W        W27897   9.643   3.323   1.043 -0.0399 -0.0938 -0.0822
11424W        W27898  11.598  17.153   0.743 -0.0502  0.0924  0.0015
11425W        W27899   8.296  13.118   5.363  0.3800 -0.0467 -0.0718
11426W        W27900  13.139   1.846   1.579  0.2632  0.1436  0.1451
11427W        W27901   5.347  10.895   5.296 -0.0695  0.1629  0.1892
11428W        W27902  11.628   8.525  12.907  0.2989  0.1755 -0.4044
11429W        W27903   8.137  16.891   4.304  0.0936  0.2445  0.0090
11430W        W27904   6.520  17.540   3.906 -0.0407 -0.5857 -0.2374
11431W        W27905  13.266  10.737   3.205  0.2205  0.0283 -0.0855
11432W        W27906  15.450  15.633   2.917  0.4785 -0.2212 -0.1617
11433W        W27907   2.608   7.820  15.950  0.0047 -0.3930 -0.3131
11434W        W27908   0.260   9.790  14.343  0.1859  0.2887  0.0053
11435W        W27909  11.086   4.345   4.561 -0.0632  0.1620  0.2254
11436W        W27910   5.216   6.835   2.540  0.1111 -0.2071 -0.2632
11437W        W27911   8.218  12.335   4.327 -0.1904 -0.1716  0.1131
11438W        W27912   0.209   1.112   2.567 -0.1887 -0.0113 -0.0200
11439W        W27913  15.073   2.444  16.103 -0.1111 -0.1279  0.0660
11440W        W27914   3.546  14.843  15.301 -0.0240 -0.0642 -0.0696
11441W        W27915  11.059   8.388   2.805 -0.0557 -0.2050  0.0940
11442W        W27916   9.087   3.298  11.712 -0.1651 -0.2284  0.0089
11443W        W27917  18.119   4.854  16.241 -0.1219  0.1767  0.0029
11444W        W27918  18.146   5.612  12.237 -0.2136  0.3110 -0.0639
11445W        W27919   3.247  13.080  13.455  0.0044  0.0135  0.0006
11446W        W27920   2.598   8.251   5.456  0.1453  0.2095 -0.0326
11447W        W27921   8.658  12.840   1.165 -0.1189  0.2052  0.0648
11448W        W27922   7.898  15.598  13.217 -0.0489 -0.0869  0.0348
11449W        W27923  11.349  14.317   2.740  0.1622 -0.1968 -0.1777
11450W        W27924  16.537  12.949   4.529 -0.3091 -0.0492  0.1345
11451W        W27925  16.362   4.360  14.151 -0.0762 -0.1830 -0.2585
11452W        W27926  15.103   1.627   2.865 -0.2007  0.1660 -0.1411
11453W        W27927   0.836  15.626  16.369  0.2865 -0.2895 -0.0521
11454W        W27928  12.213  17.708  15.369  0.1533 -0.0336  0.0699
11455W        W27929  17.948  16.796  12.704  0.6244  0.2457  0.1142
11456W        W27930  16.923  10.081   1.504 -0.0514 -0.0267 -0.0837
11457W        W27931  12.275  12.869   3.474 -0.1250 -0.0442 -0.1616
11458W        W27932   4.771   2.969  14.351 -0.1609 -0.0516  0.1131
11459W        W27933   9.472   8.878   5.155  0.0317  0.0228  0.3029
11460W        W27934  11.378   4.177  13.685  0.0396 -0.2080 -0.1141
11461W        W27935   1.212  12.695   2.652  0.1301 -0.0127  0.0291
11462W        W27936  16.976   6.534  11.218 -0.1057  0.0400 -0.0175
11463W        W27937   1.443   4.356  13.878 -0.2631 -0.0069  0.0622
11464W        W27938  11.848  13.128  12.358 -0.1018 -0.2330  0.1383
11465W        W27939   0.456  15.980  13.760  0.0652  0.0230  0.3412
11466W        W27940   2.049  14.168   5.140  0.0607  0.0292 -0.1421
11467W        W27941  14.303   3.283  14.292  0.0415 -0.0114  0.0417
11468W        W27942  11.297   9.397  15.816 -0.1096  0.2142 -0.1907
11469W        W27943   3.192  12.512  13.323  0.0548  0.0926 -0.0903
11470W        W27944   4.877   9.766  13.091 -0.1877  0.2069 -0.0871
11471W        W27945   4.097   1.147   3.819  0.0418  0.0293 -0.3494
11472W        W27946   9.421   7.802  14.595  0.0678 -0.3606 -0.4505
11473W        W27947   4.597   9.345   4.529  0.2268 -0.0532  0.1214
11474W        W27948   0.194  14.093  15.708  0.1937  0.0956  0.1462
11475W        W27949   2.113   3.114   0.280  0.2311  0.1047  0.1800
11476W        W27950   9.316   7.287   4.432 -0.2865  0.1636  0.3388
11477W        W27951  11.556  16.289   5.596  0.1549 -0.1419 -0.1587
11478W        W27952  17.831   7.637  15.462 -0.0192 -0.1809 -0.1588
11479W        W27953   6.929  14.819  11.622 -0.0039  0.0808  0.0697
11480W        W27954  11.738  14.396  15.613  0.0861  0.0026 -0.1533
11481W        W27955   0.053  15.191   3.940 -0.1253 -0.2116 -0.1812
11482W        W27956  13.841  11.744   5.032  0.1740 -0.0213  0.0017
11483W        W27957  15.305  11.288   0.404  0.2783 -0.1287 -0.1639
11484W        W27958   8.697   3.389  14.382  0.0109  0.1118 -0.2905
11485W        W27959   0.401  12.916  15.213  0.1120 -0.0449  0.4304
11486W        W27960   5.962   7.891   0.408  0.2415  0.0319  0.1708
11487W        W27961   7.084   1.301  14.031  0.1209 -0.0543  0.0635
11488W        W27962   5.318   0.186   2.328  0.1077  0.0069 -0.1073
11489W        W27963   3.819  12.722   4.127  0.2159 -0.1053 -0.0659
11490W        W27964   9.200   6.574   3.248 -0.0493 -0.1438 -0.1549
11491W        W27965  12.322   5.436   0.491 -0.3664  0.1089 -0.1832
11492W        W27966   2.857   0.116   4.805  0.2058 -0.3329  0.2639
11493W        W27967   0.701  10.561   2.783 -0.0428  0.0487  0.0482
11494W        W27968  15.110  15.825  11.581 -0.0088 -0.1591 -0.0784
11495W        W27969  12.029   2.676   1.341 -0.2049 -0.1925  0.1880
11496W        W27970  11.097  17.522  10.210  0.1476 -0.0025  0.1480
11497W        W27971   2.036  16.920   4.071  0.0354 -0.4864 -0.1353
11498W        W27972   5.086  14.809  12.407 -0.1692 -0.1569  0.0396
11499W        W27973   5.745  13.274   0.975 -0.2447 -0.0674  0.1292
11500W        W27974   7.023   8.195  14.011 -0.0000  0.1224  0.2067
11501W        W27975   1.154  11.197  11.654 -0.1534  0.3463  0.1965
11502W        W27976   1.681  17.537  15.512  0.0429  0.3897 -0.2502
11503W        W27977   9.212   7.182   0.781 -0.1344  0.1082 -0.0193
11504W        W27978  16.189  11.286  16.327  0.1383  0.1466  0.2528
11505W        W27979  10.069   5.996  12.265  0.0949 -0.2075 -0.1304
11506W        W27980  14.214   8.253   5.488  0.3115  0.5574  0.2129
11507W        W27981  15.765   0.546  11.461  0.1920 -0.3295 -0.2060
11508W        W27982   3.405   5.129   4.080 -0.0890 -0.3134  0.0213
11509W        W27983   0.792  16.993  16.080 -0.0643  0.1794 -0.2242
11510W        W27984  14.480   3.960  13.138 -0.3027  0.0627  0.0818
11511W        W27985  15.389  10.247  12.645 -0.1489 -0.0845  0.0828
11512W        W27986   4.354   4.272   2.553  0.3336 -0.0643 -0.2466
11513W        W27987   6.857   7.284   3.397 -0.0671  0.1719  0.3887
11514W        W27988  17.353   3.447   3.659  0.0793  0.1669 -0.0916
11515W        W27989   5.691   0.615   1.584 -0.0755 -0.1413 -0.1311
11516W        W27990   6.969   3.645  14.041 -0.0361 -0.2537 -0.1770
11517W        W27991   1.518  14.214   0.309 -0.0634 -0.0677  0.0343
11518W        W27992  12.083   1.644  13.455 -0.1695 -0.0530  0.1019
11519W        W27993   3.677  10.287  12.954  0.0406  0.0422  0.1124
11520W        W27994  11.597  11.687  14.564 -0.2068 -0.1447  0.0311
11521W        W27995   7.360   2.329  14.000  0.1101 -0.0074  0.0129
11522W        W27996  16.749   2.792  10.875  0.0871 -0.0751  0.0589
11523W        W27997  12.832  12.975  14.055 -0.1017 -0.3051 -0.0521
11524W        W27998   4.051   6.483   0.324 -0.2921  0.1426 -0.1709
11525W        W27999  12.193  10.395  11.243 -0.1941 -0.1206  0.0115
11526W        W28000  10.608  16.348  14.323  0.4146  0.1965 -0.0945
11527W        W28001   7.322   8.874   0.621  0.1535  0.2400  0.0084
11528W        W28002   7.302   4.508  11.623 -0.0435  0.1202  0.0043
11529W        W28003   9.165  17.444   3.476 -0.0381 -0.1167  0.2053
11530W        W28004   0.248   4.658   1.774  0.0052 -0.2000  0.2709
11531W        W28005   6.190  18.156   4.418 -0.0314 -0.0167  0.0089
11532W        W28006   5.733  16.275   3.070 -0.0583  0.0637 -0.0812
11533W        W28007  16.388  14.710  15.255  0.2201 -0.0897 -0.1031
11534W        W28008   7.516   8.062   2.856 -0.0331  0.4501  0.0632
11535W        W28009   4.118  11.473   1.163  0.0870 -0.2036  0.0216
11536W        W28010   5.707   6.633   2.680  0.0203 -0.0885  0.2110
11537W        W28011   1.535  11.039  13.120  0.0176  0.2857  0.0272
11538W        W28012  14.810   2.769   4.484 -0.1401  0.1320  0.2033
11539W        W28013   8.941  13.082   2.895  0.4156 -0.0442  0.5387
11540W        W28014   5.305   3.728  13.080  0.0032  0.0184 -0.0370
11541W        W28015  16.419   2.905  11.624  0.1841  0.0847  0.0501
11542W        W28016   6.996   2.861   0.828  0.2958  0.2217 -0.4117
11543W        W28017   6.068   6.881  14.957  0.1337 -0.0153 -0.1855
11544W        W28018   6.208   7.450  15.606 -0.2898  0.1694 -0.1390
11545W        W28019  11.610   8.425  12.381  0.1128 -0.0077 -0.1122
11546W        W28020  16.996   8.776  15.310 -0.0199 -0.3026  0.1006
11547W        W28021   0.836   7.761  15.852  0.0328 -0.2116 -0.2632
11548W        W28022   6.188  14.504  16.093 -0.4061  0.2747 -0.1265
11549W        W28023  10.043   0.563   2.342 -0.1130  0.1633 -0.3734
11550W        W28024  15.620   3.925   4.680 -0.3190 -0.0626 -0.3559
11551W        W28025   5.768   9.557  13.349 -0.0825  0.3467  0.0177
11552W        W28026  14.775  12.139   2.385  0.2242  0.0696 -0.2946
11553W        W28027   2.723  10.360   6.009  0.0292 -0.0023 -0.2030
11554W        W28028   4.754  12.140  15.581 -0.2029  0.2631 -0.2809
11555W        W28029   0.984   5.771  14.730  0.0267  0.1608 -0.1389
11556W        W28030   3.123   5.842  14.118 -0.4132 -0.0052 -0.1577
11557W        W28031  14.181   2.629   3.229  0.0012  0.1511  0.2723
11558W        W28032  17.049  15.854  11.837 -0.1476  0.0768  0.4191
11559W        W28033   7.438  10.169  14.145 -0.1304 -0.1496 -0.1949
11560W        W28034   7.529   2.060  15.591 -0.0517  0.1562  0.0242
11561W        W28035   7.763   7.807   2.409  0.2469 -0.0879 -0.1090
11562W        W28036  16.299  10.517   1.581 -0.0048 -0.0781 -0.0897
11563W        W28037   1.426   5.660   0.869  0.0447  0.0553 -0.1552
11564W        W28038   9.214  10.161   1.217 -0.0868  0.0261 -0.0830
11565W        W28039  15.641  15.360   1.588 -0.3615 -0.0453  0.4435
11566W        W28040   9.967   9.574  14.925  0.2787  0.3851 -0.0829
11567W        W28041  15.450   7.887   3.199 -0.0085 -0.0582 -0.3189
11568W        W28042   0.567   0.756   2.085 -0.3003  0.0776  0.1373
11569W        W28043  13.453   6.566  15.628 -0.0066  0.4858 -0.0865
11570W        W28044   0.284   2.820   2.420  0.1713  0.0622  0.0745
11571W        W28045  12.678  12.097  12.022 -0.0640  0.1869  0.1685
11572W        W28046   8.081  14.040   5.343  0.1048  0.1434  0.3791
11573W        W28047  17.674  12.669   0.396 -0.1279 -0.2711  0.0135
11574W        W28048   5.360   1.999  13.132 -0.0176  0.1226 -0.2600
11575W        W28049  11.148  12.178  15.408 -0.4493  0.0640  0.0523
11576W        W28050  13.860   9.888  11.122 -0.0513 -0.0262 -0.0881
11577W        W28051   0.982  12.925  12.905 -0.0050 -0.0746  0.2332
11578W        W28052   4.630   1.913  12.596  0.2992 -0.0542 -0.0146
11579W        W28053  17.255   4.033   1.071  0.3099 -0.0450  0.0953
11580W        W28054   2.034   4.722  11.313 -0.0281  0.2670  0.0895
11581W        W28055  13.644   1.422   3.716  0.1677  0.1467  0.1279
11582W        W28056  16.436   1.889  12.567  0.0453  0.1745  0.3291
11583W        W28057  16.398   6.680   2.680 -0.2309 -0.2164  0.1507
11584W        W28058   3.234   6.186   3.306 -0.1470 -0.1048 -0.1199
11585W        W28059   4.332   5.485  13.865  0.1880  0.0677 -0.4445
11586W        W28060   4.825   8.049  14.036 -0.0380  0.1892 -0.0459
11587W        W28061   1.359  16.901  12.331 -0.1111  0.0761  0.2779
11588W        W28062   3.482  14.699   3.431  0.0341 -0.2304  0.1838
11589W        W28063   0.551  10.783  14.405 -0.3305  0.0880  0.0360
11590W        W28064  10.371  13.294  10.999  0.0685  0.1490  0.2700
11591W        W28065   4.919  13.310   6.010  0.0710 -0.0346  0.1633
11592W        W28066  12.954   9.168  13.000 -0.3130 -0.3823 -0.0485
11593W        W28067   5.058   5.618   3.346 -0.2211 -0.5900 -0.1673
11594W        W28068   9.044  11.330   2.726 -0.0299 -0.1319 -0.3624
11595W        W28069   9.011  14.168  15.170  0.1013 -0.0964 -0.1068
11596W        W28070   3.776  17.875  14.877 -0.0571  0.0605  0.2681
11597W        W28071  17.770   8.974  14.347 -0.1546  0.1547  0.2244
11598W        W28072  15.074   8.204   5.554 -0.0426  0.1028 -0.1998
11599W        W28073  14.439   3.431   2.773 -0.3129  0.1504  0.2227
11600W        W28074  17.283   7.915   5.178  0.2402  0.1039 -0.0037
11601W        W28075   1.086   0.935   1.031  0.1492 -0.0418  0.0171
11602W        W28076   9.798  13.629   5.461  0.2254  0.0771  0.1476
11603W        W28077   8.263   3.425  13.420  0.2101 -0.3016  0.1620
11604W        W28078   3.436   8.153  14.128 -0.1883 -0.1759 -0.0161
11605W        W28079  12.398  14.997   3.288  0.1217 -0.0433  0.1282
11606W        W28080   4.919   6.225   3.704 -0.1555 -0.1036  0.0763
11607W        W28081   0.837  13.983  14.789 -0.2385  0.0496 -0.3467
11608W        W28082  13.957  14.573   4.391  0.0917  0.0869 -0.1855
11609W        W28083   9.811   5.428   2.929  0.0231 -0.2254  0.1461
11610W        W28084   5.317   1.824   3.728 -0.0414  0.1757 -0.1380
11611W        W28085   9.309   3.078   4.452 -0.2286 -0.2217  0.0777
11612W        W28086  10.982  12.499   2.199 -0.1661  0.1446  0.0322
11613W        W28087  11.547   0.229  11.422 -0.0662  0.0501 -0.1290
11614W        W28088   9.623   1.340  11.594  0.1489  0.3473  0.0777
11615W        W28089   5.431   5.520  12.374  0.0182  0.0302 -0.0272
11616W        W28090   8.759  16.234   0.093  0.0327 -0.1633 -0.1559
11617W        W28091  15.385   7.919  11.240 -0.2555 -0.0141 -0.1074
11618W        W28092   0.700   6.253  14.692  0.2538 -0.0842 -0.1550
11619W        W28093   5.152   7.434   3.727  0.1947 -0.0663 -0.1429
11620W        W28094   5.939   8.165  12.418 -0.0088  0.0514 -0.3513
11621W        W28095   5.022  12.025  11.627  0.3720  0.0916 -0.3519
11622W        W28096  14.126   0.544   3.281 -0.1414  0.0172  0.1765
11623W        W28097  16.261   5.214  15.675  0.3840 -0.1313  0.0772
11624W        W28098   6.747   3.102  10.225 -0.1261 -0.0603  0.0972
11625W        W28099   2.925  11.353  12.347 -0.2829  0.0916  0.1716
11626W        W28100   5.513   9.313   4.300  0.1280 -0.1569 -0.3989
11627W        W28101   1.171  18.106  14.811 -0.0904  0.0840 -0.2833
11628W        W28102   2.775  16.239   1.433 -0.1707  0.1258 -0.1183
11629W        W28103   0.688  14.211   4.025 -0.0923 -0.1142 -0.0455
11630W        W28104   1.687  15.987  11.746 -0.1428 -0.0274 -0.1260
11631W        W28105  15.323  16.334  15.230  0.1009  0.0408 -0.1216
11632W        W28106   0.395   5.875  14.748 -0.0188  0.1202  0.2536
11633W        W28107   7.784   6.413   4.318 -0.2597 -0.2175  0.2522
11634W        W28108  13.128   6.499  13.988 -0.1748 -0.1242  0.1256
11635W        W28109  16.434  15.516   0.965  0.0588 -0.0980  0.0866
11636W        W28110  17.395   7.082   5.568 -0.1686  0.0724  0.0753
11637W        W28111   2.195  15.065  13.330 -0.0475  0.3555 -0.2068
11638W        W28112   8.923   4.423  12.524 -0.1458  0.4917  0.1008
11639W        W28113   3.372   2.449  12.747  0.0990 -0.1819 -0.0855
11640W        W28114   9.544   1.844  15.946 -0.1461  0.2040  0.1437
11641W        W28115   3.667   7.818   3.850  0.2385 -0.1146  0.0833
11642W        W28116  15.151   8.830  14.009 -0.0636 -0.1281 -0.0626
11643W        W28117  16.967  17.954   1.193 -0.1090 -0.2835 -0.0857
11644W        W28118   3.441   1.702   3.662  0.0104  0.0755  0.2104
11645W        W28119  15.945  16.037   5.828  0.3458  0.1055  0.0077
11646W        W28120   9.615   8.050   2.909  0.0234 -0.1564  0.0048
11647W        W28121  17.454   0.659   3.942  0.0881  0.0197 -0.0861
11648W        W28122   7.972  10.325  14.200 -0.0673 -0.0086  0.1113
11649W        W28123   2.313   2.677   0.435 -0.1126  0.0479 -0.2732
11650W        W28124   6.886   6.027  16.310  0.1041  0.1524  0.3818
11651W        W28125   2.810   9.530   5.052 -0.1157 -0.0283 -0.1178
11652W        W28126   3.187   8.038  13.013 -0.1052  0.1405 -0.0194
11653W        W28127   8.810   1.234   5.345  0.0843 -0.2998  0.0149
11654W        W28128  18.012   0.671   0.229 -0.2145 -0.1207  0.0413
11655W        W28129   5.582   9.226   4.796  0.1329  0.3488 -0.0180
11656W        W28130  13.764  13.522   4.710 -0.0653 -0.1788 -0.2610
11657W        W28131   6.753   8.188  13.026  0.3291 -0.0290  0.2163
11658W        W28132   0.521   8.121  16.185  0.4965 -0.0364  0.2464
11659W        W28133   6.109   2.965   5.287 -0.1562 -0.0173 -0.1072
11660W        W28134   9.636  14.427   5.148  0.1332  0.1166 -0.2467
11661W        W28135  11.794   7.693   0.282 -0.0254 -0.1946  0.2395
11662W        W28136   0.617  11.817   4.418  0.2865 -0.0831 -0.0833
11663W        W28137   3.745  14.225  14.498  0.3026 -0.0014 -0.1972
11664W        W28138   7.255   0.887  14.349 -0.2548 -0.3161 -0.0876
11665W        W28139   8.084   8.545   3.700 -0.1428  0.0890  0.2277
11666W        W28140   2.121  13.828   3.902 -0.1194 -0.2788 -0.2151
11667W        W28141   4.295  17.673  15.929  0.0867 -0.1226 -0.0928
11668W        W28142   3.394  12.544  12.727 -0.1360  0.2657  0.0388
11669W        W28143   7.392   1.874   5.758  0.0452 -0.2197  0.0036
11670W        W28144   3.111   7.616   4.525  0.0843 -0.4777 -0.3014
11671W        W28145  10.581   0.295   2.400  0.2257  0.3157 -0.2628
11672W        W28146   0.312  16.758   1.454 -0.1389  0.0631  0.2497
11673W        W28147   0.130  17.186   1.648  0.2243 -0.4374 -0.1148
11674W        W28148   0.489   9.395   1.531 -0.0823 -0.0820 -0.1231
11675W        W28149   2.101   2.424  15.910  0.1367  0.2875 -0.1246
11676W        W28150   3.121  11.063   4.035  0.1873  0.0085 -0.2139
11677W        W28151   3.770  13.706   1.916 -0.0031 -0.0406 -0.0121
11678W        W28152   7.001   4.728  12.040 -0.2485  0.1087 -0.1328
11679W        W28153   8.398  12.481   0.271  0.0117  0.0611 -0.1043
11680W        W28154   4.107  15.052  13.342  0.0967 -0.0453 -0.0466
11681W        W28155  12.600  10.698  14.646 -0.0695 -0.0756 -0.0419
11682W        W28156   9.968   7.395  15.812 -0.1103  0.1111 -0.3009
11683W        W28157   9.561   6.721  12.145  0.2654 -0.0647  0.0785
11684W        W28158   4.576  15.028  12.572  0.1158  0.0613  0.1765
11685W        W28159   9.792   9.805  11.555 -0.1510 -0.2492 -0.1149
11686W        W28160   9.030  10.630   3.256  0.0329 -0.0359 -0.0665
11687W        W28161  13.980   5.374  13.033  0.1650 -0.1926 -0.0868
11688W        W28162  13.378   6.326   1.756  0.0209 -0.0528 -0.3369
11689W        W28163   3.057   7.063  12.084  0.0561 -0.1381  0.2670
11690W        W28164  10.155  10.071  12.420 -0.2167 -0.1213 -0.2739
11691W        W28165  12.277   0.530   4.885 -0.0232 -0.1411 -0.0739
11692W        W28166   1.348   9.791  12.485 -0.0878  0.2346 -0.0182
11693W        W28167  12.243   5.851  12.884 -0.2234  0.0658  0.0353
11694W        W28168  17.854   0.322  16.230 -0.2820  0.1669  0.1419
11695W        W28169   5.581  12.806   0.068 -0.1623 -0.0303  0.0292
11696W        W28170   9.596   4.057  12.173 -0.1214  0.1310 -0.3046
11697W        W28171  10.388  16.063  15.666  0.4049 -0.1725  0.3668
11698W        W28172  11.065  10.404   0.687  0.2281 -0.1559 -0.1576
11699W        W28173   9.183   5.134   1.322  0.2541  0.1372  0.0243
11700W        W28174  17.575   9.176   5.622  0.0464 -0.0324  0.1301
11701W        W28175  15.817   7.004   5.884 -0.2824 -0.3085  0.0296
11702W        W28176  14.436   4.178   1.698  0.0183 -0.0897 -0.2130
11703W        W28177  12.678   7.322  15.715 -0.0995 -0.2998 -0.4255
11704W        W28178  11.147   6.084   3.792 -0.0714 -0.0668 -0.2127
11705W        W28179  10.249   4.096  14.825 -0.0419  0.1976  0.0061
11706W        W28180   4.689  17.114  14.013 -0.0010 -0.3454  0.0013
11707W        W28181   2.532   3.616  15.903  0.1144  0.1081 -0.0594
11708W        W28182   8.421  10.920  15.559  0.0555  0.0714 -0.0025
11709W        W28183   0.651  10.352   3.327  0.0384  0.1348 -0.2211
11710W        W28184  15.153   8.950  15.277 -0.2741 -0.3522  0.1407
11711W        W28185  15.468   3.499   0.721 -0.1127 -0.0210 -0.0927
11712W        W28186   0.105   6.735   5.213  0.1141  0.0033 -0.0453
11713W        W28187  17.931   9.685   3.642  0.1944 -0.0802 -0.1182
11714W        W28188  15.153   8.747  15.800 -0.0040  0.0958 -0.0541
11715W        W28189  17.227   9.020  12.444 -0.1361  0.1619 -0.0278
11716W        W28190  13.022   6.867   5.389  0.3378  0.0880  0.1492
11717W        W28191  15.544  11.427   1.242  0.1735 -0.0446 -0.2037
11718W        W28192  14.208   8.974   1.357  0.3960  0.1531  0.2435
11719W        W28193   4.108  16.520   3.683  0.1841 -0.3280 -0.2134
11720W        W28194   3.221  13.164   5.373 -0.1234  0.2303 -0.0576
11721W        W28195   5.919   8.624  11.660 -0.0717 -0.1039 -0.1803
11722W        W28196   5.728   1.461   1.872 -0.1701 -0.2288 -0.0504
11723W        W28197  12.988  16.361   2.630 -0.0591  0.0513  0.2165
11724W        W28198  13.203   2.610   0.264 -0.1066 -0.0574 -0.1474
11725W        W28199   2.649   7.072   4.674  0.2195  0.0661  0.1677
11726W        W28200  14.345  12.825   2.233 -0.1913  0.2306 -0.0610
11727W        W28201   2.172  12.886  15.777 -0.1405 -0.1886  0.1106
11728W        W28202   7.972   1.432   3.118  0.0286  0.0722 -0.1410
11729W        W28203  11.580   3.841  11.985  0.0998  0.2221 -0.0158
11730W        W28204  11.727  18.035  11.844 -0.1357 -0.0151  0.0149
11731W        W28205   6.228  12.331  12.529  0.1814 -0.2484 -0.1179
11732W        W28206  16.080  10.799  12.566  0.0646  0.0109 -0.2710
11733W        W28207   7.402  17.801   0.791  0.0512  0.0640 -0.1642
11734W        W28208  11.972  15.744  15.761  0.1318  0.1000 -0.1442
11735W        W28209   0.387   4.215   0.545  0.1765 -0.1787  0.1036
11736W        W28210   9.419   6.841   1.845 -0.2349 -0.1517 -0.1424
11737W        W28211   7.887  17.355  15.733 -0.0188 -0.1402  0.2480
11738W        W28212   5.540   6.941  15.746  0.0720  0.0528 -0.0732
11739W        W28213  17.517  17.956  11.441  0.2315  0.1590  0.0289
11740W        W28214  10.423   0.920  11.007 -0.3816  0.1286  0.1884
11741W        W28215   6.741  12.391  11.647 -0.1675  0.3477  0.0594
11742W        W28216   2.536   0.190   1.656  0.2284  0.1005  0.0014
11743W        W28217  16.167   0.267   4.966  0.3089  0.1611 -0.0397
11744W        W28218  11.014   4.750   1.344 -0.1675  0.2001 -0.2162
11745W        W28219   3.003   7.235   0.266 -0.1682 -0.2389  0.1478
11746W        W28220  17.651   4.634   2.158 -0.1320 -0.1224 -0.0340
11747W        W28221   5.024  12.430  12.031 -0.0016 -0.1721  0.0315
11748W        W28222  10.500  15.082   1.359 -0.1352  0.1209 -0.1208
11749W        W28223  12.307  12.390  16.014 -0.1087  0.1394  0.1280
11750W        W28224   1.288   6.363  12.629  0.1254 -0.1573  0.1138
11751W        W28225  17.720   7.995   0.507 -0.0714  0.1570  0.1393
11752W        W28226   8.597  11.132   4.754 -0.3411 -0.0155  0.0136
11753W        W28227   6.537  16.159   0.201 -0.2874  0.0776 -0.1629
11754W        W28228   0.822   9.643   2.815  0.0614 -0.0009  0.1131
11755W        W28229  12.633  13.243   0.880  0.1267  0.1391  0.1624
11756W        W28230   2.926   2.441   5.250 -0.0363  0.0126  0.0544
11757W        W28231  17.030   0.030   3.151 -0.1088  0.2333 -0.0080
11758W        W28232   0.774  13.750   0.002 -0.1049  0.1723  0.0554
11759W        W28233  12.831   8.040  10.960 -0.0202  0.1272 -0.2715
11760W        W28234  11.655  14.937   4.967  0.0858  0.0723 -0.0270
11761W        W28235  15.267  15.046   2.252  0.2466  0.1669 -0.0402
11762W        W28236  16.073   8.794   0.728  0.4236 -0.0582 -0.4205
11763W        W28237  10.509   0.957   5.549 -0.2395  0.1150 -0.0979
11764W        W28238   6.170  16.636  14.883  0.1645  0.3588  0.0384
11765W        W28239   5.706   8.577   1.948 -0.1987  0.3150 -0.0650
11766W        W28240  18.154   0.073  15.327 -0.0288 -0.1484 -0.1407
11767W        W28241   1.544   2.179  14.364 -0.1338 -0.0747 -0.2101
11768W        W28242  11.896  14.647   3.374 -0.0700 -0.2327 -0.0923
11769W        W28243   6.647  13.902  14.570  0.1990 -0.0746 -0.0401
11770W        W28244   4.094   5.246   0.512  0.1612  0.0898 -0.0066
11771W        W28245   2.071   8.174   5.380 -0.4081  0.0105 -0.0861
11772W        W28246   4.897  11.591   2.232  0.0971  0.1272  0.0490
11773W        W28247  14.816  11.529   5.096  0.2426  0.0858 -0.0035
11774W        W28248   7.277   6.134  15.891 -0.0715  0.1881  0.0676
11775W        W28249  15.279  14.967  14.081  0.0573  0.1519 -0.1020
11776W        W28250  17.542   9.713   3.943 -0.0122  0.0368  0.1092
11777W        W28251   2.287  11.478  14.134 -0.0967  0.2453  0.2143
11778W        W28252  12.808   2.442   3.951  0.1956 -0.0102 -0.0988
11779W        W28253   7.462   7.417  15.491  0.1242  0.0520  0.1728
11780W        W28254  17.990   5.128  15.848  0.0588 -0.1549 -0.1907
11781W        W28255   2.510  17.901   3.110  0.3188 -0.0067 -0.0387
11782W        W28256   8.073  14.578  14.485  0.0856  0.2490  0.0374
11783W        W28257   7.108  13.429   3.970  0.0721 -0.2540 -0.0618
11784W        W28258  11.277   3.104   0.396 -0.1268 -0.1690  0.0079
11785W        W28259  11.833   2.706   1.877 -0.1711  0.0821  0.1668
11786W        W28260  16.204  13.702   4.840 -0.0259 -0.2280 -0.0179
11787W        W28261  15.094   9.483  12.887  0.2113 -0.2170 -0.0038
11788W        W28262  14.501  11.520   5.460  0.0244 -0.0742  0.1348
11789W        W28263   0.427  10.119   0.923 -0.1529 -0.2757 -0.2461
11790W        W28264   8.886   4.338  16.062  0.1231  0.0377 -0.1281
11791W        W28265  13.772   0.142   3.260 -0.0823  0.0481 -0.2331
11792W        W28266  10.281   8.425   4.733  0.0506 -0.0665  0.4309
11793W        W28267  16.859   6.522   1.225 -0.1985 -0.0235  0.1660
11794W        W28268  15.807  13.886   0.591  0.3478 -0.3116 -0.2921
11795W        W28269   0.130  17.352  13.484 -0.2740  0.0658 -0.1454
11796W        W28270  12.764  15.789   3.168 -0.0887  0.3201 -0.3829
11797W        W28271  12.782  13.247  14.521 -0.2818  0.2496  0.0717
11798W        W28272   0.931   2.393   5.002 -0.0905  0.0408 -0.1785
11799W        W28273   6.965  14.806  15.325 -0.4565  0.0045 -0.1630
11800W        W28274  14.968   7.756  11.496  0.0592  0.3916  0.1361
11801W        W28275   7.527   9.290  13.476 -0.1046  0.2618  0.0202
11802W        W28276  10.749  10.245   4.518  0.1521 -0.1959 -0.2671
11803W        W28277  13.590   2.142  11.638 -0.2028 -0.0004 -0.1242
11804W        W28278   9.562  16.235  13.381  0.6059  0.2188  0.2462
11805W        W28279   3.362   4.452   1.701  0.0973  0.0454  0.0812
11806W        W28280  17.942  14.409   4.563  0.2590 -0.0030  0.0345
11807W        W28281  13.903   4.925  11.160 -0.2003  0.0243 -0.0713
11808W        W28282   6.000   1.718  10.798  0.2859  0.0784 -0.0097
11809W        W28283   9.584  16.849  14.078  0.1737 -0.0523  0.3307
11810W        W28284  15.003   6.486   2.568  0.1308  0.0318 -0.0538
11811W        W28285   6.798  15.840  10.664  0.2207 -0.0608  0.0109
11812W        W28286   2.410  15.638  13.298  0.2072 -0.2162  0.1874
11813W        W28287   8.084   0.270   0.074  0.0764 -0.2216  0.1623
11814W        W28288  16.058   8.521   4.076 -0.0636 -0.0124 -0.0959
11815W        W28289  15.541   8.902   3.013  0.2386  0.3102  0.0681
11816W        W28290  16.151   6.237  13.286 -0.2069  0.0290  0.0891
11817W        W28291  15.431  14.985   1.249  0.1549  0.3570  0.4090
11818W        W28292  15.173   4.712  12.754 -0.0323  0.2012  0.2561
11819W        W28293  17.344  12.268  13.264  0.0177 -0.1419  0.0116
11820W        W28294   1.027   4.246   1.651  0.2446  0.1118  0.0803
11821W        W28295  13.425   5.279  16.177  0.1702  0.2368 -0.2729
11822W        W28296  15.051   1.275  15.157 -0.1273 -0.1984 -0.0486
11823W        W28297   8.925  13.754  12.864 -0.0779  0.1192  0.0037
11824W        W28298   0.423  12.630   0.717 -0.1634 -0.1161 -0.0276
11825W        W28299   2.079   3.450   0.731  0.0388 -0.1670 -0.0806
11826W        W28300   8.918  16.982  11.555 -0.2438 -0.2487 -0.0082
11827W        W28301   0.791  16.437  15.304 -0.0039  0.0089 -0.2284
11828W        W28302  17.862  17.634  13.296 -0.0326 -0.1731  0.0333
11829W        W28303   5.336   5.597   5.442 -0.2441 -0.2731  0.0039
11830W        W28304   4.988   2.964   0.435  0.4748  0.0405 -0.0477
11831W        W28305   9.262   8.475   1.066 -0.2186 -0.2331  0.0737
11832W        W28306  13.816   1.017   3.119  0.0225 -0.1913  0.1099
11833W        W28307   9.969  10.294  12.975 -0.2734 -0.2324 -0.3245
11834W        W28308  17.549  14.113  13.661 -0.1005 -0.2422  0.0425
11835W        W28309   3.787   3.209   4.465  0.1090 -0.1367  0.2123
11836W        W28310   0.617  14.112   4.750 -0.0185  0.0916 -0.1936
11837W        W28311   4.018  11.789   3.347  0.1458  0.0820 -0.0482
11838W        W28312   9.196   4.705   0.908 -0.0456  0.2036  0.1001
11839W        W28313   6.163   2.133   0.844  0.1503  0.0466  0.0177
11840W        W28314  10.394  16.209   2.834  0.4739  0.0550 -0.0603
11841W        W28315  14.435   4.405   3.700  0.1128 -0.0380  0.2289
11842W        W28316   9.928  11.072  15.075 -0.1826  0.0891  0.1137
11843W        W28317  14.852   4.364   4.528  0.1011 -0.2340  0.1818
11844W        W28318  11.114  10.005  14.691 -0.1175 -0.1750 -0.1640
11845W        W28319   3.280   1.193  15.590 -0.0201  0.1091 -0.1540
11846W        W28320   1.882   7.344  11.134  0.3200  0.0427 -0.0526
11847W        W28321  14.347   4.018  14.333  0.0547 -0.1124  0.2006
11848W        W28322   3.838   4.946   3.808 -0.2399 -0.0226  0.1283
11849W        W28323   7.385   0.302  13.325  0.0296 -0.1920 -0.1238
11850W        W28324   1.048  12.443  12.104  0.3291 -0.3514 -0.0279
11851W        W28325   0.346  12.551   0.099  0.0758  0.0903  0.0008
11852W        W28326   6.349   9.904   1.127 -0.0258 -0.0787  0.0410
11853W        W28327  14.045  11.424   2.488  0.0132  0.0772  0.1273
11854W        W28328   8.023  16.049   0.961  0.0765  0.1879 -0.1282
11855W        W28329   1.209   1.561  13.724 -0.1073 -0.0189 -0.1542
11856W        W28330   4.853   3.108   6.212  0.0742 -0.0023 -0.2440
11857W        W28331   2.442  16.484  14.027 -0.0540 -0.1063 -0.2813
11858W        W28332   0.345  13.257   5.022 -0.1257 -0.0896 -0.0453
11859W        W28333   8.078   6.853  14.835 -0.0770  0.0535  0.2506
11860W        W28334   2.286   1.632  12.337  0.1202  0.1059  0.0040
11861W        W28335   4.109   0.157   0.102 -0.1074 -0.3675  0.1629
11862W        W28336   6.663  16.365  14.839 -0.0638  0.0436 -0.0337
11863W        W28337  11.006  17.248  13.219 -0.0041 -0.3372 -0.1119
11864W        W28338   4.315  18.123  11.949  0.1080 -0.0833  0.0830
11865W        W28339  14.538   4.074   3.305 -0.0045 -0.0440  0.1699
11866W        W28340  12.051  10.240  13.098  0.3912  0.1063  0.0562
11867W        W28341  17.428   0.061   0.166 -0.1126 -0.0314 -0.0930
11868W        W28342  10.532   2.153  14.198  0.4258 -0.0948 -0.0051
11869W        W28343  16.238  16.437   3.533 -0.4022 -0.0839  0.4197
11870W        W28344  16.307  15.783  13.712 -0.0805  0.1986  0.1336
11871W        W28345  11.948   5.770   0.662  0.0410  0.0821 -0.1980
11872W        W28346  17.431  17.024   6.422  0.1658  0.3635  0.0657
11873W        W28347   6.893  15.128   4.152 -0.1169  0.1291 -0.2080
11874W        W28348   8.525   3.660  12.411  0.0607 -0.0073 -0.1282
11875W        W28349   2.968   0.533  10.658 -0.0195 -0.1150  0.1055
11876W        W28350   6.893   0.838  14.016  0.2805 -0.0757  0.3076
11877W        W28351   3.008  15.016  11.151  0.2834 -0.3173 -0.0147
11878W        W28352   4.466   1.583  12.209 -0.1205  0.0193 -0.2483
11879W        W28353   1.540   5.929  16.207 -0.1246 -0.2649 -0.0785
11880W        W28354  13.026  15.657  13.746  0.0904  0.0863 -0.2852
11881W        W28355  12.646   3.884  14.323  0.1909  0.1145  0.2684
11882W        W28356   1.392  14.763  12.706 -0.1686  0.1176  0.1019
11883W        W28357  17.538  13.878  12.548 -0.0915  0.0446  0.2820
11884W        W28358   8.698  12.162  14.028  0.0743 -0.1954 -0.2203
11885W        W28359   2.464   1.366  14.499  0.0772  0.1433  0.2153
11886W        W28360   3.079   3.400  14.004  0.0328 -0.2594 -0.2169
11887W        W28361  15.158   1.257   0.087  0.3039  0.0243 -0.4178
11888W        W28362   4.817  15.681  11.932  0.1121  0.2924  0.0186
11889W        W28363   9.181  16.979  13.583 -0.2373  0.4390 -0.0694
11890W        W28364   1.628  17.636   4.146 -0.0878 -0.3649 -0.1335
11891W        W28365  15.618   5.395   5.585 -0.3441 -0.0383 -0.2059
11892W        W28366   3.308   0.543   0.423 -0.1892  0.1293 -0.0377
11893W        W28367  13.386  15.181  11.841 -0.0000  0.0850 -0.1579
11894W        W28368   1.097   8.753   5.038 -0.2764  0.0478 -0.0693
11895W        W28369   5.067  13.372  13.394 -0.0613  0.0833  0.1653
11896W        W28370  17.053   7.211  12.351  0.1554  0.4103 -0.1414
11897W        W28371  15.142  16.798   3.888 -0.3688 -0.0757 -0.1584
11898W        W28372   5.061  12.261   1.738 -0.2638  0.1358 -0.1581
11899W        W28373  12.818   3.930   4.753  0.3775  0.0522 -0.0120
11900W        W28374  11.137   3.355  11.377  0.1184 -0.1601  0.1147
11901W        W28375   8.530  15.154  12.080 -0.0839 -0.3620 -0.0637
11902W        W28376   5.252  16.018  10.731 -0.0970  0.0504 -0.0013
11903W        W28377   7.078   6.445  14.485  0.1653  0.2782 -0.1907
11904W        W28378   2.083   6.755  12.964 -0.4303 -0.0871 -0.1531
11905W        W28379  11.040   7.322  11.615 -0.1054  0.0754 -0.2028
11906W        W28380   5.386   8.382   3.767 -0.0803 -0.1355  0.0746
11907W        W28381  11.414   6.298   4.460  0.1504  0.0373  0.1601
11908W        W28382  10.165  13.729   0.880 -0.0812  0.1678  0.2744
11909W        W28383   5.456   5.339  15.563  0.0126  0.0198  0.0085
11910W        W28384  11.783  13.795  15.616 -0.0536  0.0452  0.2109
11911W        W28385   2.513   7.043  12.141 -0.1778  0.0800  0.0389
11912W        W28386  15.485   7.363   0.893 -0.2656  0.1434 -0.0588
11913W        W28387   4.167  13.546   3.741  0.0558 -0.0169 -0.3769
11914W        W28388   9.101  17.800   3.854  0.0596 -0.0884 -0.1484
11915W        W28389  14.788   4.367  11.975 -0.0620 -0.1616  0.2258
11916W        W28390  10.451  13.941  12.102 -0.0698  0.1064  0.0809
11917W        W28391   7.289  14.810   0.367  0.2981 -0.1255 -0.1214
11918W        W28392   9.570   5.612  15.804 -0.0408 -0.1518 -0.0646
11919W        W28393   7.241   2.961  16.203  0.2038  0.0773  0.1086
11920W        W28394   7.502  14.560  13.546  0.0070 -0.3583 -0.0819
11921W        W28395  10.805   9.355  15.978 -0.1236 -0.2499  0.0407
11922W        W28396  12.868  17.994   3.851  0.0153 -0.2044  0.0471
11923W        W28397   7.348   5.041  15.071 -0.1399 -0.0807 -0.4804
11924W        W28398  10.169  13.368   0.511  0.2291 -0.0940  0.0279
11925W        W28399   3.905   7.276  16.286 -0.0045  0.2047 -0.1625
11926W        W28400  16.486  16.780  14.937 -0.0560  0.1212 -0.2065
11927W        W28401   5.374   6.929  12.957  0.2359 -0.0226 -0.1194
11928W        W28402   0.227   8.566   0.962  0.1799 -0.0181  0.0296
11929W        W28403   9.787  15.770   5.526 -0.0096  0.1815  0.0715
11930W        W28404   7.458   1.445   3.159  0.0049  0.0863  0.3504
11931W        W28405   6.879  12.797  11.905  0.3610 -0.2416 -0.1095
11932W        W28406   4.830   5.522  13.036  0.1102 -0.3029  0.2705
11933W        W28407  13.895   1.863   2.716  0.2663 -0.0723  0.4397
11934W        W28408  10.514   1.631  15.408  0.0821  0.2499  0.0132
11935W        W28409  11.913  12.302  10.647 -0.1445 -0.0394 -0.3078
11936W        W28410   3.400  13.516   1.580 -0.1993  0.0299  0.1865
11937W        W28411   7.314   0.614  12.302 -0.1760  0.0441  0.1619
11938W        W28412   0.024   7.326   1.974 -0.0490  0.2168 -0.0977
11939W        W28413   7.694   4.403   3.300 -0.0135 -0.0205  0.0920
11940W        W28414   0.172  16.314   1.558  0.1492 -0.1305 -0.0432
11941W        W28415   2.111   9.995   1.227  0.0198  0.0345  0.2660
11942W        W28416  16.605  16.103  12.043 -0.0539 -0.2929 -0.2512
11943W        W28417   3.840  12.053  15.901  0.2440 -0.0608  0.0888
11944W        W28418  14.047   7.260  14.534 -0.2389 -0.0979 -0.0396
11945W        W28419  11.778  13.186   5.903 -0.1385  0.2028 -0.1000
11946W        W28420   6.489  11.872   2.489  0.0213  0.2316 -0.0132
11947W        W28421  14.821  16.354   0.606 -0.0604  0.1791  0.1970
11948W        W28422   0.557  15.013   0.272 -0.0285 -0.4635  0.0822
11949W        W28423  14.776  11.949  14.708 -0.0510 -0.0463 -0.1660
11950W        W28424  11.648  15.513   0.731  0.3703  0.3788  0.3517
11951W        W28425   9.173   1.472   5.627 -0.2489  0.3298  0.0677
11952W        W28426  12.765   0.561  12.688 -0.1382  0.2415 -0.0586
11953W        W28427  10.587   2.059   0.590 -0.0704  0.1696 -0.0075
11954W        W28428   6.864   9.951   5.356 -0.0439  0.2106  0.3157
11955W        W28429  12.186  10.583   5.659 -0.0489 -0.1712 -0.0226
11956W        W28430   2.174  12.241   2.639  0.0411  0.0230 -0.1621
11957W        W28431  14.015   3.059   4.346  0.1355  0.2509  0.0714
11958W        W28432  14.998   1.412  10.746 -0.0139  0.3369  0.1054
11959W        W28433  12.138  17.932  13.735 -0.0057 -0.0863  0.1113
11960W        W28434  13.086   4.812   2.939 -0.2603  0.3262  0.0148
11961W        W28435  16.060   7.169   3.939 -0.0402  0.1991  0.0193
11962W        W28436  10.711   2.810   6.114 -0.2035 -0.0573  0.0649
11963W        W28437  11.581   0.579   0.526 -0.2020 -0.1762 -0.0875
11964W        W28438   0.779  14.156  12.082  0.0579 -0.3854  0.1371
11965W        W28439   0.572  14.923   1.135 -0.1696 -0.1016 -0.0312
11966W        W28440   2.312  13.514   3.498  0.2993 -0.4181 -0.3176
11967W        W28441   9.368   4.438   3.263  0.1029 -0.1773 -0.0545
11968W        W28442   7.710  10.436   0.818  0.1428 -0.0490  0.2036
11969W        W28443   3.704  17.422  12.874  0.0026  0.2190  0.1377
11970W        W28444  11.945  10.787  16.028  0.2326  0.3057 -0.2455
11971W        W28445   5.172  14.634   2.558 -0.0666  0.0365  0.1355
11972W        W28446  13.939  15.521   0.114 -0.0569 -0.0609  0.1032
11973W        W28447  10.264  15.747  12.363  0.1004 -0.4172  0.2593
11974W        W28448   0.522   5.615  13.603  0.1837 -0.1959  0.2196
11975W        W28449   4.025   5.149   4.973 -0.0562 -0.2775  0.0341
11976W        W28450   2.944   9.307   2.129 -0.0728  0.0662  0.0224
11977W        W28451   1.061  18.057  12.150 -0.0477  0.2623 -0.2755
11978W        W28452  14.650   7.500   5.214  0.0058  0.2636  0.0209
11979W        W28453  17.642   8.762  11.413 -0.1136  0.0192 -0.0453
11980W        W28454   0.104   3.755   3.519  0.0386 -0.1076  0.1087
11981W        W28455   0.018  13.672  16.292 -0.1790  0.0053  0.1466
11982W        W28456   4.866  11.312   0.759 -0.1656 -0.0165 -0.0120
11983W        W28457  13.765   6.705  12.067 -0.1645 -0.2072 -0.0485
11984W        W28458   6.621   6.511   1.168 -0.2313  0.0508  0.2677
11985W        W28459   8.872  14.253   4.919  0.0962 -0.2134  0.0294
11986W        W28460   4.297   0.724   4.886 -0.1321  0.0185 -0.2449
11987W        W28461   6.418   7.311   4.323 -0.2847  0.0448 -0.2125
11988W        W28462  11.495  14.154   5.735  0.1954  0.2806  0.1397
11989W        W28463   7.084  16.597  14.613  0.1926 -0.1443  0.0542
11990W        W28464   8.894  15.578  12.627 -0.1030  0.1316 -0.0812
11991W        W28465   1.060   4.351   3.131  0.3332  0.2205 -0.0400
11992W        W28466   0.259   5.105   3.701 -0.0682  0.2038 -0.1374
11993W        W28467   2.180  17.748   4.314 -0.1748  0.1664 -0.3500
11994W        W28468   3.372   8.049  16.140  0.1800 -0.2140  0.4215
11995W        W28469   6.382   6.056   0.977  0.0297 -0.0356  0.0469
11996W        W28470   9.928   4.495   1.394 -0.1680 -0.0059  0.1817
11997W        W28471  16.074   9.366  11.583  0.2388  0.0745 -0.0321
11998W        W28472  16.428   1.288  16.179  0.0150  0.0565 -0.1182
11999W        W28473   9.711  11.188   3.963 -0.1710  0.2150 -0.1056
12000W        W28474   8.025   0.049  12.001 -0.3105 -0.1754 -0.0892
12001W        W28475  14.143  12.893  13.872  0.1423 -0.1018  0.1857
12002W        W28476   9.992   1.818  15.761 -0.0201 -0.1319  0.2328
12003W        W28477   0.950  13.877   4.370  0.1597  0.0899 -0.2850
12004W        W28478  17.312   9.244   5.018 -0.0662  0.2421  0.0563
12005W        W28479   9.917  17.607  11.880 -0.2324 -0.0943  0.0424
12006W        W28480   7.321   9.067  11.809  0.0906  0.1077 -0.0071
12007W        W28481  16.680  10.378  14.298 -0.4170 -0.1328  0.1438
12008W        W28482  15.077  10.030   1.218  0.0121  0.0111 -0.3065
12009W        W28483   9.627  12.322   1.669  0.0396  0.0942 -0.0790
12010W        W28484   2.408  12.538  15.463  0.1015 -0.2949  0.0340
12011W        W28485   9.160  13.423   0.691 -0.0073 -0.3022  0.1045
12012W        W28486  15.208   9.665  13.960  0.2428  0.2783 -0.0003
12013W        W28487  16.112   0.164   3.672 -0.1696  0.3573 -0.1377
12014W        W28488   5.784   4.684   3.546 -0.0676  0.0545 -0.1403
12015W        W28489   4.622   5.856   3.514  0.0709 -0.0218 -0.0504
12016W        W28490  17.004  14.304  12.136  0.1139 -0.0147  0.0776
12017W        W28491  16.861   2.002  10.173  0.0677  0.2798  0.2143
12018W        W28492  17.956  11.943   4.494  0.0194  0.3261 -0.0871
12019W        W28493  16.774  13.910   5.488  0.0812 -0.0653  0.1450
12020W        W28494  13.972   0.524  12.523 -0.1818 -0.0233 -0.0668
12021W        W28495   2.666  12.698   0.084 -0.2093  0.2919 -0.0457
12022W        W28496  14.824   6.938   2.539  0.1000 -0.0143 -0.0341
12023W        W28497  13.913   2.190  12.869 -0.1713 -0.0874 -0.0570
12024W        W28498  15.262  14.119  11.913 -0.0358 -0.1790  0.1193
12025W        W28499  11.415   8.020   1.583  0.2337 -0.1572  0.0182
12026W        W28500  14.911  10.928  12.159  0.2318  0.0485  0.1877
12027W        W28501   9.542  16.569  11.838  0.1630  0.0714 -0.0007
12028W        W28502   8.314  16.124  12.448 -0.0365  0.2485 -0.0951
12029W        W28503   8.676   5.204  13.260 -0.0534 -0.1154 -0.0349
12030W        W28504   0.026   7.041  13.779  0.2839  0.0348 -0.0218
12031W        W28505  10.151   2.247   4.312  0.1115 -0.0537 -0.0832
12032W        W28506   0.372  13.526  12.375 -0.0372  0.0024 -0.0623
12033W        W28507   4.501   6.933   2.679 -0.1168  0.0238  0.0646
12034W        W28508  11.398   8.185   4.707  0.0234 -0.0753 -0.2413
12035W        W28509  12.110   7.484   0.961 -0.0911  0.2544 -0.1562
12036W        W28510   4.002   0.793   4.405 -0.1531  0.1197  0.1705
12037W        W28511   8.711   4.748   4.148  0.0192 -0.2082 -0.1008
12038W        W28512   8.613   5.745   3.160  0.1860 -0.1071  0.2769
12039W        W28513   0.316  17.450   5.260 -0.0502  0.1073 -0.0005
12040W        W28514  17.713   5.629   4.876 -0.3074 -0.2748 -0.0602
12041W        W28515  14.652  11.540   3.667 -0.2239  0.2254  0.0535
12042W        W28516   3.416  12.206   4.961 -0.1826 -0.0872  0.3686
12043W        W28517   7.534   4.412   0.031 -0.0406 -0.0562 -0.3463
12044W        W28518   3.993   8.468  14.359 -0.0999  0.1092 -0.1594
12045W        W28519   1.946   5.164   0.130 -0.2597  0.0194  0.2156
12046W        W28520   2.292  13.032  12.031  0.2005 -0.1681 -0.0992
12047W        W28521   9.929  14.913   4.983  0.0679 -0.1921  0.0879
12048W        W28522  17.447   7.534   2.186 -0.0100  0.1483  0.1812
12049W        W28523   7.601   0.163  14.273  0.0819  0.2934  0.1548
12050W        W28524  15.972   5.667   3.697 -0.0465 -0.2403  0.0984
12051W        W28525   8.020  15.053  14.718  0.1008 -0.0671 -0.1185
12052W        W28526  12.730  10.902  13.067  0.3813  0.0907  0.1541
12053W        W28527  10.531   5.398  16.035 -0.1206  0.2094 -0.0605
12054W        W28528   8.177   1.612   2.257  0.0078 -0.2365 -0.0694
12055W        W28529  17.413  12.499  11.693  0.0855 -0.3876 -0.1457
12056W        W28530  12.480   3.800   3.872  0.0126  0.0823 -0.0411
12057W        W28531  17.844  15.417  14.532 -0.2150  0.1549  0.1837
12058W        W28532  17.782  10.203  13.889 -0.1806 -0.1059  0.2784
12059W        W28533  11.090  15.579   0.772 -0.2446 -0.1033  0.0244
12060W        W28534  12.650   8.482  11.281  0.0923 -0.3984  0.0515
12061W        W28535   7.637   1.244   1.908  0.0937 -0.0765 -0.0987
12062W        W28536   7.480   6.783   4.469 -0.2014 -0.0356 -0.3730
12063W        W28537  14.712   2.386  11.834  0.2096  0.1735  0.0171
12064W        W28538   9.929  15.251   3.178 -0.1117  0.0857 -0.0614
12065W        W28539   4.669   4.523   1.684  0.1986  0.1412  0.2789
12066W        W28540   3.869  10.548  15.240 -0.1560 -0.0241 -0.1149
12067W        W28541  10.832   2.217  13.585  0.0559  0.3473 -0.2357
12068W        W28542   6.365  18.085   2.596 -0.0131  0.2720 -0.0007
12069W        W28543   4.341  13.111   3.585 -0.1865  0.0202  0.2309
12070W        W28544   3.458   0.129   0.686  0.0816 -0.0425  0.0789
12071W        W28545   5.571  12.612  14.267  0.1557 -0.0410  0.4298
12072W        W28546  11.166  13.275   1.614  0.1106  0.0177  0.3083
12073W        W28547   1.901  14.528  10.782 -0.1647 -0.2524 -0.1083
12074W        W28548  15.669  15.111  16.124  0.2019  0.1232  0.0065
12075W        W28549   8.153   4.621   3.533  0.3120  0.2841  0.0831
12076W        W28550  13.420  13.046  12.867 -0.1017  0.0973  0.1306
12077W        W28551  15.236  11.121   4.390  0.0000  0.1907 -0.1074
12078W        W28552   4.734   7.349  11.353  0.1467 -0.0632  0.2442
12079W        W28553   6.005  17.635  12.891 -0.0983  0.0485  0.2401
12080W        W28554   0.538   2.508   1.314  0.1582 -0.1535  0.0396
12081W        W28555  15.434   5.295  10.917 -0.1835  0.2132  0.0752
12082W        W28556   8.622  14.625  12.417  0.3851  0.0957 -0.0075
12083W        W28557  12.749  16.478  10.166 -0.2426 -0.2370 -0.2557
12084W        W28558   0.534  15.181   5.537  0.2765 -0.1895  0.0342
12085W        W28559   0.343   2.486   0.086 -0.1716  0.2294 -0.1664
12086W        W28560  16.803  12.841   2.128  0.0491 -0.0993  0.1883
12087W        W28561  12.891  16.700   4.481  0.0655  0.0191  0.0015
12088W        W28562  12.158   7.051   5.291 -0.1669 -0.0289  0.1070
12089W        W28563   9.822   6.729   5.278  0.0005  0.1255 -0.1117
12090W        W28564   3.979  12.907  13.020  0.0864 -0.2232 -0.0492
12091W        W28565  12.959  17.024   0.570  0.2972 -0.0266 -0.2799
12092W        W28566  10.205  15.072   0.192  0.0481 -0.0854 -0.1098
12093W        W28567   5.545  13.934  14.027 -0.0208  0.0685 -0.2769
12094W        W28568   3.404   2.988   4.163  0.0841 -0.0049 -0.4308
12095W        W28569  11.968   5.788  16.339 -0.1622 -0.0040  0.3613
12096W        W28570  12.889  14.917   0.042  0.0893 -0.0063 -0.2477
12097W        W28571   2.636  17.570   2.711 -0.0715  0.0257 -0.0106
12098W        W28572  12.362  15.384  15.631 -0.0588  0.2229  0.3310
12099W        W28573  13.570  12.078   3.009  0.0158 -0.0237  0.0001
12100W        W28574   4.123   9.097   4.389 -0.1538  0.1933  0.0576
12101W        W28575   5.406  14.296   2.076 -0.4518  0.0161 -0.0388
12102W        W28576  16.761   2.193  13.033  0.0259 -0.0695  0.0537
12103W        W28577   5.276  10.717  11.366 -0.0229  0.0645 -0.1695
12104W        W28578  14.773  16.838   5.969  0.0542 -0.0255  0.1736
12105W        W28579   1.411   9.442   2.440 -0.1234  0.0669 -0.0469
12106W        W28580  17.467  17.079   1.148 -0.0062  0.0187 -0.0622
12107W        W28581   5.321  15.057  14.238  0.0849  0.2367 -0.0301
12108W        W28582   8.445   9.257  11.194  0.0371 -0.1355  0.2010
12109W        W28583   1.236   2.757  14.554  0.0081  0.0628  0.1794
12110W        W28584   8.617  13.656  11.988 -0.0893  0.2604 -0.1176
12111W        W28585   2.064   2.159   2.900  0.0785 -0.0277 -0.1366
12112W        W28586  11.348  13.638  15.854 -0.1394  0.1977 -0.3491
12113W        W28587  13.481  12.857  11.455 -0.4521 -0.0799  0.1504
12114W        W28588   7.705   4.214  12.658  0.1853  0.2850 -0.1352
12115W        W28589   2.143  13.212   2.702 -0.0116  0.1606  0.0950
12116W        W28590   2.890  11.536  11.874 -0.1437  0.1160 -0.0297
12117W        W28591   0.888   0.891  15.806 -0.0505 -0.2226  0.0337
12118W        W28592   0.798   1.218   1.726  0.1816 -0.0382  0.4517
12119W        W28593   9.953   3.627   5.254  0.0804 -0.1136 -0.0981
12120W        W28594   5.542   5.942   3.943 -0.1014  0.0202  0.0056
12121W        W28595   5.686  16.058  15.246  0.0968  0.2411  0.3634
12122W        W28596   5.988  13.163  12.944  0.2264  0.1531 -0.0536
12123W        W28597   1.043   9.609  15.595  0.2381  0.1601 -0.1389
12124W        W28598  10.756   6.636   2.580  0.2743 -0.1857  0.1288
12125W        W28599   4.912   0.485   2.619 -0.0197  0.2444  0.2227
12126W        W28600  16.903  10.514   4.084 -0.2301 -0.1912  0.2560
12127W        W28601   0.999   6.331  13.553 -0.2765  0.2203  0.1372
12128W        W28602   2.474   5.436  14.181  0.0752 -0.1043 -0.0963
12129W        W28603   3.059   9.808   0.274 -0.3537  0.3035 -0.1444
12130W        W28604  12.515  10.440   0.352 -0.0622 -0.0033 -0.0265
12131W        W28605  14.271  14.637  14.413  0.0129  0.0022  0.1072
12132W        W28606   0.720  13.562   4.672 -0.1075  0.0958 -0.2398
12133W        W28607  17.440  15.490   3.832  0.0107 -0.3215  0.0881
12134W        W28608   2.530   4.986  14.435  0.2443  0.1322 -0.1658
12135W        W28609   3.601   6.482   3.494  0.1358  0.1315 -0.1793
12136W        W28610  16.575  17.459   3.719 -0.1147  0.0255 -0.0822
12137W        W28611   6.732  13.005   4.844  0.0830  0.0049 -0.2380
12138W        W28612   6.682   2.709   1.763  0.3914  0.1622 -0.1484
12139W        W28613   8.115   9.847   0.435  0.2481  0.1169 -0.0508
12140W        W28614   5.729  11.516  12.834  0.0327  0.0510  0.1992
12141W        W28615  10.290   1.768  13.133 -0.1422  0.1475 -0.2593
12142W        W28616  11.732  16.384   3.329  0.0761  0.1783  0.1576
12143W        W28617  11.165  16.787  15.638 -0.0820 -0.3031 -0.1341
12144W        W28618  17.238   5.175  15.858  0.1070 -0.3147  0.0672
12145W        W28619  14.650   0.255  14.210  0.1696  0.0588 -0.2470
12146W        W28620  17.400  14.620   0.009  0.1027  0.1895 -0.2848
12147W        W28621  16.669  10.307   1.034  0.0608  0.1560 -0.0637
12148W        W28622  13.787   1.417  14.779 -0.2300  0.0810 -0.1852
12149W        W28623  10.332   3.128   3.858  0.0804  0.1508  0.1393
12150W        W28624  15.272  17.995  13.312  0.0869 -0.0635  0.0607
12151W        W28625   3.906   6.672   0.786  0.2492 -0.0410  0.1127
12152W        W28626   8.219  15.864  11.600 -0.0781 -0.3545  0.0141
12153W        W28627   0.933   8.112  16.367 -0.1327 -0.0941 -0.3131
12154W        W28628  11.328  12.087  12.354  0.0233  0.3140 -0.3016
12155W        W28629   3.778   5.997   0.158 -0.1547  0.1591 -0.0213
12156W        W28630  11.515   8.574  13.368 -0.3416 -0.1237  0.0490
12157W        W28631   6.495   3.029  12.175  0.2280  0.2240  0.0238
12158W        W28632  13.699  15.725   3.899 -0.3154  0.0338 -0.0697
12159W        W28633  15.391   3.337   5.204  0.1056  0.0240  0.1659
12160W        W28634   0.951   5.350   5.174 -0.0771  0.1179  0.3187
12161W        W28635   5.944   5.404  12.457  0.1013  0.0740  0.0836
12162W        W28636   6.472  14.247   0.416  0.0895 -0.0267 -0.3200
12163W        W28637   6.793   2.298   2.064 -0.2311  0.3416 -0.3322
12164W        W28638   9.382   7.544  11.647 -0.0798  0.1559 -0.0738
12165W        W28639   7.480   4.144   4.229  0.1479 -0.4685  0.2679
12166W        W28640   5.226  13.318   1.961 -0.0434  0.4576  0.2398
12167W        W28641   1.774   1.347   0.400 -0.2120 -0.1631  0.3990
12168W        W28642  15.751   7.891   2.766  0.0432 -0.1858 -0.0633
12169W        W28643   8.211  12.544  14.190 -0.1635  0.0332  0.0697
12170W        W28644   2.400  17.531  14.680 -0.2692 -0.2357  0.0068
12171W        W28645   7.988   8.127   0.801  0.0052 -0.4117 -0.1712
12172W        W28646  12.536   0.006  11.350 -0.0218 -0.2284 -0.1172
12173W        W28647   5.942   3.515  13.161  0.2110  0.3690  0.0835
12174W        W28648   2.686  14.051  13.126 -0.0562  0.0195  0.0428
12175W        W28649  13.479  16.692  15.622  0.2982  0.0081  0.0568
12176W        W28650  17.717   9.396   4.714 -0.0522  0.1996  0.1542
12177W        W28651   2.166   6.416   4.750 -0.2530  0.0022 -0.1227
12178W        W28652  12.601   1.448   0.619  0.1948  0.0387 -0.0971
12179W        W28653  13.305   7.926  13.603  0.2335  0.1011 -0.0646
12180W        W28654   0.475   7.546  11.748 -0.0153 -0.3282  0.2215
12181W        W28655   9.283  11.512  14.553  0.1797  0.1780 -0.0179
12182W        W28656   3.279  12.020   2.677  0.0852  0.0293 -0.2676
12183W        W28657   3.255   3.953   1.725  0.2259 -0.2817 -0.1838
12184W        W28658  15.923   5.470   5.164 -0.4272 -0.0845 -0.1602
12185W        W28659   3.645  15.604   2.632  0.0431 -0.1246 -0.1224
12186W        W28660   8.198   0.179   5.867  0.0373 -0.1000 -0.1020
12187W        W28661   7.213  16.904  16.336  0.1393  0.0793  0.0300
12188W        W28662   7.281  16.430   2.576 -0.1459  0.3212  0.3495
12189W        W28663  15.178  11.738   1.701  0.0713 -0.2017  0.2190
12190W        W28664  14.929  13.186   0.531 -0.0539 -0.0847  0.0520
12191W        W28665   1.317  15.707  14.886  0.1023 -0.1832 -0.0897
12192W        W28666   6.748  14.364   2.230 -0.4780 -0.1364  0.0860
12193W        W28667  11.533  13.479   5.161  0.2982  0.0226 -0.1506
12194W        W28668   1.672   3.552  14.491  0.0879 -0.2765 -0.2983
12195W        W28669  12.154  13.562  12.279 -0.3274  0.0830  0.2925
12196W        W28670  11.550   5.462   5.609  0.0513  0.0142  0.1724
12197W        W28671  14.330  14.999   3.314  0.3941 -0.3030  0.2998
12198W        W28672  13.180   7.956  11.626  0.0669 -0.1411  0.0306
12199W        W28673   3.075  17.509  11.610  0.0283 -0.1538  0.1697
12200W        W28674   2.912  12.578  11.473  0.3160  0.1196 -0.2265
12201W        W28675   4.576   3.794  13.449 -0.1399  0.0576 -0.1588
12202W        W28676   1.111  17.291   4.475 -0.2791 -0.0086 -0.0726
12203W        W28677   3.797  15.553   0.180 -0.2991  0.1101  0.1038
12204W        W28678   7.735  17.231  12.880 -0.1657 -0.2175  0.0378
12205W        W28679   8.649   5.961   1.471  0.0344 -0.1691  0.0891
12206W        W28680  10.882  15.369  11.934  0.2200  0.1282  0.0209
12207W        W28681  17.124  13.531   4.094  0.1040  0.1090  0.1649
12208W        W28682   2.307  16.449  12.785 -0.1797  0.1707  0.0468
12209W        W28683   0.219  14.351  16.119 -0.0014  0.2677  0.0859
12210W        W28684   4.652  11.938   2.531  0.1501 -0.2162 -0.1547
12211W        W28685   6.624   9.927  14.747  0.1353  0.0846  0.2194
12212W        W28686  17.876  16.918   5.760 -0.0847  0.2018 -0.1815
12213W        W28687   9.309   7.124  12.379 -0.0230 -0.2284  0.0185
12214W        W28688  12.968   8.371  15.962  0.4227  0.3027 -0.0898
12215W        W28689  15.449  17.625  10.698 -0.0159 -0.1715  0.2689
12216W        W28690   6.424   4.998  13.712 -0.0945  0.1739 -0.0472
12217W        W28691   6.003   4.634   1.812  0.1630  0.0783 -0.1398
12218W        W28692   2.824   7.158  14.131  0.1626  0.2304  0.0934
12219W        W28693   7.990  13.698  15.923 -0.0153  0.3029 -0.0380
12220W        W28694  17.135   9.859  12.528 -0.1642  0.0871  0.2090
12221W        W28695  16.535   9.614  13.091  0.1458  0.0855  0.1290
12222W        W28696  11.276  14.394  12.740 -0.3023 -0.0517  0.2062
12223W        W28697  15.715   3.099   4.385 -0.3361 -0.0714  0.0978
12224W        W28698   0.047   7.347   3.996 -0.0450 -0.1928  0.0691
12225W        W28699   1.442  17.124  15.703 -0.0619 -0.0891  0.0947
12226W        W28700  15.510   9.110   0.208  0.1978  0.3134  0.1597
12227W        W28701   9.615   2.305  12.667 -0.1921 -0.0197  0.1816
12228W        W28702   8.659   2.362  13.337  0.0202  0.1361 -0.4007
12229W        W28703   5.380   1.576  11.326 -0.0267 -0.0098 -0.2575
12230W        W28704   1.068   3.640   1.765 -0.0181 -0.1726 -0.0587
12231W        W28705  12.110   7.314   1.492 -0.1902 -0.0754  0.2476
12232W        W28706   9.683  14.620   3.449 -0.0436  0.1619  0.1792
12233W        W28707  16.697  10.891   1.939 -0.1606  0.0301  0.3257
12234W        W28708  16.975   0.070   5.388 -0.3173 -0.1329  0.1396
12235W        W28709  12.132   9.412   3.307 -0.1343 -0.1179  0.0107
12236W        W28710   3.907   7.307  15.767 -0.0205 -0.1857  0.1314
12237W        W28711   4.938  13.391  12.875 -0.2709  0.3181 -0.0924
12238W        W28712   1.383  10.299   3.484 -0.0137 -0.1721 -0.2390
12239W        W28713  10.303  10.873  10.406  0.0325 -0.0470  0.1404
12240W        W28714   7.042   3.575   3.478  0.1260 -0.0103  0.0779
12241W        W28715   3.447  15.199  11.512  0.0641 -0.1368  0.3051
12242W        W28716   0.827  15.159   2.875  0.0926  0.0178 -0.2161
12243W        W28717  16.858  11.841  11.907  0.0590 -0.0053 -0.0145
12244W        W28718   2.607  16.821  13.666  0.0419  0.1233 -0.0247
12245W        W28719   2.677   3.820   5.272  0.1189  0.0870  0.0297
12246W        W28720   7.140  12.566  15.375  0.0085 -0.0429 -0.1450
12247W        W28721   5.635   0.641   3.451  0.1567  0.1486  0.1407
12248W        W28722   9.249   1.775   2.699  0.0180  0.0793  0.3126
12249W        W28723   5.693  14.759   5.718 -0.4758 -0.1277  0.3856
12250W        W28724  13.032  15.740  11.038  0.1444  0.0057  0.1882
12251W        W28725   3.877  13.470  15.016  0.1472  0.1179  0.0311
12252W        W28726   1.372  14.005  15.714  0.0306  0.3666 -0.1809
12253W        W28727  18.079  10.601   1.637 -0.0600 -0.1969 -0.2320
12254W        W28728   9.938   1.470   0.232  0.1642  0.1699 -0.5597
12255W        W28729  13.818   4.369  12.969 -0.2688  0.0941 -0.0287
12256W        W28730   6.411  10.262  13.567 -0.2063 -0.1942  0.1310
12257W        W28731  14.242   4.500   4.147 -0.4353 -0.0900 -0.0310
12258W        W28732  16.750   6.353   2.791  0.1114 -0.0648 -0.0645
12259W        W28733  15.916  16.643  15.019 -0.0663  0.2398 -0.2004
12260W        W28734  10.074  10.740  11.504 -0.1381 -0.0950  0.0943
12261W        W28735   8.533   0.408   5.499  0.0153 -0.0328  0.2341
12262W        W28736  17.310   6.088  11.389  0.1585  0.3691 -0.0421
12263W        W28737   4.914   0.306  13.027 -0.2759  0.0248  0.1702
12264W        W28738  16.133  18.139  10.287 -0.1135 -0.0671 -0.2676
12265W        W28739   6.186   1.659  16.113 -0.0635  0.2141 -0.1136
12266W        W28740  17.648   0.310   2.600 -0.1566 -0.0087 -0.2744
12267W        W28741   3.440  12.429  15.925  0.0734  0.1650  0.1173
12268W        W28742   3.713   6.040   3.125 -0.0063  0.0712  0.1351
12269W        W28743   7.616  12.230  11.428 -0.3786 -0.0443 -0.3712
12270W        W28744   5.428   2.139  15.933 -0.3456  0.1029 -0.1608
12271W        W28745  13.103   6.815   1.565 -0.1240  0.1316  0.0477
12272W        W28746  14.631  15.550  12.204  0.2055  0.3206 -0.3852
12273W        W28747   0.663   3.305  13.717  0.0188  0.0124  0.1269
12274W        W28748   7.828  17.415  14.741  0.2241  0.0213  0.0459
12275W        W28749   2.939   3.160  12.135 -0.1674 -0.0790  0.0577
12276W        W28750   1.516   4.220   2.314  0.0177 -0.1696 -0.1146
12277W        W28751   2.653   6.643   1.919  0.0739  0.0511 -0.1235
12278W        W28752  11.850   8.479   0.855 -0.1745 -0.2619  0.1583
12279W        W28753   9.161   4.945   0.481 -0.0389  0.1550 -0.1542
12280W        W28754  12.057  10.621   2.535  0.0468 -0.3637  0.3620
12281W        W28755  12.841  12.139   4.962 -0.1397  0.1647 -0.0065
12282W        W28756   3.801   7.403  13.470  0.0824  0.3408  0.1395
12283W        W28757  16.398   1.305  13.033 -0.0327  0.0135 -0.0381
12284W        W28758   8.027   1.566  15.548 -0.1524 -0.1313  0.1402
12285W        W28759  10.291   0.860  15.806  0.0759 -0.3646 -0.0048
12286W        W28760   2.703  17.339   5.385 -0.3265  0.0291  0.0955
12287W        W28761   1.228  13.032   0.498 -0.0140  0.1395  0.0927
12288W        W28762   6.280   1.377  15.728 -0.0126 -0.1825  0.1028
12289W        W28763  10.460   3.672   1.610 -0.0989  0.4012  0.1614
12290W        W28764  10.810   7.229  14.484 -0.0315 -0.1808  0.1020
12291W        W28765   8.169   2.180  13.656 -0.0523 -0.1774  0.3310
12292W        W28766  15.251  12.097   1.305  0.2764 -0.1198 -0.0238
12293W        W28767   9.497  10.016  15.379  0.3325  0.1342 -0.0941
12294W        W28768  15.581   9.192  12.993  0.0951 -0.2261  0.0374
12295W        W28769   3.474   7.310   0.127 -0.0918 -0.0060 -0.4279
12296W        W28770  11.619  17.316   6.033  0.1645  0.0930 -0.0335
12297W        W28771   6.472  11.595  15.880  0.2724  0.0024 -0.2441
12298W        W28772   8.235   9.668  15.678 -0.2863 -0.1542 -0.2392
12299W        W28773   1.030   8.797  12.742 -0.2433 -0.0718  0.0454
12300W        W28774   1.332   4.460   4.934 -0.0198 -0.0005  0.1242
12301W        W28775   3.206   9.457  16.182 -0.0591  0.1962  0.1901
12302W        W28776   7.082   1.113  13.550 -0.2782  0.0804 -0.0714
12303W        W28777  11.501  16.668   1.916  0.1429  0.2551  0.2034
12304W        W28778   8.176   1.379  11.342  0.2542  0.0012 -0.0191
12305W        W28779  15.498  12.174   1.760 -0.2321 -0.1891  0.2507
12306W        W28780   7.803  17.061  14.060 -0.1966  0.1103  0.1167
12307W        W28781   7.024   9.919  11.940 -0.0059  0.0816 -0.3866
12308W        W28782  17.296   8.267  15.972 -0.0809 -0.2434  0.0230
12309W        W28783   0.260   1.059  12.565 -0.0181  0.1795  0.0875
12310W        W28784  15.633  15.301  14.190  0.0240 -0.0233 -0.1124
12311W        W28785   6.688   0.742  11.352 -0.1092  0.2394 -0.3637
12312W        W28786   6.450   2.613   5.463 -0.0758  0.1127  0.1398
12313W        W28787   4.842  11.828   1.493  0.0452  0.0405  0.0268
12314W        W28788   7.239   0.289   1.474  0.0505 -0.0887  0.0132
12315W        W28789  15.704  11.925   4.224  0.0558 -0.1194  0.2908
12316W        W28790   0.385  13.453   1.313  0.2035 -0.0453  0.0516
12317W        W28791  16.654  17.701  11.509 -0.0127  0.0824 -0.2460
12318W        W28792  10.255   2.975   4.761 -0.1101 -0.1570 -0.0830
12319W        W28793  12.087   5.868   5.908 -0.0984 -0.0652 -0.0671
12320W        W28794   7.614   2.822   3.275  0.0075 -0.3064 -0.1187
12321W        W28795   8.086   2.020  14.805 -0.0875  0.0935 -0.0934
12322W        W28796  15.562  12.265  10.617  0.0873 -0.0924  0.0414
12323W        W28797   6.705   5.573   4.950 -0.1663  0.2793 -0.1951
12324W        W28798  17.050   6.201   5.171 -0.1717 -0.1556  0.0704
12325W        W28799  16.638  17.172  15.256  0.2010  0.3790 -0.2054
12326W        W28800  15.474  17.375   2.782  0.1200  0.2005  0.0444
12327W        W28801  12.332   6.694  11.609 -0.1607  0.0426  0.1823
12328W        W28802  17.944   9.184  13.261  0.0137  0.0684 -0.1673
12329W        W28803   7.186  15.535  11.992 -0.2297 -0.1243  0.2751
12330W        W28804   2.929   6.659  15.681 -0.1659  0.0864  0.0177
12331W        W28805  18.004  16.925  15.729 -0.1931 -0.0836  0.3510
12332W        W28806   0.536  13.966  10.340 -0.1873  0.2384 -0.1521
12333W        W28807  14.139   0.145   2.562  0.2836  0.0317  0.1092
12334W        W28808  14.799  13.218   6.144  0.0528  0.1962  0.1574
12335W        W28809  17.383  10.777   0.881 -0.2289  0.0880 -0.0914
12336W        W28810  16.379  14.847  13.721 -0.1899 -0.0491  0.1130
12337W        W28811  13.141   5.188   2.116  0.2709  0.0004  0.0523
12338W        W28812   0.934  13.041  14.375  0.0574 -0.1730 -0.1297
12339W        W28813   3.868   3.616   1.218  0.1396  0.0927  0.3607
12340W        W28814  16.558  10.314  14.778  0.1058 -0.0686 -0.2339
12341W        W28815  16.186   2.371   1.502 -0.1087  0.0521 -0.0527
12342W        W28816  14.275  11.310   1.452 -0.0574  0.0251  0.0893
12343W        W28817  13.297  16.243   5.478 -0.1501  0.0028 -0.2749
12344W        W28818  13.170  12.251  13.683 -0.4408  0.1191  0.1498
12345W        W28819   6.950  16.449   2.077 -0.0873 -0.1473  0.0849
12346W        W28820  14.883  15.288  14.194  0.1635  0.0652 -0.0774
12347W        W28821   3.972   0.326  12.002  0.0963 -0.3941  0.0823
12348W        W28822   9.979   0.010   4.796 -0.2536 -0.4074 -0.0392
12349W        W28823  14.500  12.204   3.930  0.2149  0.0284 -0.0597
12350W        W28824  14.173  10.868  13.727 -0.2456  0.0973 -0.1049
12351W        W28825   1.959   0.031  13.665  0.1707 -0.0339  0.2304
12352W        W28826  11.296  15.201   4.145 -0.0920 -0.3609  0.2561
12353W        W28827   2.414   9.127   4.949  0.0514  0.0569 -0.1690
12354W        W28828   1.468  15.515   1.261  0.4261 -0.2555 -0.0885
12355W        W28829   6.268   0.513  16.111  0.3238 -0.3518  0.0900
12356W        W28830  13.262   9.991   0.909 -0.0640 -0.1201  0.1716
12357W        W28831  12.124   4.296  15.020  0.0902 -0.1400 -0.0155
12358W        W28832   0.167  14.754   4.700 -0.4344 -0.0968  0.0927
12359W        W28833   9.229   3.339  14.705 -0.3459  0.1367 -0.0984
12360W        W28834  11.099   8.651   3.704  0.0057  0.0815 -0.1888
12361W        W28835   3.471  13.867   4.583  0.0505 -0.2100  0.0451
12362W        W28836   7.718  12.283  14.206 -0.2935 -0.1304 -0.1020
12363W        W28837   0.103  12.713  12.111  0.1409 -0.1115 -0.0552
12364W        W28838  14.956  11.880  14.133 -0.0598  0.2349  0.1267
12365W        W28839  14.638  11.595  14.423  0.2472  0.0343 -0.0817
12366W        W28840   4.337   7.308  16.011  0.1218  0.2142 -0.0107
12367W        W28841   3.003  16.101   4.219  0.4247 -0.0267 -0.2605
12368W        W28842  15.313   3.280  15.050 -0.1566  0.0356 -0.2295
12369W        W28843   9.342  12.951  13.316 -0.2120  0.4132  0.2576
12370W        W28844   7.110  17.384  16.128  0.0022  0.1259 -0.0979
12371W        W28845  15.534  13.222   4.439 -0.1063  0.1791  0.1736
12372W        W28846   4.910  11.837  15.241  0.0629 -0.1866  0.1877
12373W        W28847  10.197   7.778   4.685 -0.1426  0.2667 -0.1455
12374W        W28848  18.104   3.392  16.004  0.1388  0.1753 -0.1992
12375W        W28849  12.050   9.072   1.744 -0.1851  0.1931 -0.0840
12376W        W28850  14.394   4.967  15.307  0.1049  0.0034 -0.1597
12377W        W28851   9.277   7.067  11.335  0.0438  0.1149 -0.2547
12378W        W28852  17.500  13.416  13.767  0.4119  0.0644  0.2889
12379W        W28853  16.595  11.555   4.499  0.0164 -0.1333 -0.2590
12380W        W28854   5.252   4.528  12.606 -0.0966  0.3199 -0.1731
12381W        W28855   5.576  14.260   4.945 -0.2335 -0.0355 -0.2470
12382W        W28856   9.664  12.431  15.428  0.1514 -0.0318 -0.0117
12383W        W28857  18.163  10.519   1.166  0.4281 -0.1782 -0.3316
12384W        W28858   6.409  15.411   4.020  0.1918  0.1143  0.2649
12385W        W28859   6.341   4.697   2.828 -0.1864  0.0799 -0.2317
12386W        W28860   0.905  15.372   0.456  0.0015  0.0604  0.0843
12387W        W28861  12.798  12.972  15.546 -0.1667  0.2575  0.1527
12388W        W28862  13.750   9.689   1.026 -0.0900 -0.5254  0.1788
12389W        W28863   6.943  14.144   4.465 -0.0149 -0.0811  0.0861
12390W        W28864   2.735  17.504  12.866 -0.2763 -0.2481  0.0941
12391W        W28865   6.365   0.781   5.088  0.1167 -0.0444 -0.1511
12392W        W28866   0.195  18.162  10.446 -0.3455  0.2135  0.2298
12393W        W28867   7.618  12.699  14.802  0.1174  0.0563 -0.1133
12394W        W28868   3.352   0.694   0.951 -0.1927 -0.1823  0.2795
12395W        W28869   8.272  15.581  15.939  0.1904  0.0383 -0.1743
12396W        W28870  14.323  14.463   5.344 -0.0462 -0.1321  0.0848
12397W        W28871   5.160  10.094   1.635 -0.2817  0.0388  0.1976
12398W        W28872  15.893  11.652  12.011  0.1162 -0.2611  0.1491
12399W        W28873   1.353  10.205  16.311 -0.0161 -0.0884  0.0523
12400W        W28874  12.178   8.700  14.929  0.1213  0.1581  0.0665
12401W        W28875   2.935   6.411   2.968 -0.1984 -0.2821 -0.0786
12402W        W28876  10.665  15.704   5.437  0.0672 -0.3260 -0.0313
12403W        W28877  12.775  17.783  11.354  0.2022  0.0337  0.1688
12404W        W28878  10.736   1.047  13.167 -0.0023 -0.0508  0.0872
12405W        W28879   8.362  15.571   3.174  0.0398 -0.1360  0.0300
12406W        W28880  13.519  16.823   6.391  0.0510  0.1311 -0.0610
12407W        W28881   3.440  12.085  13.039  0.3260  0.1178  0.1523
12408W        W28882  11.863   6.222  15.468  0.2577  0.1362 -0.0309
12409W        W28883   4.522   4.613   3.198 -0.2376 -0.2059  0.0557
12410W        W28884   1.992  14.300   2.348 -0.1077 -0.2524  0.2316
12411W        W28885  12.096  14.505  13.531 -0.1054  0.0592  0.5707
12412W        W28886   0.004  16.464   5.649  0.1135  0.2731  0.3397
12413W        W28887   7.671  13.376   4.970 -0.2541 -0.0849  0.0104
12414W        W28888   5.109  12.029  13.248  0.2549 -0.1181  0.0631
12415W        W28889   5.173   3.878  16.159  0.1043 -0.1636  0.4575
12416W        W28890  10.470   6.895  14.660  0.1144  0.1523  0.0907
12417W        W28891   0.798   7.018  14.192 -0.0382 -0.2348 -0.1081
12418W        W28892   1.897  11.204  12.190 -0.1978 -0.0652 -0.0316
12419W        W28893  12.544  14.512   4.659  0.3464 -0.1026  0.1127
12420W        W28894  10.308   5.043   5.132 -0.2852  0.0107  0.1232
12421W        W28895   8.608  14.968   4.473  0.2722  0.0674  0.1177
12422W        W28896   3.232  11.669   4.598 -0.1633  0.1296 -0.0536
12423W        W28897  15.979  10.707  13.781 -0.2337 -0.3212 -0.2137
12424W        W28898  12.778   3.654   3.154  0.1478  0.0871  0.0625
12425W        W28899   5.025  14.907   4.386 -0.0642  0.1900 -0.0021
12426W        W28900   3.323   3.748   3.646  0.0995  0.1337 -0.0177
12427W        W28901  13.074   2.251  13.360  0.2169  0.0189 -0.0238
12428W        W28902  10.690  15.591   4.942  0.1299  0.2186  0.2120
12429W        W28903   2.586  13.638  14.070 -0.0471 -0.1621 -0.0532
12430W        W28904  17.112   9.453  13.262 -0.1158  0.0341  0.2351
12431W        W28905   9.729  17.216  15.137 -0.2711 -0.0601  0.3535
12432W        W28906  11.040   3.787  11.775 -0.0310 -0.0070  0.0023
12433W        W28907   0.950  15.102   5.762  0.0241 -0.1450  0.0528
12434W        W28908  10.487  17.647  14.831  0.0793  0.2164  0.1988
12435W        W28909   7.421   8.376  14.286 -0.0285  0.0486 -0.3428
12436W        W28910  10.860   0.209   1.205 -0.1835  0.1882  0.0103
12437W        W28911   6.854   3.220  13.023  0.1963  0.2367 -0.1723
12438W        W28912  12.682  14.456  11.542  0.2251  0.0301 -0.0464
12439W        W28913   6.581  18.051   4.052  0.3899  0.0799 -0.1415
12440W        W28914  16.302   5.576   3.329  0.2186 -0.1057 -0.1540
12441W        W28915  14.798   5.557  14.256 -0.1679  0.1544 -0.3115
12442W        W28916   9.785   0.907  15.798 -0.1969 -0.2846 -0.0044
12443W        W28917  11.827   7.950  11.659  0.3126  0.0054 -0.2516
12444W        W28918   8.099   8.430   0.382  0.0058  0.0266 -0.0327
12445W        W28919   1.324   8.126  14.535 -0.0714  0.0585  0.0922
12446W        W28920  18.122  14.779   3.663 -0.1444  0.1319 -0.0341
12447W        W28921   4.069   8.702   2.483  0.3151  0.3856  0.0732
12448W        W28922   1.107  14.829  11.835 -0.1031  0.2110 -0.1747
12449W        W28923   6.477   7.485  13.632  0.1564 -0.1398  0.0776
12450W        W28924   2.882   7.627  14.353  0.3793 -0.0456 -0.1360
12451W        W28925   3.738  10.694  16.232  0.1588 -0.0725  0.0598
12452W        W28926  14.855  13.603   5.199  0.2896 -0.0658  0.0833
12453W        W28927   4.924  10.390   3.676 -0.3191  0.0054  0.3285
12454W        W28928   1.126  13.331  15.896  0.1795  0.1366 -0.1182
12455W        W28929  14.787   6.139  13.043 -0.1984 -0.0560 -0.0944
12456W        W28930   4.643   3.113   1.840 -0.2594  0.0965 -0.2755
12457W        W28931  17.235  11.448   2.487  0.1140 -0.0950 -0.1047
12458W        W28932   0.249   4.621   4.036  0.0125  0.2165 -0.1549
12459W        W28933  16.257  14.882  12.020  0.1129 -0.1028 -0.2292
12460W        W28934   3.300  13.239  14.508 -0.0594 -0.1648 -0.0095
12461W        W28935  11.666   7.538  12.508 -0.1218  0.1679 -0.0514
12462W        W28936   3.779  18.069   3.426 -0.0866  0.1119  0.0327
12463W        W28937  11.684  15.893  14.474 -0.2051 -0.1583  0.0495
12464W        W28938   7.304  14.997   3.180 -0.0614 -0.1443 -0.2265
12465W        W28939  14.611   2.705   1.736 -0.0416 -0.1462 -0.0489
12466W        W28940  17.984  13.905   1.957 -0.1590  0.0949 -0.0326
12467W        W28941  16.312  14.740   5.213 -0.2015  0.0945 -0.1569
12468W        W28942   5.233   9.512  10.099  0.0529  0.0562 -0.0063
12469W        W28943  17.370  17.577  14.069 -0.0617  0.1630  0.4916
12470W        W28944   7.681   0.816  12.005  0.1256  0.0188 -0.1692
12471W        W28945  10.645  11.609  11.781  0.1220  0.0502  0.0934
12472W        W28946   5.841   6.406  14.123 -0.1714 -0.0661 -0.0351
12473W        W28947   4.660  17.435  14.405 -0.1739  0.0615 -0.1498
12474W        W28948  10.567   5.024   2.558 -0.1256  0.2753 -0.1302
12475W        W28949   8.966   0.010   3.578  0.1677  0.0495 -0.2568
12476W        W28950   9.317   2.852  11.587 -0.1000 -0.0661 -0.1710
12477W        W28951   4.671  12.390  11.178  0.2255 -0.3863  0.2132
12478W        W28952  14.137   1.470   1.444 -0.2569  0.2077  0.1413
12479W        W28953  11.244  17.147   3.519  0.1490 -0.1335 -0.0515
12480W        W28954   2.588  12.485   2.510  0.1575  0.0687 -0.1108
12481W        W28955  13.333  16.524   4.632  0.0126 -0.0103 -0.1216
12482W        W28956  17.626  12.213  13.726 -0.0396 -0.0624 -0.0311
12483W        W28957   0.326  17.728  16.104 -0.0231 -0.3045  0.0178
12484W        W28958   6.803   6.707   0.251 -0.1951  0.2020 -0.1351
12485W        W28959   4.072   2.294  10.991  0.1448 -0.1677 -0.0763
12486W        W28960  12.880   9.139   4.349 -0.1750  0.2232  0.0663
12487W        W28961   7.686  12.425  10.927  0.1156 -0.1645 -0.0089
12488W        W28962   0.412  13.864   2.835  0.0026  0.0297  0.1667
12489W        W28963   3.507   3.794  15.483 -0.4000 -0.1343  0.0428
12490W        W28964   8.193   4.381  12.769 -0.1371 -0.2306  0.1726
12491W        W28965   1.440  14.132  10.204 -0.3099 -0.0284 -0.3208
12492W        W28966  11.888  16.878  15.466 -0.0625 -0.0183  0.2720
12493W        W28967   0.636   3.962  11.408  0.0514 -0.0833 -0.0538
12494W        W28968  11.954  17.239  13.425  0.3306  0.0681 -0.4015
12495W        W28969   1.796   1.221   1.287 -0.0016  0.1316 -0.0610
12496W        W28970   3.942  13.518   1.509  0.3181  0.2727 -0.3696
12497W        W28971   2.299   1.100  12.174  0.1803 -0.0373 -0.1720
12498W        W28972  13.700   0.742  14.991 -0.4875 -0.1707 -0.0351
12499W        W28973  11.706   9.506  16.195 -0.1288 -0.0375  0.2103
12500W        W28974   1.348   7.802  13.124 -0.1878  0.1475  0.2909
12501W        W28975  11.992  16.462   4.253 -0.0116  0.1739 -0.3518
12502W        W28976   4.797  12.941  13.485  0.3042  0.0101  0.0966
12503W        W28977  15.846  11.391   5.432  0.2352 -0.0088 -0.2453
12504W        W28978  16.055   8.579   4.955  0.0001 -0.2300  0.0220
12505W        W28979   6.041   1.449  12.138 -0.0234  0.0888 -0.3048
12506W        W28980  10.921   3.473   0.219  0.1354 -0.3060  0.0264
12507W        W28981  11.051   2.815   2.561  0.2446 -0.1933 -0.4161
12508W        W28982   5.451  15.077  10.650 -0.1072 -0.2705 -0.2746
12509W        W28983   3.577   7.747  12.152 -0.0227 -0.1499 -0.2859
12510W        W28984   8.611   0.250   1.824  0.3601 -0.0892  0.1965
12511W        W28985   8.096  14.884   3.518  0.0469 -0.0724 -0.1248
12512W        W28986   5.658   8.919   3.128  0.2262 -0.3930  0.0008
12513W        W28987  10.827   6.692  14.359 -0.1691 -0.0323  0.0034
12514W        W28988   7.428  10.040  13.373  0.0012 -0.2450 -0.0030
12515W        W28989  16.429  13.171  12.447 -0.2230  0.0694  0.0191
12516W        W28990  12.484   3.677   0.685  0.1907 -0.2382  0.1495
12517W        W28991   7.047   6.319   0.859 -0.0033  0.0710  0.5429
12518W        W28992   6.246  17.203  10.478 -0.1570 -0.1347  0.3186
12519W        W28993   6.089   3.761   6.278  0.1598 -0.1111 -0.0646
12520W        W28994   0.202  10.128  15.559 -0.0196  0.1019 -0.0835
12521W        W28995   1.283   6.343  11.603 -0.1736  0.1342 -0.0737
12522W        W28996  17.479   6.082  13.175 -0.0417  0.2950 -0.0962
12523W        W28997   5.766  13.468   2.862 -0.0350  0.2082 -0.0458
12524W        W28998   6.139   6.513   5.975 -0.0293  0.0157 -0.1173
12525W        W28999   6.178  12.485   4.915 -0.0629 -0.0466 -0.4188
12526W        W29000  13.154  14.843   1.490 -0.0755  0.0341  0.1182
12527W        W29001   1.872   5.623   0.296 -0.1744  0.0223  0.2807
12528W        W29002   7.177   2.667   2.104 -0.0621  0.1696 -0.1935
12529W        W29003  13.561   8.010  14.033  0.1850  0.1666 -0.0806
12530W        W29004   4.612   6.360   1.947  0.4816  0.0227  0.2012
12531W        W29005   5.421  14.640   5.284 -0.1144  0.0805  0.0715
12532W        W29006   8.807   0.197  13.109 -0.4565 -0.0338  0.1350
12533W        W29007  14.614   1.759   5.446  0.2262  0.3621  0.0893
12534W        W29008  10.587   7.421  12.344 -0.1889  0.1416 -0.0305
12535W        W29009  11.584   2.895  14.809  0.3256  0.4287 -0.2009
12536W        W29010  16.671  15.043   4.890 -0.1596 -0.4940 -0.1836
12537W        W29011   4.404  12.796  16.312 -0.1265 -0.0767  0.0914
12538W        W29012  14.402   3.615   4.347 -0.2010 -0.2592 -0.0569
12539W        W29013  14.666   1.431  13.275 -0.0864 -0.0991 -0.0992
12540W        W29014  16.298   1.593  13.756  0.0437 -0.0130 -0.0545
12541W        W29015   7.808   4.107  14.887 -0.1428 -0.3592 -0.0244
12542W        W29016   9.174  12.408  15.498  0.1010  0.0535  0.1149
12543W        W29017   4.535  15.562  12.323  0.0263  0.0356 -0.0847
12544W        W29018   8.839  18.106   4.937  0.3593 -0.2320  0.0448
12545W        W29019  15.518  15.436   6.079  0.0052  0.1274 -0.0404
12546W        W29020   1.422   7.327  10.031 -0.1714  0.0944 -0.1272
12547W        W29021   6.987  13.917  12.929  0.0644  0.0075 -0.2601
12548W        W29022  17.596   2.749  12.414  0.2357  0.1213 -0.1660
12549W        W29023   1.109   9.503   5.413  0.1132  0.0310 -0.1950
12550W        W29024   2.524   8.617  12.974 -0.0554  0.0820  0.1383
12551W        W29025  15.956   5.943   4.313  0.1207  0.2508  0.3506
12552W        W29026  12.720  15.731   0.067  0.0623  0.2529  0.0051
12553W        W29027  13.443   0.928  13.797 -0.1214 -0.0056  0.0382
12554W        W29028  15.473   8.640   0.487 -0.0299 -0.1135 -0.4092
12555W        W29029  10.882   2.825   0.067 -0.0468  0.0106  0.1251
12556W        W29030  14.761  16.361   2.251 -0.0510  0.1550  0.2412
12557W        W29031   4.218   2.774  16.337  0.0382 -0.0320  0.0945
12558W        W29032   0.684  16.494  15.870  0.1614  0.0733  0.0386
12559W        W29033   1.409  16.480  12.909  0.2532 -0.0478  0.1604
12560W        W29034   0.136  13.837   1.493  0.1300  0.1040  0.0548
12561W        W29035  10.356  15.875   4.672 -0.0218  0.1395  0.1976
12562W        W29036  15.103   4.309  10.212 -0.0579  0.2990  0.3873
12563W        W29037   8.005  14.747  13.320 -0.1651 -0.1320  0.0327
12564W        W29038  14.934  12.516   1.246  0.0647  0.2517 -0.1524
12565W        W29039  16.128  17.594  11.825  0.0845  0.1946 -0.1315
12566W        W29040  17.367  10.995  13.987 -0.3966  0.0768  0.0118
12567W        W29041   0.209  16.979   4.988 -0.0566 -0.1191  0.3757
12568W        W29042  12.711   8.861   0.977  0.1752  0.0491  0.2455
12569W        W29043  10.002  13.958  16.054 -0.2966 -0.0901  0.2019
12570W        W29044   7.560   3.566   3.172  0.0873  0.2407  0.0279
12571W        W29045  18.154   5.000  15.388  0.0949  0.2177  0.0994
12572W        W29046   4.238  10.780  15.997 -0.3137  0.0616 -0.0654
12573W        W29047   9.324   8.615   4.295  0.0472  0.0410 -0.1481
12574W        W29048   2.945   9.334   0.350 -0.1247  0.0812  0.1757
12575W        W29049  14.763  17.181  14.879 -0.1350  0.2692 -0.2189
12576W        W29050  17.539   7.780  11.570 -0.2374  0.2627 -0.1379
12577W        W29051  13.580  12.465  15.924 -0.0372 -0.1628  0.1732
12578W        W29052  12.645   4.795  15.863  0.2892  0.2708  0.0923
12579W        W29053   5.100   8.563   2.399 -0.4919 -0.0822  0.0293
12580W        W29054   3.571   7.928   6.137 -0.2128  0.1356  0.1749
12581W        W29055   9.339  17.567  12.717  0.3067  0.3623  0.2424
12582W        W29056   3.855   0.649   0.380  0.1944 -0.1474  0.4285
12583W        W29057  13.958  11.677   1.247  0.0372  0.1900  0.0121
12584W        W29058   6.105   2.585  15.936  0.2927  0.2476 -0.0582
12585W        W29059  10.045   7.211  14.868 -0.1276 -0.0978  0.1968
12586W        W29060  13.937   9.598   2.035  0.0613  0.1631  0.2843
12587W        W29061   3.156  16.730   3.251  0.1337  0.2122  0.0489
12588W        W29062  14.154   7.236  15.093 -0.0252  0.0206 -0.0781
12589W        W29063  14.122  12.125   4.266  0.1588 -0.2368 -0.0766
12590W        W29064  11.618   1.785   0.410 -0.1700 -0.2700  0.1563
12591W        W29065  10.305  11.617   1.792  0.1633  0.0948  0.1605
12592W        W29066   1.456   9.721   4.126 -0.0256  0.1312 -0.3025
12593W        W29067  12.921   1.761  11.087 -0.1775 -0.1215  0.2581
12594W        W29068  12.528  17.711  14.537 -0.0076 -0.0051 -0.3045
12595W        W29069  16.602  12.903   3.887  0.4036 -0.1576  0.0778
12596W        W29070  11.928   0.202   4.048 -0.2663 -0.0109 -0.1742
12597W        W29071  13.149   0.529  11.343  0.0797 -0.0692 -0.0469
12598W        W29072   2.182   7.708  13.392 -0.0058 -0.1656 -0.0584
12599W        W29073   2.101   9.673  15.726 -0.0771 -0.2622 -0.4117
12600W        W29074  16.819   5.704  11.752 -0.0615 -0.1538 -0.3968
12601W        W29075   5.170  11.075   0.425 -0.0805  0.1212 -0.0826
12602W        W29076   7.667   4.746   3.630 -0.3922 -0.1986 -0.3722
12603W        W29077   2.127   5.779  14.010  0.3015  0.2549  0.1438
12604W        W29078  11.852   9.946  11.516 -0.0456  0.0081  0.0167
12605W        W29079  10.928   3.914  13.730 -0.0272 -0.1298 -0.3112
12606W        W29080  17.559   4.614   3.551 -0.1137  0.0844 -0.0196
12607W        W29081   5.776  11.626  11.274 -0.1216  0.2232 -0.1362
12608W        W29082  13.705  15.576  12.838 -0.0497  0.1014 -0.1242
12609W        W29083  17.523  18.029   2.925  0.1393 -0.2735 -0.0008
12610W        W29084   5.044   8.792  13.027 -0.1590 -0.0480  0.0789
12611W        W29085  12.949   7.836  12.845 -0.0011 -0.2208 -0.0616
12612W        W29086  13.672  12.578  13.704 -0.1305 -0.0267 -0.2659
12613W        W29087   8.738  16.276  14.876 -0.1831 -0.2400 -0.0879
12614W        W29088  14.621   2.311   4.015 -0.1745 -0.0063  0.0250
12615W        W29089   3.880   6.167   2.201  0.0219  0.2020 -0.2162
12616W        W29090  14.830  15.074  12.126 -0.2200  0.1087 -0.0393
12617W        W29091  13.426  12.136   2.116  0.0537 -0.3426 -0.0781
12618W        W29092  18.045   7.329  13.014  0.0027 -0.0795 -0.0912
12619W        W29093  13.108   2.281   5.469 -0.1724  0.1315  0.1354
12620W        W29094  10.216  10.256   2.112  0.1843 -0.3025  0.3690
12621W        W29095  17.042  16.341  11.529 -0.5120  0.3720  0.1094
12622W        W29096  11.832   6.101   0.342 -0.2340 -0.1427  0.2740
12623W        W29097  11.648  10.871  14.157  0.0411 -0.0795  0.1628
12624W        W29098   3.793   1.194   1.774  0.0674 -0.0432  0.1702
12625W        W29099   7.400   7.985   6.081 -0.0847 -0.3889  0.0436
12626W        W29100   2.372   4.631   3.673 -0.1792 -0.1037  0.0227
12627W        W29101   1.659  14.160   5.517 -0.0530 -0.1591  0.1280
12628W        W29102   4.487  14.829  15.629 -0.0268  0.1757 -0.1037
12629W        W29103   5.045  17.437  13.629 -0.2905  0.4195 -0.0839
12630W        W29104  10.456   8.704   2.996  0.1956 -0.2180 -0.1505
12631W        W29105  12.205   7.459   0.448 -0.1917  0.3026 -0.0893
12632W        W29106  17.914   9.075  15.708  0.0003  0.1654  0.0660
12633W        W29107   5.213  15.612   2.727 -0.4187 -0.1081  0.1105
12634W        W29108   1.512   9.182   3.417  0.1572  0.0667 -0.1650
12635W        W29109  11.745  11.047   5.682 -0.1919 -0.3147 -0.1704
12636W        W29110   7.601  16.629   1.634  0.0423  0.1951  0.1210
12637W        W29111  12.999  17.946  15.790 -0.0456  0.0631  0.0563
12638W        W29112   4.874  17.928   3.056 -0.1854  0.0322  0.0151
12639W        W29113  11.750  11.848  13.608  0.0950  0.1874 -0.1003
12640W        W29114  13.924  12.812   0.856 -0.1391 -0.0314  0.1087
12641W        W29115   6.497  13.348   5.725  0.0301 -0.0178 -0.0820
12642W        W29116   6.555  12.694  12.919 -0.4752 -0.0360 -0.1483
12643W        W29117  10.591   1.830   4.892 -0.2147 -0.1169  0.0166
12644W        W29118  17.480   5.726   2.257 -0.0356  0.1820  0.1828
12645W        W29119   6.200  17.844  11.877  0.0701 -0.2584  0.0025
12646W        W29120  13.187  14.316  15.795  0.1474  0.0304 -0.2653
12647W        W29121   3.805  12.887  12.482 -0.0124  0.1179  0.1850
12648W        W29122   0.065   1.811   3.463 -0.2773 -0.2485  0.0231
12649W        W29123  15.908   8.826  13.201 -0.2727 -0.1978 -0.0780
12650W        W29124   5.689  11.252  13.758 -0.0306  0.0141  0.0395
12651W        W29125  11.216  16.587  15.080  0.1044 -0.2643  0.1487
12652W        W29126  14.399   5.573   2.983 -0.1798 -0.1243  0.2307
12653W        W29127   8.864  10.363  12.962  0.1237 -0.2742 -0.3109
12654W        W29128  15.682   5.880   4.861  0.0063 -0.0555 -0.2008
12655W        W29129   4.580  15.095  16.041 -0.2208  0.0809 -0.0340
12656W        W29130   7.564   0.895   5.701 -0.2613 -0.2381 -0.1382
12657W        W29131  13.404   2.555  11.126  0.4260 -0.1103 -0.1195
12658W        W29132   6.230  15.433  16.057  0.2969 -0.3904  0.3681
12659W        W29133   0.269  12.498   1.252  0.0199 -0.1603 -0.2054
12660W        W29134   1.939   0.099  11.250 -0.1969  0.4269  0.0418
12661W        W29135  12.206   8.907  14.516 -0.0724 -0.0943  0.1967
12662W        W29136   9.580   0.186   1.018 -0.2371 -0.1091  0.0250
12663W        W29137   9.294  10.897  13.210  0.1078 -0.1129 -0.3187
12664W        W29138  10.366  15.238   4.986  0.1766  0.3195 -0.3930
12665W        W29139   5.681  13.503  12.121 -0.3870  0.3119  0.2277
12666W        W29140   8.974   3.402   2.190  0.0305 -0.0416  0.2992
12667W        W29141   7.656   3.079  11.904 -0.1370  0.1013 -0.0088
12668W        W29142  17.244   9.455  13.757  0.3320  0.0703  0.0747
12669W        W29143   6.297   8.295   2.854  0.0893 -0.1634 -0.1483
12670W        W29144  15.516   5.795   2.314  0.3200 -0.4365  0.0355
12671W        W29145  15.035   2.735  14.342  0.1101 -0.0128  0.0229
12672W        W29146   1.846  15.453   0.373  0.3676  0.2141  0.1523
12673W        W29147   6.674   1.423  13.270 -0.1036 -0.0763  0.2674
12674W        W29148   0.781  11.340  13.337 -0.1254  0.2653  0.1625
12675W        W29149   4.199   8.621   0.039 -0.2952  0.1759 -0.2806
12676W        W29150   9.559  11.397   1.262  0.1028  0.3102  0.0494
12677W        W29151  11.330  15.788  14.085 -0.0496  0.0088  0.0129
12678W        W29152   4.410   6.759  13.478  0.0468  0.0415 -0.0635
12679W        W29153   1.067  11.652   1.051  0.2474 -0.1970  0.1556
12680W        W29154   6.448   5.180  12.367 -0.0708  0.2418  0.2637
12681W        W29155   0.290  10.945   5.244  0.1443  0.7030  0.1815
12682W        W29156   4.097  10.466   5.104  0.0706  0.1412  0.1904
12683W        W29157  17.596  15.169  15.132  0.1970  0.2382  0.3364
12684W        W29158  16.762   7.072  15.533 -0.1196 -0.0568  0.0094
12685W        W29159  16.949   2.658   3.683 -0.2118  0.0787  0.0948
12686W        W29160   2.500  13.863   4.279 -0.0275 -0.2505  0.0841
12687W        W29161  15.221  14.408   3.742 -0.2836  0.2602  0.1710
12688W        W29162   8.087   0.100   3.578  0.0437 -0.4158 -0.1226
12689W        W29163   8.328   0.309  14.982  0.0203 -0.0919 -0.1440
12690W        W29164   1.477   3.734  15.497 -0.2128 -0.0373 -0.0505
12691W        W29165  10.361  15.138  13.118 -0.1151 -0.1240 -0.2253
12692W        W29166   0.527  15.645   2.670 -0.1244 -0.2307 -0.1226
12693W        W29167  17.341   1.443  15.310  0.1524 -0.1244 -0.3355
12694W        W29168   8.830  16.314   2.120  0.1263  0.0696  0.0176
12695W        W29169   5.504   2.957   4.964  0.0790  0.1822 -0.1804
12696W        W29170   7.962  11.514  14.289  0.1259  0.1340 -0.0342
12697W        W29171   3.682   3.270  13.299  0.2767  0.1493 -0.0233
12698W        W29172   9.556   8.267  13.073  0.0444  0.5212  0.1695
12699W        W29173   8.514   0.589  14.065 -0.1922 -0.0337  0.0353
12700W        W29174  12.018  11.238   1.187  0.0246 -0.1766 -0.1136
12701W        W29175  11.482   9.993  15.059 -0.2024 -0.1879 -0.1776
12702W        W29176   7.112  10.214   4.940 -0.2265  0.0423  0.0285
12703W        W29177  16.867   8.177   3.738  0.0484 -0.0135  0.0108
12704W        W29178  14.991  16.308   0.110 -0.1911 -0.2199 -0.2320
12705W        W29179  11.079   7.772   1.902 -0.1004  0.1358 -0.0710
12706W        W29180   2.721  18.044  15.253 -0.2315 -0.2095 -0.1029
12707W        W29181  12.413  13.314   3.339 -0.2230 -0.0585 -0.2498
12708W        W29182   4.446   6.985  13.069 -0.1570  0.1061 -0.0248
12709W        W29183  17.424  10.886  15.511  0.1644 -0.0294 -0.1024
12710W        W29184  16.586  10.153   4.996 -0.2095  0.3143 -0.4577
12711W        W29185  10.301   5.379  11.303 -0.1508  0.1808  0.3146
12712W        W29186  12.782   2.789   0.065 -0.0879  0.2349  0.4162
12713W        W29187   2.251   9.644   4.934 -0.1802 -0.1391  0.2713
12714W        W29188  11.004   0.518   4.058  0.0388  0.0840  0.1918
12715W        W29189  17.141   1.118   3.677  0.5141  0.1419  0.0913
12716W        W29190  17.862   8.523   5.383  0.2382 -0.1654  0.1393
12717W        W29191  12.074   4.439   3.411 -0.1664 -0.0789 -0.1862
12718W        W29192  12.576   4.706   4.042  0.1921  0.2080  0.0862
12719W        W29193   3.890  17.991  14.187 -0.1282 -0.0816  0.0567
12720W        W29194  15.962  15.737   0.906 -0.0479 -0.0302  0.0103
12721W        W29195   2.739  12.613   3.093  0.0495  0.0134  0.1038
12722W        W29196  16.256  10.888   0.268 -0.1361 -0.0412  0.0804
12723W        W29197  11.803  18.040  15.922  0.3182  0.0827 -0.2449
12724W        W29198   8.976   7.046  12.731  0.2945 -0.2467  0.1504
12725W        W29199  17.309   2.071   5.089  0.1152  0.0009  0.1296
12726W        W29200   2.813  11.523   4.821 -0.0605 -0.0086  0.2594
12727W        W29201  13.947  11.711   4.434 -0.0159  0.0768 -0.2969
12728W        W29202   2.781  11.035  11.928  0.0669 -0.2236  0.1347
12729W        W29203  16.187   0.750   5.276 -0.0901 -0.3998  0.0294
12730W        W29204   7.941  16.154  11.281 -0.0087 -0.0255 -0.3675
12731W        W29205   4.040  14.341   0.738  0.0596 -0.0887 -0.3750
12732W        W29206   2.728   3.212   3.313 -0.3201  0.0759 -0.3158
12733W        W29207   6.795   8.638   3.954 -0.1751 -0.0092  0.1566
12734W        W29208   2.888   6.461  11.454  0.0937 -0.1404 -0.0218
12735W        W29209   0.423  17.195   1.211 -0.1288 -0.1446 -0.1424
12736W        W29210  10.286   7.623   4.142  0.0494  0.1842  0.1474
12737W        W29211   9.915   7.027   1.222 -0.0583 -0.2354  0.3788
12738W        W29212  13.643   6.062   3.499  0.1476  0.2354 -0.2860
12739W        W29213   7.727  13.246  15.908  0.1786  0.0686  0.1631
12740W        W29214  15.269   6.094  12.996  0.3124 -0.1635  0.2853
12741W        W29215   7.194  13.248  15.721 -0.2358 -0.0783 -0.0406
12742W        W29216  16.277   5.899  11.582  0.1036 -0.0003 -0.0746
12743W        W29217  13.334  13.891  14.100  0.0498 -0.1264 -0.0617
12744W        W29218  14.888   3.677   5.187  0.1060 -0.0132  0.2071
12745W        W29219   9.259  17.120   2.212 -0.0859  0.3810  0.1133
12746W        W29220  11.892   2.645   0.018  0.0055  0.2011  0.2397
12747W        W29221   8.170  15.051   0.985  0.1227 -0.1999 -0.1868
12748W        W29222   6.186  12.591   2.272 -0.2085  0.1626  0.0061
12749W        W29223  17.898  13.792  13.657  0.0805  0.2359 -0.1145
12750W        W29224   9.471  12.651  10.406  0.2149  0.1495 -0.0583
12751W        W29225   1.874   4.244   4.521 -0.0469 -0.0235 -0.0633
12752W        W29226   1.048  17.694  14.034  0.0608  0.2565 -0.0536
12753W        W29227   1.617   2.576  12.197  0.0927 -0.1760 -0.1531
12754W        W29228   5.549  16.942   6.221  0.2104 -0.1177 -0.2511
12755W        W29229   2.843   1.727   3.802 -0.1378 -0.0106 -0.0121
12756W        W29230   5.546   0.769   4.433 -0.2885 -0.1426  0.0246
12757W        W29231   4.449  15.128   4.611 -0.0641 -0.0190 -0.0579
12758W        W29232   2.207  17.386  12.910 -0.1831 -0.0145 -0.0229
12759W        W29233   4.597   2.416   1.184 -0.1052 -0.1993  0.1807
12760W        W29234  15.039   8.997   3.104  0.1540  0.0174  0.3820
12761W        W29235  10.090   6.331   2.801  0.0801 -0.1309  0.0300
12762W        W29236  11.213  15.959   1.754  0.0281 -0.0790  0.2482
12763W        W29237   7.252   3.258  11.687 -0.0766  0.1590  0.0733
12764W        W29238  15.393   2.063  15.308  0.0041  0.0846 -0.0286
12765W        W29239   7.410  15.579   2.648 -0.0575  0.2235  0.0238
12766W        W29240  13.220   7.982   3.446 -0.1453 -0.0902 -0.0374
12767W        W29241   9.528   8.370   5.278  0.2005 -0.2297 -0.1966
12768W        W29242  16.671   5.817   4.952  0.2203 -0.3921  0.0611
12769W        W29243   7.133   1.907   3.134 -0.1009 -0.0222 -0.0835
12770W        W29244  11.084   1.726  16.155  0.0260 -0.2775 -0.3478
12771W        W29245  13.307  12.824   1.505  0.0666  0.1960  0.1607
12772W        W29246  16.363   4.483   1.228  0.0879 -0.3056  0.4690
12773W        W29247   8.143   5.536   0.822  0.0528 -0.1386 -0.1691
12774W        W29248  13.401   8.508  14.651 -0.0905 -0.0474 -0.2291
12775W        W29249  17.354   4.349  11.004  0.2521  0.0972 -0.0462
12776W        W29250   2.630   4.834   1.779  0.0083 -0.0445  0.3577
12777W        W29251   4.771   3.344  12.424  0.1903  0.0076 -0.1614
12778W        W29252  15.770  12.665  11.797  0.0764  0.0926  0.1239
12779W        W29253   1.711   9.706  14.845  0.2919 -0.2128  0.0988
12780W        W29254   0.099   4.767  14.138  0.0527  0.0673 -0.2206
12781W        W29255   7.804   7.418   0.390 -0.3598  0.0805 -0.2453
12782W        W29256   6.776  13.388  15.920 -0.0017 -0.1029  0.4104
12783W        W29257   7.958  13.109  13.428  0.0368  0.0550 -0.1071
12784W        W29258  11.363  15.492  15.810 -0.0532  0.4096  0.4040
12785W        W29259   0.526  11.368   4.242 -0.2489  0.0159 -0.3330
12786W        W29260  16.099   5.995   0.460 -0.1439 -0.1384 -0.0553
12787W        W29261   7.987   6.430  15.135  0.1463  0.1991 -0.1767
12788W        W29262   2.630   9.730  14.854  0.0293  0.1439  0.2902
12789W        W29263   1.172  14.912   2.539 -0.2633 -0.0130 -0.0906
12790W        W29264   6.435   9.148  14.936  0.1600  0.2280 -0.1613
12791W        W29265  12.005  13.652  16.016  0.1728 -0.2511 -0.1014
12792W        W29266  13.907   8.886  13.979 -0.1288  0.0565 -0.0244
12793W        W29267  11.160  10.815   2.074  0.1530  0.0676 -0.3263
12794W        W29268   7.048  15.775  16.037  0.1026 -0.1394 -0.0779
12795W        W29269   3.876   9.157   0.658 -0.0813  0.0231  0.0012
12796W        W29270  14.232  13.732  16.210 -0.0718 -0.0888 -0.3602
12797W        W29271  14.529   2.928   0.474  0.0355  0.0604  0.0094
12798W        W29272  14.885   9.803   5.802  0.1263 -0.1441  0.3221
12799W        W29273  15.368   7.751  15.710 -0.0494 -0.1033  0.1389
12800W        W29274  10.034   6.472  12.472  0.3278  0.3154  0.0135
12801W        W29275  12.243   6.777   4.291  0.1130 -0.0243  0.1289
12802W        W29276   8.426  14.907   0.006 -0.0507  0.1234  0.1826
12803W        W29277   0.043  16.658   4.141 -0.0676  0.0657  0.0901
12804W        W29278   5.255   8.937  13.927 -0.1027 -0.1903  0.0710
12805W        W29279   4.752   9.726   2.226  0.0219  0.0851 -0.0247
12806W        W29280   7.485   9.753  13.771  0.1544  0.1207 -0.1164
12807W        W29281  11.762  11.644   1.205 -0.0962 -0.1119  0.1597
12808W        W29282  12.976  14.237  13.720 -0.0307 -0.3368  0.1750
12809W        W29283   5.366  12.738  14.901  0.0145 -0.0104 -0.4442
12810W        W29284   0.097  14.814  11.951 -0.3213  0.0663  0.1901
12811W        W29285   6.781  17.827   2.739  0.1303 -0.0112  0.0759
12812W        W29286  10.730   1.493  13.350 -0.0779 -0.2712  0.4035
12813W        W29287  10.435   9.042  13.338 -0.0133 -0.1659  0.0544
12814W        W29288  13.815   3.903   1.242  0.3025  0.1909 -0.3192
12815W        W29289   8.101  11.365   4.088 -0.0780 -0.0884 -0.0262
12816W        W29290   9.400   0.457   5.313  0.1814 -0.1082  0.0131
12817W        W29291   6.253   8.034   0.818 -0.0853 -0.1710  0.0123
12818W        W29292   5.761  17.014   1.092  0.1342  0.0924 -0.0698
12819W        W29293  18.106  15.975  13.233 -0.0041 -0.0058  0.0462
12820W        W29294   7.813  14.049   4.809 -0.0328 -0.1006  0.0821
12821W        W29295   5.759   2.015   3.206  0.1265  0.0546  0.0127
12822W        W29296  10.262   6.231   3.894  0.0090 -0.2763 -0.1665
12823W        W29297  10.585  13.145  14.844  0.0221  0.0465 -0.2026
12824W        W29298  12.390  11.352   1.552 -0.1782 -0.2422  0.3332
12825W        W29299   1.115  15.025  14.618 -0.2786 -0.1809 -0.1155
12826W        W29300  15.682   4.248   1.212 -0.1782 -0.1295 -0.1244
12827W        W29301   8.326   1.716   4.097 -0.0469 -0.0240 -0.0236
12828W        W29302   4.181  15.622   2.768  0.2500 -0.1591 -0.0389
12829W        W29303  11.484  14.985   0.788 -0.3206  0.1856  0.0703
12830W        W29304   9.492   1.485  14.699  0.1585 -0.0502 -0.1421
12831W        W29305   0.339   0.772  14.929 -0.0890 -0.1221  0.0530
12832W        W29306   5.004  12.802   2.975 -0.4317  0.1162  0.1204
12833W        W29307  17.955  17.434  11.527  0.2129 -0.0649  0.2932
12834W        W29308  10.807  12.408   4.642 -0.3880 -0.0256 -0.0826
12835W        W29309  11.000  10.421  14.435 -0.3349 -0.1580 -0.0062
12836W        W29310   6.799   3.478  11.443 -0.2679 -0.0545 -0.3533
12837W        W29311   3.253  17.134   1.549 -0.0716  0.1396 -0.0628
12838W        W29312   3.009  16.348  15.227  0.0846  0.2667  0.0683
12839W        W29313   9.151   9.504   2.571 -0.1427 -0.2867 -0.1910
12840W        W29314  11.147  15.861   2.646 -0.2710  0.0181  0.2657
12841W        W29315  10.497   7.403  13.937 -0.1149 -0.1103  0.2154
12842W        W29316   9.651  13.355   0.291  0.0359  0.0063  0.1330
12843W        W29317  16.218  11.985   4.414 -0.2022  0.3636  0.0189
12844W        W29318  16.530   7.717  11.396 -0.0372 -0.0083 -0.0450
12845W        W29319  10.748  13.101  11.338  0.0131 -0.0723 -0.4095
12846W        W29320  17.643   5.724  11.387  0.0955 -0.2130  0.2094
12847W        W29321   9.731  10.877  15.536  0.1789 -0.2702  0.0711
12848W        W29322   9.489   1.807  12.867 -0.1292 -0.1430 -0.1848
12849W        W29323   4.113   3.751   3.301  0.4036 -0.1088  0.2624
12850W        W29324   0.013   3.084  15.584 -0.2209 -0.2694 -0.2517
12851W        W29325   1.683  17.794  11.371  0.0934  0.0351 -0.1314
12852W        W29326   8.875   6.869  15.697  0.2297  0.0076 -0.2438
12853W        W29327   6.171  15.131   4.390 -0.0593 -0.1115 -0.0645
12854W        W29328  16.054   7.613  13.957 -0.0755  0.3403  0.1920
12855W        W29329   7.313   5.335   1.772  0.0936  0.1920  0.3076
12856W        W29330   1.849   6.153  14.442  0.1126  0.2164  0.0943
12857W        W29331   1.096  14.232  12.603  0.0232 -0.0727 -0.2296
12858W        W29332  15.007   2.024  13.553 -0.0833 -0.0464  0.1185
12859W        W29333  16.121   2.397  11.804 -0.1619 -0.1265 -0.1298
12860W        W29334  16.901   6.623   4.874 -0.1693  0.0168  0.0434
12861W        W29335  14.263   7.930   5.118 -0.3943  0.0760 -0.1751
12862W        W29336   2.308  15.314   0.499 -0.0154 -0.2182 -0.0918
12863W        W29337   8.329   0.245   2.288 -0.1690 -0.2159  0.0200
12864W        W29338  16.972   1.235  12.996 -0.2589  0.1443 -0.0663
12865W        W29339  16.246  17.328   1.849 -0.1682 -0.1779  0.0396
12866W        W29340   7.691   9.007  13.117 -0.1439  0.2340  0.3038
12867W        W29341   3.044  17.707   1.336  0.3422 -0.0974  0.4238
12868W        W29342  17.350  10.466  13.210  0.0178 -0.0265  0.3752
12869W        W29343   4.801   1.467   5.316 -0.1465  0.0976 -0.2395
12870W        W29344  14.072   1.705   4.380 -0.2631 -0.0791  0.0336
12871W        W29345  10.167   0.580   4.636 -0.1758 -0.3507  0.2423
12872W        W29346   3.868  15.135  11.269 -0.0836  0.1246 -0.2253
12873W        W29347  15.773  11.260   2.607  0.1603 -0.1331  0.0247
12874W        W29348   5.025   2.682   1.327  0.0497  0.3472  0.0028
12875W        W29349  14.015   4.082   4.247  0.1381  0.1869  0.3048
12876W        W29350   0.204  15.585  14.206  0.1709  0.1860  0.1080
12877W        W29351   1.525   4.007   4.779  0.2342  0.1133  0.1786
12878W        W29352  17.288   1.796   2.436  0.2866  0.2457 -0.2381
12879W        W29353   0.576  17.787  13.332 -0.1254 -0.0128 -0.0712
12880W        W29354  12.368   4.900  15.076  0.0430  0.1703  0.0460
12881W        W29355  15.930   8.121   4.718 -0.3055  0.1021 -0.1586
12882W        W29356  15.864  13.084   2.669 -0.1814  0.2509  0.1002
12883W        W29357  18.160   5.281   2.209  0.0953  0.0430  0.1699
12884W        W29358  17.411   1.274   3.285 -0.1444 -0.0884 -0.0204
12885W        W29359  12.179   4.528  11.520  0.2002  0.1964  0.0852
12886W        W29360   5.621  13.921   4.128  0.0545 -0.1035  0.0053
12887W        W29361   9.681   5.044  15.031 -0.3871 -0.0874  0.0183
12888W        W29362   5.035   4.052   1.903  0.1257  0.0765 -0.1844
12889W        W29363  13.721  10.977   3.959  0.0612 -0.0394 -0.0098
12890W        W29364   7.442   6.359   3.269  0.0536 -0.0888  0.0904
12891W        W29365  14.582  15.972  14.731  0.1344  0.1477  0.1582
12892W        W29366  12.439  13.016  14.734  0.1519  0.1361 -0.1515
12893W        W29367   4.198  12.912  13.534 -0.0238 -0.2400 -0.2335
12894W        W29368   6.725   2.932   2.930 -0.0802  0.0436  0.0122
12895W        W29369  14.783  10.964  15.602 -0.2306 -0.2074 -0.1826
12896W        W29370   5.525   5.041   4.594 -0.1810  0.0014 -0.1204
12897W        W29371   8.994   9.099  12.791  0.1363 -0.0031  0.3323
12898W        W29372   9.710  13.463   0.760 -0.1524  0.0187 -0.1726
12899W        W29373  13.769   4.969   4.097 -0.0345 -0.0137  0.2813
12900W        W29374  11.759   5.473   4.188 -0.1891  0.0135  0.1877
12901W        W29375   5.442   6.653   0.757 -0.2249  0.3164 -0.3954
12902W        W29376  16.891  10.740   0.843 -0.2166 -0.2123  0.1403
12903W        W29377  13.177  16.693   5.624  0.0263 -0.1107 -0.0161
12904W        W29378   5.403   4.725  13.303  0.0521 -0.2034 -0.1058
12905W        W29379  11.592   7.548  14.708 -0.1707  0.1716  0.0717
12906W        W29380   8.723  10.022  13.329 -0.2106  0.1774 -0.1362
12907W        W29381   9.786  11.869  15.652  0.1662 -0.0111  0.0631
12908W        W29382  13.201  12.042  12.818 -0.1561 -0.0108  0.2613
12909W        W29383   9.994  12.120   0.497  0.2959  0.1512  0.0961
12910W        W29384   6.303  15.067   5.963 -0.0581 -0.1624 -0.0895
12911W        W29385   5.608   6.906  13.430  0.2647 -0.3248  0.0364
12912W        W29386  15.076   7.811   3.557 -0.1777  0.1503  0.4395
12913W        W29387  14.262  16.402  14.536  0.0590  0.3089  0.0939
12914W        W29388   7.520   1.013  16.269 -0.1281  0.0807  0.0481
12915W        W29389  16.114   1.698   5.625  0.1043 -0.0177  0.0364
12916W        W29390   2.981   7.652  15.662  0.0106  0.1639 -0.1130
12917W        W29391  14.878   4.844  13.158  0.1055  0.5350 -0.2632
12918W        W29392   1.954  16.713  15.525 -0.1620  0.1906 -0.0919
12919W        W29393   2.544  16.461  15.037  0.1994  0.0508 -0.3015
12920W        W29394   3.366  17.841  10.501 -0.0195 -0.0284 -0.0272
12921W        W29395   1.023  12.448  13.132 -0.0677 -0.1636 -0.0009
12922W        W29396   3.459   8.254   3.914 -0.0746 -0.0342 -0.1377
12923W        W29397  12.480  16.217   4.389  0.0784 -0.2596  0.0388
12924W        W29398   4.883  16.963  16.366  0.0334 -0.0454  0.1818
12925W        W29399   2.542  17.031  13.036 -0.0234 -0.2026 -0.3161
12926W        W29400   5.614  16.703  13.691  0.2012 -0.1190 -0.2007
12927W        W29401   5.321  15.938   5.437 -0.1634  0.0359  0.0638
12928W        W29402  15.067   8.373   2.402  0.0386  0.0907  0.2181
12929W        W29403   8.747  10.423   2.865  0.1799 -0.1504 -0.1745
12930W        W29404   6.759   0.637  12.678  0.0759 -0.0152  0.0881
12931W        W29405   1.600  16.859   2.683 -0.1641 -0.2263 -0.2623
12932W        W29406   3.986   5.272  14.358 -0.2450  0.2973 -0.1348
12933W        W29407  12.864  10.012  14.098  0.1661 -0.0051  0.1591
12934W        W29408  12.882   6.052  11.419  0.2184  0.1295  0.1275
12935W        W29409   1.376   2.821   1.819 -0.2368  0.2857 -0.0814
12936W        W29410  14.000   7.070  13.030 -0.1814  0.0837 -0.3645
12937W        W29411   2.921   4.156   0.067  0.0399 -0.1311  0.0079
12938W        W29412   3.275  16.235  12.377  0.2853  0.0198  0.0089
12939W        W29413   5.101   0.615   3.588  0.1462 -0.0790 -0.3347
12940W        W29414  18.010   5.452   3.958  0.0466  0.1547 -0.0273
12941W        W29415   2.833  11.300   2.537 -0.1150  0.0836  0.2454
12942W        W29416   5.764  11.969  12.539 -0.3376  0.1572  0.0157
12943W        W29417   8.285  16.106   6.189  0.0028 -0.0486 -0.0542
12944W        W29418   0.240   3.203  15.146  0.0674 -0.1516  0.0141
12945W        W29419   1.639   1.090  14.339  0.2389  0.3462 -0.2133
12946W        W29420  16.395   5.388   1.676 -0.0565  0.0774  0.0524
12947W        W29421   6.454   2.405  13.711  0.1536  0.0079 -0.1069
12948W        W29422  18.110  12.704   0.964 -0.0900 -0.0578  0.2397
12949W        W29423   0.306  12.108   5.162  0.1708 -0.2006  0.1774
12950W        W29424   9.662   4.689  10.509 -0.1776 -0.0210  0.2233
12951W        W29425  13.255   9.972  13.763 -0.0085 -0.1729 -0.1304
12952W        W29426   0.837   7.288  12.044  0.4168 -0.0655  0.1414
12953W        W29427   3.204   0.296  14.449 -0.1865 -0.2039  0.0462
12954W        W29428  14.841   3.587   2.533  0.0453  0.0252 -0.0473
12955W        W29429   7.400  15.417  16.237  0.1006 -0.3052  0.2981
12956W        W29430   9.740  16.907   2.337 -0.0311 -0.2474 -0.1709
12957W        W29431   8.945   1.398   1.919 -0.0114  0.1040  0.1491
12958W        W29432  10.552  14.040   2.941 -0.0296  0.1623  0.1242
12959W        W29433  10.548  13.031  11.811  0.0495 -0.1839  0.1735
12960W        W29434  11.210   7.684   2.471  0.0471  0.2898 -0.0246
12961W        W29435  12.795   8.736  15.502  0.1946  0.1279 -0.0654
12962W        W29436  15.837   2.116  16.144 -0.0206  0.0698  0.0503
12963W        W29437  11.208  17.770   4.260 -0.3692 -0.1449 -0.0583
12964W        W29438   6.193  10.674  12.681 -0.1622 -0.0340  0.0861
12965W        W29439  12.545   2.947   2.325 -0.1444  0.0804 -0.0420
12966W        W29440   3.287   1.485   1.329 -0.1304 -0.1511 -0.2786
12967W        W29441  12.658   6.026  15.598  0.0398 -0.1244  0.0686
12968W        W29442  11.854   5.400  12.669 -0.0711  0.1192 -0.0413
12969W        W29443   3.367  15.778   0.331  0.0944  0.2167 -0.1816
12970W        W29444   0.236   6.708   1.300  0.1856  0.1438  0.0049
12971W        W29445   8.364   3.920  13.604  0.0202  0.1296 -0.1539
12972W        W29446   3.208   9.935   3.053 -0.0410 -0.1108 -0.1831
12973W        W29447   4.820   0.590  13.418  0.0655  0.3779 -0.0996
12974W        W29448   7.447  16.348   3.116  0.1688 -0.1184 -0.2603
12975W        W29449  14.374   6.783   5.478  0.0998  0.0927  0.1000
12976W        W29450  14.332   9.467  13.916  0.0562 -0.0775  0.0310
12977W        W29451  16.259   9.561  15.893 -0.1280 -0.3450 -0.4667
12978W        W29452   7.410   0.999   0.384 -0.1440  0.0108 -0.1458
12979W        W29453   1.497  12.738   5.094  0.1566 -0.1321 -0.0112
12980W        W29454   6.906   3.034  15.872  0.2732 -0.2485 -0.2538
12981W        W29455  13.788  16.018   4.837  0.0981 -0.0361  0.0790
12982W        W29456   7.326   8.810   3.015  0.1671  0.1251  0.1759
12983W        W29457   7.568  11.968  11.914  0.2230 -0.2102  0.1235
12984W        W29458   9.689   5.881   2.855  0.0359 -0.3792 -0.1699
12985W        W29459   2.564   7.388  13.476  0.0443 -0.1493  0.0591
12986W        W29460   9.736   0.536  12.109 -0.1223  0.1744  0.2130
12987W        W29461  15.722   2.418  14.588 -0.0591 -0.1342  0.1738
12988W        W29462   3.141   9.849  12.256 -0.1371 -0.0374  0.0128
12989W        W29463   4.278   3.257  14.287  0.1314  0.0003  0.0634
12990W        W29464   6.546  14.829   4.393  0.0272  0.0149 -0.0390
12991W        W29465  10.497   9.470  13.853 -0.1407 -0.0076  0.1284
12992W        W29466   6.200  10.259   0.728  0.0476  0.2807  0.3346
12993W        W29467   1.903   3.065   2.913 -0.1625 -0.0749  0.0165
12994W        W29468  12.457   1.788   4.623  0.2129 -0.0940  0.2418
12995W        W29469  13.220   3.563  13.150  0.1060 -0.2380 -0.2027
12996W        W29470  15.088   8.544   1.076  0.0911 -0.0452 -0.1756
12997W        W29471   8.417   3.585   0.097  0.0330  0.1431  0.0862
12998W        W29472   8.199   5.205   1.697  0.0960 -0.1430  0.1600
12999W        W29473  17.798   0.577  12.125  0.0100 -0.1463 -0.0422
13000W        W29474   7.022   4.388  14.692  0.1484  0.3614  0.0440
13001W        W29475  17.347   4.974  13.705 -0.2314 -0.1502  0.1164
13002W        W29476   5.569   8.042  16.061  0.0733  0.0977 -0.1034
13003W        W29477  10.491  11.999  12.611  0.0213  0.0652 -0.3556
13004W        W29478   8.781   1.568  12.225  0.2343  0.0622  0.1353
13005W        W29479  15.525  18.144   5.496 -0.0362 -0.0327 -0.0340
13006W        W29480  17.328   3.834  16.268 -0.1275 -0.1985  0.1988
13007W        W29481  11.809   0.630   4.940 -0.1694 -0.0214  0.0597
13008W        W29482   7.882   7.239  13.652  0.1327  0.0402 -0.0453
13009W        W29483  17.456  15.731  14.378  0.1372 -0.2220 -0.1017
13010W        W29484  11.436  12.500  11.592 -0.2649  0.0035  0.1677
13011W        W29485   8.320  15.427   0.080 -0.0378 -0.0956  0.3393
13012W        W29486  11.481   4.625  14.418 -0.0844 -0.1605  0.0242
13013W        W29487  16.530   6.196  13.707 -0.2982  0.0586 -0.3342
13014W        W29488   6.263   9.911   2.559  0.0736 -0.0233  0.2687
13015W        W29489   8.283   8.537   2.801  0.0513  0.2480 -0.3090
13016W        W29490   5.860  10.751   4.632  0.2297 -0.0825  0.2077
13017W        W29491   3.838   3.513   2.176 -0.0057  0.1473 -0.2282
13018W        W29492  12.583   4.368  13.595 -0.1018 -0.2862  0.0172
13019W        W29493  17.475   8.209  12.197  0.2076  0.0341  0.0119
13020W        W29494  13.765  11.273   2.006  0.2287 -0.0422  0.1762
13021W        W29495   3.806   9.012  14.512 -0.0380  0.1401 -0.0843
13022W        W29496  11.474   5.085  11.843 -0.0578  0.1633 -0.4070
13023W        W29497  14.181   8.391   4.967 -0.1621  0.0208  0.0311
13024W        W29498  12.009  15.091   3.005 -0.1960 -0.2972  0.1379
13025W        W29499   2.216  17.554   2.315 -0.2416 -0.1676  0.4409
13026W        W29500   3.281  17.228  15.195 -0.0394 -0.0519  0.1670
13027W        W29501   0.625   6.952  12.420  0.0416 -0.0593 -0.1546
13028W        W29502   3.319   6.382   1.408 -0.0079  0.1651 -0.0513
13029W        W29503  15.790  18.050   4.724 -0.1120 -0.0356  0.1654
13030W        W29504  11.725   7.948  12.168 -0.0440  0.1614  0.2304
13031W        W29505   5.402  13.737  13.035 -0.0447  0.0149  0.0661
13032W        W29506  10.287   7.145   4.100 -0.1485  0.1985  0.3594
13033W        W29507   8.113   3.367   3.019  0.0498  0.0952 -0.3822
13034W        W29508  15.644  15.954  13.752 -0.1081 -0.0625  0.1465
13035W        W29509  10.941  15.190  11.415  0.0885 -0.1612  0.1200
13036W        W29510   7.358  15.843   5.109 -0.0941  0.1645  0.0080
13037W        W29511   6.297  15.027  13.052  0.0946 -0.3474  0.1018
13038W        W29512  14.506   9.726  11.739  0.3209 -0.0521  0.0308
13039W        W29513   3.526   2.587  13.345  0.2632 -0.0599 -0.1084
13040W        W29514   6.422  13.934  10.664  0.1619 -0.1583 -0.0249
13041W        W29515  10.531   0.281  13.561 -0.1355 -0.0745 -0.4243
13042W        W29516   3.397   6.365  11.649  0.1721 -0.0376 -0.0989
13043W        W29517  12.223   7.723   0.025 -0.1810 -0.0250 -0.2149
13044W        W29518  17.240   6.577  11.656 -0.2850  0.1412 -0.3284
13045W        W29519  16.041  17.245  13.193  0.4220  0.1155  0.1444
13046W        W29520   8.250   6.250   4.110  0.2368 -0.0233  0.1220
13047W        W29521   0.756   5.513  13.122 -0.1748  0.1499  0.3940
13048W        W29522  17.908   6.844   1.040 -0.1309 -0.0437  0.0659
13049W        W29523   9.221   0.669  14.558  0.2509 -0.0241 -0.0384
13050W        W29524  10.328   7.728  15.637  0.2127 -0.3478  0.0505
13051W        W29525   0.455   5.339   2.504  0.2005  0.0684  0.0628
13052W        W29526  18.142   6.926  13.269 -0.0774  0.0886  0.1585
13053W        W29527   2.693   9.660  12.560  0.1673  0.0881  0.1673
13054W        W29528  13.356   1.776  14.053 -0.1231 -0.1515 -0.1039
13055W        W29529  13.927  14.689  16.318  0.1047 -0.3242  0.0852
13056W        W29530   3.422   2.125  16.283  0.2773 -0.1031 -0.2127
13057W        W29531   8.878   4.773  13.748  0.1718  0.1244 -0.1516
13058W        W29532   7.835  14.418   4.444 -0.3044  0.0098  0.0914
13059W        W29533   6.972   7.277  16.129  0.2229 -0.3426  0.0330
13060W        W29534  17.445  10.592   3.491 -0.1757  0.3845 -0.2033
13061W        W29535  17.459  16.775  12.774  0.2209 -0.1704  0.2655
13062W        W29536   4.624  13.435   3.360 -0.3351  0.0735  0.1881
13063W        W29537  11.535  11.980   0.013  0.0785  0.1253  0.0019
13064W        W29538   0.807  13.109   0.851  0.0754  0.2015 -0.3657
13065W        W29539  15.396   8.152   1.264  0.0996 -0.3519 -0.0429
13066W        W29540  11.093  14.868  10.936  0.1797  0.0774 -0.3103
13067W        W29541   5.940   9.947   4.136  0.2310  0.3448  0.2551
13068W        W29542  10.554   5.036  12.353 -0.0048  0.2909 -0.0743
13069W        W29543   3.555  14.330   3.020  0.0694 -0.1404 -0.0586
13070W        W29544  12.677   9.385   5.645  0.0716  0.1161  0.2166
13071W        W29545   5.963  13.521   4.349  0.3529 -0.2675 -0.4960
13072W        W29546  11.005   5.264   1.166 -0.0727  0.0102 -0.0861
13073W        W29547   0.124   0.409   3.887 -0.0080  0.0398  0.0512
13074W        W29548  12.510   4.711   3.551  0.3346 -0.0511 -0.0437
13075W        W29549   2.537   1.708  11.653  0.0851 -0.0889 -0.3292
13076W        W29550  11.610   4.581   5.843  0.0068  0.0813  0.0098
13077W        W29551  11.392  12.498  16.283  0.2670  0.2301  0.0247
13078W        W29552  10.354  12.886   0.595 -0.1547 -0.1758 -0.1156
13079W        W29553   8.948   7.595   0.869 -0.0362 -0.1749 -0.0636
13080W        W29554   4.826   5.469   5.584 -0.0599  0.2661 -0.0447
13081W        W29555   4.455   3.109  13.381  0.1541  0.0087 -0.0792
13082W        W29556  10.393   6.669   0.254 -0.0981  0.0814  0.0300
13083W        W29557  14.971  17.920   2.035  0.1797  0.0272 -0.1234
13084W        W29558  14.830   3.352   3.177  0.0409 -0.0571 -0.0167
13085W        W29559   6.879  13.051  13.291 -0.1917 -0.2437  0.3257
13086W        W29560  14.589   7.274   6.362 -0.2978 -0.1802  0.0642
13087W        W29561  15.439   6.992   3.413 -0.0176 -0.2189 -0.1879
13088W        W29562   6.855   8.562   4.839 -0.0884  0.2469 -0.0730
13089W        W29563  16.895  16.379  13.707  0.2969 -0.7130 -0.0118
13090W        W29564  13.584  13.601   0.112 -0.2639  0.0260  0.2334
13091W        W29565   5.968   1.173  14.352 -0.2479 -0.0569 -0.2808
13092W        W29566   2.272   9.035  14.424 -0.3467  0.1405  0.1168
13093W        W29567  13.698  12.900  15.120 -0.2367  0.0113 -0.0327
13094W        W29568   4.707   7.027   5.700 -0.0942 -0.0555  0.2646
13095W        W29569   2.240  18.104   4.879  0.0940 -0.3004 -0.1718
13096W        W29570   0.605  15.148  12.822 -0.0950  0.0315 -0.0379
13097W        W29571  15.496   3.705  14.114 -0.0336 -0.0084  0.0911
13098W        W29572   0.199   0.296  14.892  0.0597  0.0923  0.1209
13099W        W29573  12.370  16.983   1.294  0.0538  0.0724  0.0417
13100W        W29574   4.765  17.480   2.216  0.0833 -0.0656  0.2578
13101W        W29575   4.838   3.805   3.312  0.0916 -0.0559  0.0320
13102W        W29576   3.098   2.361  15.153  0.0721  0.0790 -0.0721
13103W        W29577   8.539  13.528   1.750 -0.3346  0.0526 -0.2643
13104W        W29578   5.068   7.564  15.169  0.0691 -0.2089 -0.2019
13105W        W29579  13.658   1.913   1.699 -0.4327 -0.1121 -0.0664
13106W        W29580   7.555   8.124  13.334 -0.1969 -0.3234 -0.0797
13107W        W29581  14.430   5.882  11.935  0.1545 -0.0722  0.1530
13108W        W29582   0.845  17.377   1.346 -0.0449 -0.0254 -0.2336
13109W        W29583   1.185   0.713  13.580  0.0343 -0.3027  0.1016
13110W        W29584   5.900   8.946  14.647 -0.1603 -0.0637 -0.0149
13111W        W29585   4.497  10.424   5.463  0.1884 -0.2727  0.2229
13112W        W29586  15.129  13.116  13.547  0.0300 -0.0898  0.2432
13113W        W29587  15.214  16.512   2.564 -0.3055  0.2207  0.0441
13114W        W29588  12.363  12.978  12.537  0.0192 -0.0128  0.1379
13115W        W29589   2.092   8.701   1.864  0.1137 -0.0293  0.3055
13116W        W29590   6.055   3.447   0.105 -0.0695  0.5299  0.0887
13117W        W29591  14.024  17.359   2.611 -0.1968 -0.2364 -0.0851
13118W        W29592  14.073  15.825  13.135  0.0719  0.1292  0.0031
13119W        W29593   6.460  11.121  13.295  0.0894  0.6123 -0.0317
13120W        W29594   0.449   5.082   0.977  0.0009 -0.0281  0.3392
13121W        W29595  16.048   2.496   3.773 -0.2017 -0.0737  0.2305
13122W        W29596  12.672   5.041  13.443  0.0852 -0.0092 -0.2094
13123W        W29597  10.131   4.403  14.342  0.0163 -0.0734 -0.0764
13124W        W29598  13.468   3.813   0.081  0.0277  0.0631  0.1865
13125W        W29599   9.125   7.596  13.807  0.2282  0.1772 -0.0519
13126W        W29600  15.516  10.368   4.190 -0.0871 -0.0149 -0.1617
13127W        W29601  16.120   6.873  13.147  0.3089  0.0671  0.0685
13128W        W29602   3.329   4.257  13.191 -0.2093 -0.1598  0.1332
13129W        W29603   1.175  18.029   1.905  0.1379  0.0733  0.1149
13130W        W29604  12.240  14.857   2.283 -0.0637  0.1097  0.0795
13131W        W29605   3.088   0.243   3.969  0.0665  0.2046  0.2061
13132W        W29606   4.519   5.020  12.176 -0.2921  0.0812 -0.3654
13133W        W29607   6.606  13.857  10.216 -0.0844  0.4073  0.2329
13134W        W29608  16.598   2.313   1.250  0.0489 -0.0834  0.2814
13135W        W29609   0.920   4.642  14.007  0.0061 -0.0695 -0.0460
13136W        W29610  13.978   3.115  15.599 -0.0784 -0.2190  0.3188
13137W        W29611  16.872   4.377   0.439 -0.0823 -0.2225  0.0500
13138W        W29612  15.407   0.566   3.644  0.4513 -0.1052  0.2981
13139W        W29613   0.969   4.924   4.922  0.2183 -0.2579  0.0599
13140W        W29614   4.336  10.393  10.836  0.2222 -0.1135 -0.1886
13141W        W29615   4.332   9.974   1.900  0.4004 -0.4641 -0.1978
13142W        W29616  14.764   4.309  11.476  0.2063  0.0841 -0.0996
13143W        W29617   6.128  14.660  12.358  0.2556  0.3011  0.3273
13144W        W29618   3.136  10.388   2.753 -0.1064  0.0793 -0.1864
13145W        W29619   1.500  12.646  13.741  0.2950 -0.0711 -0.2617
13146W        W29620   6.240   0.300   5.765  0.1817  0.0667  0.3773
13147W        W29621   5.086  17.820   1.376 -0.1416  0.0192 -0.0343
13148W        W29622   9.420  13.274  15.103 -0.0175 -0.3693 -0.0850
13149W        W29623  16.815   4.073   5.415  0.0939 -0.2410  0.0888
13150W        W29624   5.450   6.004   4.560  0.0012  0.1254  0.0020
13151W        W29625   9.821  12.003  12.436 -0.0476  0.1242 -0.0619
13152W        W29626  17.814  12.238   0.803 -0.0488 -0.3081 -0.1097
13153W        W29627   8.667   9.929   3.592 -0.1447 -0.1050  0.1262
13154W        W29628  16.448   5.774   0.738 -0.0177  0.0012  0.1206
13155W        W29629  12.415   6.265   4.228 -0.0466 -0.2018 -0.0081
13156W        W29630   4.830   1.457  13.580 -0.0930 -0.0498 -0.0886
13157W        W29631  15.134   8.516   2.925  0.0538  0.1232 -0.3193
13158W        W29632  13.984   7.242  15.966 -0.0076 -0.1192 -0.0421
13159W        W29633  12.272   9.349  15.944  0.2194  0.4019 -0.3407
13160W        W29634  12.010  16.996  12.971 -0.4885 -0.4198 -0.2012
13161W        W29635  15.585   3.615   5.576 -0.3055  0.0490  0.2455
13162W        W29636   3.097   4.975   1.834 -0.3023 -0.4021  0.0372
13163W        W29637   9.347   2.343   1.748 -0.0269  0.0098  0.0758
13164W        W29638  12.781   9.982  13.623 -0.1852 -0.2222  0.0792
13165W        W29639  14.300   0.934   0.132  0.2806  0.3325  0.2511
13166W        W29640   3.447   4.520   1.194 -0.1956 -0.2923  0.0563
13167W        W29641  17.933   3.569  12.755  0.1763  0.2107 -0.0097
13168W        W29642  11.566   6.337   5.344 -0.0720  0.2004  0.0849
13169W        W29643  10.819  10.925   5.497  0.0111  0.1953 -0.2027
13170W        W29644  16.765  17.258  16.222  0.2086 -0.0330 -0.0513
13171W        W29645  16.904  16.244   0.660 -0.0005  0.0178 -0.2216
13172W        W29646   2.265  18.152   0.116 -0.0954 -0.1181 -0.0782
13173W        W29647  12.780  12.421  14.717 -0.0908  0.1370  0.1442
13174W        W29648   7.693  11.952   3.472 -0.2870  0.0737 -0.0709
13175W        W29649   0.407  14.189   5.786  0.0391 -0.0923 -0.1485
13176W        W29650   3.005  18.116   2.973  0.3274 -0.0677 -0.4693
13177W        W29651  10.774  15.030   4.809 -0.0435  0.2078 -0.1424
13178W        W29652   1.998  10.990   4.790  0.0302  0.2292  0.0847
13179W        W29653  10.090   9.253  14.023 -0.2932 -0.1860 -0.1771
13180W        W29654  15.432   1.536  15.901  0.0975  0.0263 -0.0838
13181W        W29655   1.964   7.439   3.924 -0.1035  0.0225  0.1663
13182W        W29656   2.577  10.034   0.086 -0.0415 -0.0960  0.1549
13183W        W29657  14.425  12.576   4.251 -0.1305  0.1489 -0.1828
13184W        W29658  15.783  11.086   0.381  0.1198 -0.0049  0.0065
13185W        W29659   4.575  16.338  15.206  0.2805 -0.1002 -0.0545
13186W        W29660  17.860   4.071   0.012  0.1040 -0.0717  0.1909
13187W        W29661  12.623   4.393   4.949  0.1601  0.3109 -0.0623
13188W        W29662  12.874  13.712   2.031  0.2165 -0.0844  0.1360
13189W        W29663   4.430   1.939   3.559 -0.0542  0.2709 -0.0018
13190W        W29664  17.523  13.609  16.138 -0.3086 -0.3618 -0.1007
13191W        W29665  17.873  14.762   2.345  0.0339 -0.1507  0.3558
13192W        W29666  18.154  15.947  12.154 -0.0148  0.2184  0.3338
13193W        W29667   3.708   5.841  11.407  0.2483 -0.1460  0.0147
13194W        W29668  10.083   0.202  14.844  0.0143  0.4189 -0.1922
13195W        W29669  15.310   2.271  14.849  0.0280 -0.1969  0.1152
13196W        W29670   7.987  15.041   2.530  0.2266  0.1196 -0.0646
13197W        W29671   6.478  12.219   4.140  0.2669  0.1775 -0.1198
13198W        W29672  16.608   4.358   4.913  0.0819  0.2283  0.0385
13199W        W29673  10.791   1.935  13.161 -0.2073 -0.1876 -0.0216
13200W        W29674   1.036   0.400  14.769 -0.0745 -0.1024  0.0712
13201W        W29675   0.547   3.752   0.364 -0.0393  0.3645 -0.1196
13202W        W29676   5.523  13.981  16.165  0.3067 -0.1090  0.1702
13203W        W29677   5.354   8.690   2.811 -0.1474 -0.1512  0.1293
13204W        W29678  16.591  14.267  12.526  0.0344 -0.2503 -0.2769
13205W        W29679  17.365   7.835   4.188  0.0107 -0.1346  0.1889
13206W        W29680   9.226  15.544   3.792  0.1340 -0.0244  0.0609
13207W        W29681   9.501  12.636  12.914 -0.3227  0.0941 -0.0267
13208W        W29682  13.372  16.194   3.993 -0.2910 -0.0163  0.0811
13209W        W29683   1.008   5.907   2.206 -0.2160 -0.0915 -0.1035
13210W        W29684  14.078  13.555   5.751 -0.0998 -0.1140 -0.1638
13211W        W29685   4.483  10.242   0.422  0.1919 -0.1286 -0.0968
13212W        W29686   7.505   5.387   2.294 -0.1642 -0.0260 -0.2256
13213W        W29687   7.160  16.116  12.700  0.0488 -0.1358  0.0189
13214W        W29688  12.117  11.999   5.668  0.1310  0.0508  0.5696
13215W        W29689   9.018  14.187   4.016 -0.0101  0.0649  0.4035
13216W        W29690  10.957  17.403   3.818  0.3406 -0.0452  0.1536
13217W        W29691   8.855   2.068  12.278  0.0562  0.0549 -0.0948
13218W        W29692   3.877  12.853  16.326 -0.1201  0.0495 -0.0062
13219W        W29693   4.143  12.152  11.794 -0.3079 -0.3441  0.0226
13220W        W29694   4.869  10.767  11.636  0.1456  0.0966  0.1432
13221W        W29695   5.591  16.191  13.417  0.1578 -0.0211  0.0707
13222W        W29696   4.182   0.099   4.883  0.2848  0.4476  0.0452
13223W        W29697  16.157  17.245   3.349 -0.1110  0.1397  0.0310
13224W        W29698   4.736   2.725   4.068  0.2025  0.1331  0.0920
13225W        W29699  17.869  14.144   5.111 -0.0765 -0.0653  0.0462
13226W        W29700   8.658   7.020   3.262 -0.5015  0.1185 -0.2021
13227W        W29701   1.878  15.468  13.588 -0.2190  0.1347  0.0162
13228W        W29702  10.197  15.972   2.412  0.1508 -0.2731  0.0424
13229W        W29703   8.282   3.685   3.364 -0.2785  0.2008 -0.1967
13230W        W29704   9.849   9.765  10.292  0.1516  0.0954 -0.1488
13231W        W29705   1.371  16.373  11.316 -0.0348  0.0284 -0.1513
13232W        W29706   9.115   6.403  10.286 -0.1931  0.2296  0.0200
13233W        W29707  16.547   6.572  15.196 -0.1482  0.0384 -0.0733
13234W        W29708   3.717  12.235  14.753 -0.1384  0.0293 -0.0234
13235W        W29709  17.766  10.890  11.755 -0.0104  0.0818  0.0182
13236W        W29710   6.128  14.295   2.344  0.2272 -0.2040  0.2810
13237W        W29711   1.876  18.082   3.425  0.0248 -0.0222  0.1794
13238W        W29712   0.656  17.496   4.456 -0.0572 -0.1103  0.1502
13239W        W29713   7.936  11.497  11.026 -0.1648  0.0841 -0.1638
13240W        W29714   5.266  17.811   0.053 -0.1413  0.1914 -0.0707
13241W        W29715   5.697  13.886   2.553  0.3353 -0.1389 -0.0145
13242W        W29716  16.627  16.280   3.241 -0.2476  0.1006 -0.0264
13243W        W29717   3.387   3.550   4.314 -0.3579  0.0278  0.2186
13244W        W29718  10.973   0.221  15.035  0.0726 -0.0149  0.0836
13245W        W29719  15.117   7.953  12.554  0.2535 -0.1254  0.0558
13246W        W29720   5.563  17.200   0.246  0.0342 -0.0467 -0.0702
13247W        W29721   6.410   6.585  15.541  0.0515 -0.2723  0.0782
13248W        W29722   7.111   6.626   1.815 -0.1736 -0.2401 -0.2046
13249W        W29723   8.707   6.024   2.730 -0.0315  0.1105 -0.0825
13250W        W29724   3.816   0.945   4.902 -0.2468 -0.2463  0.1462
13251W        W29725   5.147  17.655   0.778 -0.2633  0.5899 -0.0485
13252W        W29726   0.663   4.446   1.358  0.0384 -0.1638 -0.3232
13253W        W29727   4.646  17.597   5.458  0.1889 -0.2129 -0.1545
13254W        W29728   7.732   9.367   2.218  0.0631 -0.0780 -0.0394
13255W        W29729   1.071   5.811  16.111 -0.1643  0.0167 -0.0921
13256W        W29730   5.694   4.991  16.001 -0.1817 -0.2461  0.0609
13257W        W29731   5.600   3.095  12.992 -0.0591  0.0154  0.1562
13258W        W29732  11.438   2.671   2.812 -0.3309  0.3891  0.2914
13259W        W29733   4.134  15.543   0.654  0.0075  0.0718  0.0683
13260W        W29734  14.008  11.327   2.993  0.0876  0.0543  0.1696
13261W        W29735  16.009   8.884  13.719  0.0022 -0.2140 -0.1658
13262W        W29736   1.021   1.391   4.307 -0.2944 -0.1692  0.3686
13263W        W29737   8.257   1.590  15.077  0.1560 -0.3720  0.0753
13264W        W29738   0.399  11.120   2.621  0.1118 -0.0340  0.0293
13265W        W29739  17.386   7.029   1.163 -0.0733  0.0744 -0.0162
13266W        W29740   3.006   3.275   4.058  0.1076  0.0538  0.0875
13267W        W29741   3.790  13.846  12.043 -0.1233 -0.2368 -0.0322
13268W        W29742   1.232  17.135  16.183  0.0950 -0.0567  0.1491
13269W        W29743  11.086   6.039   1.773  0.0198 -0.2265 -0.0258
13270W        W29744   2.477  10.513   0.566 -0.0537  0.1050  0.1930
13271W        W29745  13.835   0.816   0.161  0.3950  0.1516  0.1912
13272W        W29746  13.793   0.255  15.984 -0.2028 -0.1492 -0.1445
13273W        W29747   6.302  11.607  15.340  0.1922 -0.1428 -0.1053
13274W        W29748  17.420  11.663  10.772  0.0585  0.1424 -0.1794
13275W        W29749   2.310   6.439  12.473  0.1782  0.3202 -0.0377
13276W        W29750  11.606  11.546   3.925  0.0583  0.2709  0.1541
13277W        W29751   6.046   3.948  16.242 -0.0140  0.1286 -0.1721
13278W        W29752  11.189   4.829   5.046 -0.3849  0.0112 -0.0034
13279W        W29753   1.384  11.544  16.018  0.0516  0.1405 -0.3000
13280W        W29754   9.272  17.715   4.347  0.1850 -0.1371 -0.3194
13281W        W29755   5.808   0.311  15.983  0.2075  0.0849 -0.0929
13282W        W29756   8.555   1.689   1.911  0.1462 -0.0719  0.1468
13283W        W29757   9.915  10.566  12.498  0.2132  0.1399  0.1948
13284W        W29758   8.571   4.720  13.325  0.0707  0.0516 -0.4253
13285W        W29759   8.202  14.604   0.641 -0.2539 -0.2844  0.1415
13286W        W29760   9.646   2.463  11.655  0.0388  0.0732  0.1104
13287W        W29761   7.676   1.661   2.169 -0.1779  0.0704  0.4739
13288W        W29762   0.214   2.054  14.667 -0.1437 -0.3883  0.0491
13289W        W29763   9.104  11.256   1.362 -0.0232 -0.1008  0.0815
13290W        W29764   3.202   4.327  12.190 -0.0653  0.5008  0.1174
13291W        W29765   8.828   7.444  13.086  0.1349  0.1647  0.1552
13292W        W29766  18.018  14.219   2.343  0.0352 -0.0163 -0.0916
13293W        W29767   8.412   8.120  16.360  0.2761  0.0587 -0.1421
13294W        W29768  15.486   8.120  13.241  0.0853 -0.1832 -0.1582
13295W        W29769  17.351   2.054  12.202  0.0193 -0.0760  0.3679
13296W        W29770  13.623  10.622   3.570  0.1271 -0.3930 -0.2004
13297W        W29771   9.711   2.986   4.727  0.0305  0.0976  0.1514
13298W        W29772   5.292  10.123  12.935  0.0183 -0.0517  0.0113
13299W        W29773   9.151   2.340  11.930  0.1870 -0.0902  0.1411
13300W        W29774   5.597   3.827   5.039 -0.0792 -0.0432  0.2808
13301W        W29775   1.252   8.440   4.117 -0.2561  0.0208  0.0213
13302W        W29776   6.390   0.751   3.979 -0.0472  0.2413 -0.3274
13303W        W29777   7.788   6.004  11.678  0.0642  0.0313 -0.0731
13304W        W29778   9.168   9.434   1.298  0.4663  0.0278 -0.0512
13305W        W29779   4.447   7.707   0.956  0.1311 -0.2118  0.1530
13306W        W29780  14.099  10.514   2.514  0.0378 -0.2153  0.1414
13307W        W29781  12.889   1.594   0.167  0.3946  0.1300 -0.3123
13308W        W29782  15.236  12.816   0.368 -0.0783  0.0197  0.2815
13309W        W29783  16.091  14.619  14.040  0.0164 -0.0265  0.0951
13310W        W29784   3.167  14.493  16.124 -0.0579  0.0696 -0.1617
13311W        W29785  15.605  12.138   2.369 -0.1071 -0.2166 -0.0047
13312W        W29786  16.147   0.195  15.439 -0.1707  0.0600 -0.1126
13313W        W29787   7.209  10.566  15.108  0.0344 -0.3525  0.0899
13314W        W29788  10.882   6.747   0.028  0.0228  0.0566 -0.0894
13315W        W29789   9.072  16.689  15.056  0.1507  0.1266  0.1130
13316W        W29790   5.029   0.966  14.514  0.1479  0.1038  0.2287
13317W        W29791  13.801   0.957  11.138  0.0969 -0.2119 -0.1916
13318W        W29792  11.090   8.866   0.830 -0.0275 -0.1638 -0.2158
13319W        W29793   9.931  13.688  12.111  0.0421 -0.0783  0.1736
13320W        W29794  12.480  14.327  13.909 -0.1052  0.5180 -0.1452
13321W        W29795   3.257  17.295   5.641 -0.0253 -0.0971 -0.0525
13322W        W29796   8.962  16.243  11.232 -0.1267 -0.0007  0.0489
13323W        W29797   5.321  17.219  12.395 -0.3499  0.0403 -0.0806
13324W        W29798  14.602   6.221  15.353 -0.3131 -0.2669  0.2088
13325W        W29799   8.986   1.692  11.770  0.1273 -0.1129 -0.1269
13326W        W29800   6.156   1.689   5.714  0.0883  0.1595 -0.1604
13327W        W29801   5.098  13.507  15.522 -0.1555  0.4819  0.2245
13328W        W29802  12.483  16.988  12.571  0.0179  0.1070  0.0428
13329W        W29803   0.783  12.568   1.045  0.2808 -0.0321 -0.0221
13330W        W29804   3.458   0.106   2.177  0.1566  0.1193 -0.2587
13331W        W29805   8.918   8.419  14.072 -0.3824  0.0137 -0.3684
13332W        W29806   8.977   2.949   5.366 -0.4189  0.2015 -0.0618
13333W        W29807   7.001   4.845  14.752 -0.1081 -0.2685  0.3446
13334W        W29808   0.437   7.984  15.657 -0.1260  0.0375 -0.2142
13335W        W29809  15.873   4.296  12.354  0.1387 -0.1466  0.0320
13336W        W29810   9.747   6.579   2.164  0.0740  0.0932 -0.1640
13337W        W29811  13.700   5.367   2.080  0.0801  0.2211  0.0275
13338W        W29812   5.061  16.941  11.673 -0.0156  0.2562 -0.1551
13339W        W29813   5.848   9.018   2.214 -0.3234 -0.1016 -0.1297
13340W        W29814   5.336  10.909   3.307 -0.2127  0.0699  0.0860
13341W        W29815  12.223   7.904   4.924  0.2161  0.0169 -0.1592
13342W        W29816  14.900   4.586   0.134 -0.1764  0.2588 -0.2558
13343W        W29817   8.929   1.028   1.335 -0.2692 -0.1377  0.0417
13344W        W29818  11.545   8.493  15.963 -0.1341  0.1291 -0.1423
13345W        W29819  16.739  14.352  15.464  0.1665 -0.1055  0.1115
13346W        W29820   5.788   0.600   3.950  0.1372  0.2087 -0.0588
13347W        W29821  16.834  10.092  15.144 -0.1164 -0.1603 -0.1098
13348W        W29822   9.655   9.706   2.455  0.0304  0.0432  0.1850
13349W        W29823   7.982   9.766   3.117 -0.1509  0.2126  0.1396
13350W        W29824  12.531   2.466   1.516 -0.0965 -0.0832 -0.0354
13351W        W29825   2.615  15.532   0.872  0.0662  0.0883 -0.1174
13352W        W29826   6.429   3.509  15.617  0.1101 -0.0765  0.0229
13353W        W29827   5.079  15.375   4.271  0.1309  0.3474 -0.1277
13354W        W29828  15.729  14.294  13.196  0.2348 -0.1810 -0.0146
13355W        W29829   5.468   7.781   2.233  0.0029 -0.0550 -0.0981
13356W        W29830   7.076   6.564  15.531  0.1884 -0.0821  0.0050
13357W        W29831  17.761   5.715  14.144  0.0779  0.1347 -0.0557
13358W        W29832   7.786   3.065   6.160  0.0634  0.2354 -0.0583
13359W        W29833   7.850  10.091   1.758  0.1567 -0.1958 -0.3318
13360W        W29834  12.888   7.008  13.566 -0.1899  0.0830  0.1204
13361W        W29835   1.799   0.541  15.107  0.2580  0.3882  0.2985
13362W        W29836  17.619  10.202   4.770 -0.2624  0.1628 -0.2734
13363W        W29837  11.525  15.932   3.704  0.1397 -0.0935  0.3227
13364W        W29838   5.346  10.589  13.160  0.3460  0.1180  0.1849
13365W        W29839  13.867   6.535   5.032  0.1724  0.2876 -0.0044
13366W        W29840   4.944   6.008   5.642  0.1177  0.2809 -0.3141
13367W        W29841  10.539  16.722  13.879  0.2031  0.0697  0.0392
13368W        W29842   5.673   3.275   1.932  0.0597  0.0904 -0.0122
13369W        W29843   8.308  16.478  12.870  0.3414 -0.3156 -0.0335
13370W        W29844   6.342  12.747  11.754 -0.0172  0.0222 -0.0196
13371W        W29845   4.193  15.094  15.233 -0.0768 -0.0701  0.1066
13372W        W29846   0.080   0.570  12.635 -0.2379  0.0379 -0.1611
13373W        W29847  14.209  17.710  14.641  0.0372 -0.1425  0.0913
13374W        W29848   5.340   1.314  12.915 -0.1315 -0.0060 -0.0113
13375W        W29849   1.530   0.543  12.030 -0.3939 -0.2092  0.0166
13376W        W29850   2.904   6.275   5.054 -0.1814  0.0296  0.0663
13377W        W29851   7.973   8.606  14.045  0.2294  0.2120 -0.4327
13378W        W29852   6.377   4.773  12.084  0.1741 -0.0657  0.1827
13379W        W29853   4.115   5.067  11.120 -0.3030 -0.1753  0.0702
13380W        W29854   6.686  16.874  10.820 -0.0824 -0.1010 -0.0183
13381W        W29855   9.380  15.687   5.001 -0.0666  0.2896 -0.1865
13382W        W29856   4.480  17.455   3.667 -0.3265 -0.0849  0.2111
13383W        W29857   1.578  16.205   0.306  0.2139  0.1508 -0.4436
13384W        W29858  10.654   2.679  14.400 -0.0655 -0.1911 -0.0219
13385W        W29859   2.374  11.758   2.686 -0.0058  0.1516 -0.1662
13386W        W29860   0.857  15.852   4.337 -0.0967 -0.0227 -0.1258
13387W        W29861   2.991   1.288  14.704 -0.0921  0.2205  0.1002
13388W        W29862  15.654   5.167  12.725 -0.0079 -0.1593  0.1505
13389W        W29863   0.448   9.498  15.701 -0.0033  0.0551  0.3205
13390W        W29864  11.177  16.427  16.063  0.2562  0.1211  0.1766
13391W        W29865   6.980   0.364  11.046  0.0589  0.0154 -0.2287
13392W        W29866  15.257   3.432  12.866 -0.2990  0.1468  0.1944
13393W        W29867   1.747   9.345   4.384 -0.1151 -0.1034 -0.0389
13394W        W29868  13.484   3.233   5.318  0.2131  0.3510 -0.2382
13395W        W29869  14.199   5.277   3.366  0.2199  0.3766 -0.3360
13396W        W29870  16.538   8.270  13.741 -0.0588 -0.0304 -0.0476
13397W        W29871  10.026   7.653   5.137 -0.0325  0.3527  0.1846
13398W        W29872   4.203   5.088   3.446  0.2129  0.0404  0.2319
13399W        W29873  12.368   8.771  12.102  0.0442  0.3391 -0.0910
13400W        W29874   2.515  18.021  13.124 -0.1302 -0.1904  0.0031
13401W        W29875   1.417  10.081   6.151  0.0022  0.3744  0.2801
13402W        W29876  10.238  13.770  12.545 -0.2996  0.0792  0.0488
13403W        W29877   9.997  12.210   4.342 -0.1206  0.2754 -0.3644
13404W        W29878   2.390   7.454  11.772 -0.3786 -0.0934 -0.2268
13405W        W29879   4.932   2.456   0.299  0.1854  0.2312  0.0005
13406W        W29880  15.021  13.163   1.538  0.0729 -0.0983  0.0210
13407W        W29881   9.074  14.794  15.998  0.3613 -0.0096  0.2709
13408W        W29882   5.945   8.366   0.447 -0.0385  0.2328  0.0739
13409W        W29883   8.893   4.932  14.267 -0.0669  0.2916 -0.0398
13410W        W29884   8.796   0.514   2.270 -0.3235  0.1049  0.0345
13411W        W29885  14.604   4.781  11.734 -0.3686 -0.1193 -0.1070
13412W        W29886   5.742   7.101   5.424 -0.2351  0.1986  0.1733
13413W        W29887   7.912   7.563  10.976  0.1916  0.0678  0.2830
13414W        W29888   9.027   9.511  12.546 -0.0277 -0.0195 -0.0038
13415W        W29889  12.880  16.171  13.727 -0.5136 -0.0254  0.0591
13416W        W29890   4.886   2.126  16.227  0.3516 -0.0886 -0.0910
13417W        W29891   1.814   7.004  14.494 -0.3346 -0.0133  0.0815
13418W        W29892  12.243   8.554   3.053  0.1730  0.2239 -0.1999
13419W        W29893   0.635  16.096  14.890 -0.1405  0.3218 -0.1429
13420W        W29894   7.775  17.571  12.539 -0.0876 -0.2019  0.0981
13421W        W29895   6.287  10.635  11.661 -0.2136  0.0705 -0.1014
13422W        W29896   9.579   3.590   1.545 -0.0903  0.0850 -0.2673
13423W        W29897   9.150   2.290   2.227  0.0265 -0.1804  0.4129
13424W        W29898  14.074  14.510   2.597  0.0407 -0.0303 -0.1159
13425W        W29899   8.438  10.584   4.556 -0.0082 -0.3656 -0.1268
13426W        W29900  11.212  16.486  13.535  0.3033 -0.0878  0.1730
13427W        W29901   8.412   7.224   2.572  0.3848  0.0536  0.0863
13428W        W29902  13.785   8.644   4.752 -0.1827  0.2590 -0.0628
13429W        W29903   6.516   4.136  13.175  0.0558  0.1159  0.0578
13430W        W29904  11.011   3.625   5.084 -0.0407 -0.1800  0.0949
13431W        W29905   0.781   1.713  13.931 -0.2081  0.1556 -0.1153
13432W        W29906   3.999   5.776   4.582  0.1014 -0.1112 -0.0929
13433W        W29907   7.563   5.618  13.094 -0.2201 -0.2757  0.1028
13434W        W29908   8.404   7.320  11.316 -0.0088 -0.2788 -0.1436
13435W        W29909   6.442   8.122  15.981  0.0347 -0.0592 -0.3437
13436W        W29910  17.747   1.923  14.568  0.0891 -0.5006  0.0139
13437W        W29911  15.137  16.703  15.475  0.1923 -0.1569 -0.1223
13438W        W29912  11.178   7.981  14.551 -0.4288  0.0258 -0.1582
13439W        W29913   0.813   9.572   0.263 -0.0636  0.1661 -0.1497
13440W        W29914   1.644   0.765   4.491  0.1637 -0.2105  0.0032
13441W        W29915  10.860  17.411   0.075  0.0054 -0.5586 -0.3015
13442W        W29916  16.939   3.831   5.838  0.1079  0.1646 -0.0359
13443W        W29917  16.447   4.163   0.614  0.0698 -0.0751 -0.0473
13444W        W29918   9.321  14.643  12.679 -0.1811  0.2156  0.1466
13445W        W29919   4.022  15.657  11.510 -0.0389 -0.0389  0.2157
13446W        W29920  13.539   5.655   0.091 -0.1737  0.1076 -0.0367
13447W        W29921   4.324   0.015  11.204 -0.0066  0.0322 -0.0580
13448W        W29922   3.845  15.712  14.673 -0.5823  0.0741  0.1386
13449W        W29923   7.928  16.392  12.285  0.2138 -0.3894  0.0840
13450W        W29924  17.227   4.801   1.977 -0.1508 -0.0903  0.1133
13451W        W29925  15.449  13.485  13.785 -0.3262 -0.0575  0.0087
13452W        W29926   3.424  13.895  14.252 -0.1646  0.0015 -0.0914
13453W        W29927  14.847   3.784   2.999 -0.0995 -0.3961  0.1877
13454W        W29928  17.856  11.260  14.921  0.2944 -0.1562  0.2868
13455W        W29929  12.745   1.585   1.099 -0.1076 -0.4219  0.1063
13456W        W29930   9.774  12.983  16.307  0.2180  0.0222  0.0607
13457W        W29931  12.874   9.984   0.032  0.0466  0.0303 -0.1583
13458W        W29932  14.080  12.917   4.143  0.2002  0.0007 -0.1789
13459W        W29933  12.345   6.407  13.287  0.0642 -0.1967 -0.0221
13460W        W29934   3.052   9.067  11.234 -0.1253  0.3561 -0.1004
13461W        W29935  17.671   2.752  12.954  0.1598 -0.2051  0.4387
13462W        W29936  16.098   0.003   4.246 -0.3336  0.0240  0.1218
13463W        W29937   3.814   1.333   4.547 -0.0379 -0.1556 -0.2281
13464W        W29938   6.693  16.968   2.100 -0.0823  0.0685  0.1254
13465W        W29939  11.701  10.946   0.166  0.2160  0.1025 -0.0495
13466W        W29940   0.916  11.381  14.449 -0.1132 -0.0910 -0.1539
13467W        W29941  15.761  14.834   1.702 -0.4026 -0.0441 -0.1550
13468W        W29942  12.462  15.649   1.676  0.2437 -0.0520 -0.2767
13469W        W29943  13.462  14.731   2.721 -0.0401 -0.0160  0.4282
13470W        W29944   4.500   4.935  10.785  0.1736 -0.1013  0.0898
13471W        W29945  14.265  16.535  12.446  0.0564 -0.0567 -0.0057
13472W        W29946   4.525  15.044  12.067 -0.2102  0.3993 -0.0811
13473W        W29947   3.153   7.871  10.357  0.0541 -0.1129 -0.0206
13474W        W29948   0.203   0.548  15.348 -0.0036 -0.1899  0.2793
13475W        W29949   1.877   2.360   5.219  0.0281 -0.0611 -0.2319
13476W        W29950  12.594  14.400  13.456  0.1051 -0.0251 -0.2305
13477W        W29951  15.511   4.989  13.704  0.2651 -0.2618 -0.1747
13478W        W29952   5.452  10.142   3.818  0.2712 -0.0545  0.0343
13479W        W29953  13.683   1.238  15.831 -0.1929  0.2099  0.0760
13480W        W29954  15.460  13.845  15.927  0.0390  0.0424  0.0994
13481W        W29955   8.026   6.732   4.625  0.0303 -0.1184  0.1879
13482W        W29956   8.304  13.664   3.919  0.1391  0.3043 -0.1726
13483W        W29957  17.377  17.891  13.649 -0.2002  0.0524  0.2071
13484W        W29958  15.139   9.171  14.827  0.4414 -0.1375  0.1875
13485W        W29959  10.292   4.501   5.028 -0.0944 -0.0360 -0.2726
13486W        W29960  11.001   6.032   4.330 -0.0090  0.0120  0.0590
13487W        W29961   5.682  10.117   0.469  0.4125  0.1937  0.0663
13488W        W29962  17.198   2.855   2.283  0.0703  0.0820  0.0624
13489W        W29963   7.550  16.553   1.134 -0.1043  0.0964  0.0683
13490W        W29964   8.887   8.431   4.542 -0.0589  0.0802 -0.1755
13491W        W29965   8.010   9.530   1.750  0.1539 -0.0478  0.1354
13492W        W29966   7.004  10.846  12.584 -0.1073  0.1167  0.1585
13493W        W29967   1.525  16.430  12.332 -0.0355  0.2070  0.3587
13494W        W29968   4.810  16.117   2.432 -0.2394  0.2844  0.1599
13495W        W29969   1.693  14.990  11.515 -0.1192 -0.1334 -0.2100
13496W        W29970   1.525   5.544  13.256 -0.1270 -0.0926 -0.0391
13497W        W29971   4.523   2.390  11.821  0.0610  0.0922 -0.0390
13498W        W29972  11.791  11.088   2.404 -0.1992  0.2220 -0.4099
13499W        W29973  17.576   8.775   6.335 -0.0730 -0.0155 -0.0055
13500W        W29974   5.049   8.624   5.476  0.1839  0.0396 -0.2245
13501W        W29975   8.873   1.583   0.084 -0.3268 -0.0446 -0.2276
13502W        W29976  11.879  15.446   4.216 -0.0934  0.3532 -0.2395
13503W        W29977   6.047  17.192   0.358 -0.0198 -0.0842  0.2294
13504W        W29978  17.661  18.010   0.607 -0.0718 -0.0493 -0.0302
13505W        W29979  13.541   8.101  15.804 -0.1203  0.1956 -0.1264
13506W        W29980   5.841   1.243  12.702 -0.1266 -0.1994  0.1716
13507W        W29981   8.048   6.974   0.339  0.0720  0.1755 -0.1594
13508W        W29982  15.534  15.125  13.369  0.0430 -0.0494  0.0908
13509W        W29983  18.137  18.007  10.837 -0.1451  0.1330  0.0191
13510W        W29984  10.479   3.221  13.392 -0.2569  0.0746  0.1026
13511W        W29985  14.649   2.411   3.296 -0.0571  0.0071  0.1037
13512W        W29986   3.194  17.520  14.445 -0.3493  0.0089  0.0270
13513W        W29987  16.247   2.466   4.873  0.2733  0.0204 -0.0482
13514W        W29988  16.120   5.351  14.576  0.0001  0.0308  0.3156
13515W        W29989   3.287  14.625  11.912 -0.1711 -0.0413 -0.1224
13516W        W29990   5.125   4.571   1.856  0.2133  0.2303 -0.1214
13517W        W29991   8.561  11.743   1.987  0.1302 -0.1991 -0.3595
13518W        W29992   0.425   4.637  12.597 -0.0026  0.3586 -0.0600
13519W        W29993   6.239  16.702  11.969  0.1632  0.1697 -0.0654
13520W        W29994   5.289  16.891   1.367  0.1884  0.0307 -0.2837
13521W        W29995  10.418  16.246   2.015  0.1703  0.3327 -0.1832
13522W        W29996   2.326   3.437  14.901  0.0837  0.0399  0.0274
13523W        W29997  13.783  16.312  13.439  0.0119  0.1733 -0.0193
13524W        W29998  17.557   6.034   3.939  0.0439 -0.1280  0.2865
13525W        W29999  16.088   6.500  16.072  0.2933  0.0406  0.5220
13526W        W30000  13.876  17.967   2.270 -0.0079  0.1485  0.0429
13527W        W30001  10.330   3.740  13.463 -0.0111 -0.0992 -0.0071
13528W        W30002  12.339  13.943  14.914  0.1522 -0.2983 -0.2202
13529W        W30003  13.320   9.310   4.305 -0.2987 -0.1809 -0.0297
13530W        W30004  13.949   6.257  14.081 -0.2617  0.0479 -0.3010
13531W        W30005   1.685  17.603  12.303 -0.1868  0.4239  0.1969
13532W        W30006  13.819   9.426  11.437  0.2053  0.1328  0.1209
13533W        W30007   2.719  11.491  16.231  0.0120  0.0483  0.0654
13534W        W30008   9.407   4.251   2.227  0.0942 -0.1012 -0.2281
13535W        W30009   6.853   5.535   0.386  0.0663 -0.0896  0.1609
13536W        W30010   3.946  10.582   2.128 -0.0357  0.0081  0.1141
13537W        W30011  12.410   4.494   0.449 -0.3199 -0.0144  0.2344
13538W        W30012   6.831   9.432   4.339 -0.0241 -0.1219  0.1872
13539W        W30013   5.970  12.712  16.098  0.1100 -0.1636 -0.0409
13540W        W30014  13.770   5.282  13.490 -0.2308  0.0296  0.1650
13541W        W30015   2.041  15.473  15.868  0.0091 -0.1994  0.1347
13542W        W30016  16.469   0.308  12.113  0.3481  0.2268 -0.0501
13543W        W30017  15.835   9.305  12.535  0.5962 -0.4257  0.2926
13544W        W30018  13.699   6.764   4.507  0.3032 -0.1512  0.1611
13545W        W30019  17.112   9.870  11.985  0.0555  0.0707 -0.0628
13546W        W30020  18.139  16.637  15.227 -0.1309 -0.0330  0.1969
13547W        W30021  16.771   5.388  15.836 -0.1421  0.4045  0.1476
13548W        W30022   0.435   0.738  12.994  0.0679 -0.1820  0.2063
13549W        W30023  10.000   7.403  12.699 -0.0766 -0.0252  0.0215
13550W        W30024  14.305   7.866   2.221 -0.2193  0.0269  0.1131
13551W        W30025  11.774  10.555   1.243  0.0846  0.0122 -0.3827
13552W        W30026   4.197   6.220  13.301 -0.1469  0.2277  0.1115
13553W        W30027   9.409   5.293   1.714 -0.0346  0.1934 -0.0880
13554W        W30028  10.738  15.714   3.483 -0.1524  0.4263 -0.3227
13555W        W30029  10.413   2.498   4.637 -0.0697 -0.0199 -0.2277
13556W        W30030   1.218  16.682  16.003 -0.1525  0.2379 -0.0238
13557W        W30031  12.148  15.231  11.619 -0.2787  0.1789  0.0394
13558W        W30032  16.441   2.161   2.325 -0.2320 -0.1876 -0.0662
13559W        W30033   5.136  14.821   3.028 -0.1083 -0.0930  0.0681
13560W        W30034  12.847   5.548  15.730  0.0265 -0.2034  0.2402
13561W        W30035   1.766   4.767  13.721  0.0337  0.2631  0.0223
13562W        W30036  10.956   8.725  15.159 -0.0977 -0.0466 -0.1052
13563W        W30037  12.612  13.956   0.656  0.0361 -0.0216 -0.0591
13564W        W30038  13.866  17.618   1.936 -0.1228  0.0807  0.1072
13565W        W30039  16.969  14.203  11.608 -0.2997  0.1564 -0.0229
13566W        W30040   1.014  18.073   4.618  0.2147  0.0797 -0.1182
13567W        W30041   9.619  17.121   5.551 -0.0772  0.0670 -0.2345
13568W        W30042   3.265  11.624   5.534  0.2708  0.2067 -0.0802
13569W        W30043   0.099  11.416  12.242  0.0184  0.0100  0.0483
13570W        W30044   0.474   4.984  14.454  0.1538  0.2889 -0.0132
13571W        W30045  15.172   8.410  15.061 -0.1649  0.1283  0.1529
13572W        W30046  11.669   8.899   2.000 -0.3496 -0.0311  0.1611
13573W        W30047   8.964   8.355   2.373 -0.0263  0.0543  0.1499
13574W        W30048  10.512  17.706  13.655 -0.0287  0.0771 -0.2684
13575W        W30049   3.250   8.400  11.799  0.1253  0.0019  0.0497
13576W        W30050   1.674   8.543  12.606 -0.2223  0.4885 -0.0169
13577W        W30051  13.127   4.223   0.074  0.1716  0.2994  0.1645
13578W        W30052  16.020  13.365   2.280  0.0902 -0.1031 -0.0577
13579W        W30053   7.796  17.032  15.133  0.1651  0.0980  0.1180
13580W        W30054   5.867   3.526  11.361 -0.1425  0.0635 -0.0557
13581W        W30055   7.433  18.102  15.823 -0.2266 -0.4150 -0.0038
13582W        W30056  13.156  15.480   2.638 -0.1419 -0.2530  0.2506
13583W        W30057  15.226   4.313  16.083 -0.1858 -0.3135 -0.1264
13584W        W30058   8.452   4.600   4.528 -0.0001  0.2073 -0.0221
13585W        W30059  15.955   8.383   3.436 -0.2841 -0.1405 -0.2709
13586W        W30060   2.563   3.178   3.819 -0.1234 -0.0969 -0.1339
13587W        W30061   0.356  16.473   3.749  0.1891  0.3064  0.0278
13588W        W30062   6.122   9.272   2.981  0.0187  0.1521 -0.1899
13589W        W30063   7.598   6.098   4.768  0.1351  0.1364 -0.1852
13590W        W30064   2.545   7.538   1.376 -0.1372 -0.1104 -0.1355
13591W        W30065  15.014  16.841   2.229 -0.0437 -0.0719 -0.0235
13592W        W30066   9.727   6.559  13.320  0.0964 -0.1646  0.2414
13593W        W30067  11.178   6.080   1.296  0.0194 -0.0571  0.2152
13594W        W30068   0.864   9.292   1.226  0.1096  0.0273 -0.0510
13595W        W30069   4.293   2.138   4.896  0.0980 -0.0594 -0.2373
13596W        W30070   4.784  17.752   1.798  0.2724  0.0602  0.0601
13597W        W30071  17.941  12.534   3.791  0.0797 -0.0750 -0.1169
13598W        W30072   5.208  12.556   3.806  0.0732 -0.0028 -0.2775
13599W        W30073  17.789   2.659   2.411  0.2800 -0.3410  0.0400
13600W        W30074   5.061   8.692  14.845  0.0488  0.1232 -0.2236
13601W        W30075   2.129   3.293  14.455  0.2755  0.2231  0.1067
13602W        W30076  18.076  15.088  15.941 -0.5585  0.0978  0.0224
13603W        W30077  14.485  12.458   4.834 -0.0616 -0.1618 -0.1793
13604W        W30078  16.553   8.487   2.163  0.1633  0.4509 -0.2837
13605W        W30079   6.342  18.169   2.064 -0.1795  0.1747  0.0412
13606W        W30080   8.888   1.976  15.356 -0.0131 -0.1617  0.2274
13607W        W30081  15.046   9.250   3.553 -0.0586  0.0716  0.0950
13608W        W30082  17.590  12.227  16.213  0.0763  0.1191  0.0672
13609W        W30083   9.201  14.309   2.115 -0.0136  0.1327  0.0796
13610W        W30084   1.510   7.516  13.995 -0.0577  0.1328  0.1283
13611W        W30085  13.926  15.238   2.079  0.0210  0.0752 -0.0722
13612W        W30086  10.708  11.712  10.186  0.0757  0.0401 -0.2270
13613W        W30087   0.294  11.053  16.048 -0.0736  0.0030 -0.2382
13614W        W30088   6.632   5.402   5.458 -0.1826 -0.0368 -0.0327
13615W        W30089   6.013   7.427   3.588  0.0936  0.0012 -0.3091
13616W        W30090   3.729   5.482   3.827  0.0820  0.0287 -0.4000
13617W        W30091   4.505   2.780  15.162  0.3891 -0.1135  0.1136
13618W        W30092   8.330  14.227   4.842 -0.1138 -0.0383 -0.3835
13619W        W30093   4.083  16.088  16.182  0.0206  0.1839  0.1516
13620W        W30094   5.650  17.991   4.000 -0.1883 -0.0766 -0.0838
13621W        W30095   2.773   0.462   5.527 -0.1185 -0.1020  0.0133
13622W        W30096  16.352   7.400   4.287 -0.1186  0.0565 -0.1867
13623W        W30097   4.637  16.580   3.721  0.0074  0.0991 -0.0305
13624W        W30098   3.383   9.833  13.526 -0.1006 -0.0209 -0.2106
13625W        W30099  16.696   0.601  13.431 -0.1458 -0.3577  0.1710
13626W        W30100   3.477   2.801  13.941  0.0511 -0.0790  0.1873
13627W        W30101   2.318   2.381   1.682  0.2148 -0.0960  0.1202
13628W        W30102  16.184  17.143   0.313  0.0165  0.0263  0.0616
13629W        W30103  14.285  13.798   1.868  0.1394  0.0704  0.3276
13630W        W30104   6.953   3.407   0.057  0.1403  0.0502  0.0240
13631W        W30105  15.380  11.616   0.760 -0.1129 -0.1054  0.0475
13632W        W30106  11.443  10.987  11.570  0.0352  0.2829 -0.1090
13633W        W30107   1.885   8.168   1.406 -0.0899  0.1005 -0.1177
13634W        W30108   8.860  10.395   3.687 -0.1207  0.0100  0.1354
13635W        W30109  11.447   8.005   2.122  0.3745  0.2416  0.1123
13636W        W30110   6.874   2.146  14.203  0.2131 -0.1389 -0.0710
13637W        W30111  10.405   1.818  11.661 -0.0487  0.1027  0.1232
13638W        W30112  16.805  16.698  16.104 -0.1286 -0.0159 -0.2707
13639W        W30113  16.987   4.323  15.800 -0.0142  0.1979 -0.1331
13640W        W30114   7.545   7.653  15.072  0.0207 -0.1359 -0.2359
13641W        W30115   9.290   1.017   5.506  0.0061 -0.0295  0.1905
13642W        W30116  17.207  17.376   0.104 -0.1011  0.1296  0.1256
13643W        W30117   2.167   4.427   2.377  0.5031  0.1000 -0.0543
13644W        W30118   7.529  15.908  13.023 -0.2420 -0.1723  0.1670
13645W        W30119   6.214   8.512   1.065 -0.1459 -0.0488 -0.0316
13646W        W30120  16.508  11.788   3.674 -0.2815  0.1391  0.1699
13647W        W30121   9.732  17.109   0.347 -0.2016  0.0967  0.3423
13648W        W30122   1.760  14.125  13.286 -0.3423  0.2090 -0.0666
13649W        W30123  14.603  17.647   1.845  0.3239 -0.1592 -0.3201
13650W        W30124   1.700   8.322   4.288  0.2305 -0.4172  0.1792
13651W        W30125   6.003  16.419  13.224  0.0986 -0.2666  0.0884
13652W        W30126  16.240  16.758  13.274  0.0235 -0.2266  0.0053
13653W        W30127  13.641  16.109  15.871  0.0654 -0.2372 -0.3431
13654W        W30128  14.167  11.454  15.415 -0.2344 -0.1537  0.0199
13655W        W30129   6.385  15.906  15.051  0.0543  0.1344 -0.3102
13656W        W30130   4.268   6.613   2.430 -0.0256  0.1453 -0.2064
13657W        W30131  14.649  13.434   3.371 -0.1350 -0.0890  0.1703
13658W        W30132   8.296   6.473   0.116 -0.2606 -0.0069  0.0394
13659W        W30133  15.753  16.724   4.433 -0.1155 -0.1033 -0.0118
13660W        W30134   8.410  17.023   5.904  0.2444  0.0914 -0.0600
13661W        W30135   8.536   1.851  13.404 -0.4043  0.1070  0.1048
13662W        W30136  13.100  12.594  14.170 -0.0700  0.3282  0.0833
13663W        W30137   1.335   2.992  13.380  0.2308 -0.2233 -0.0270
13664W        W30138   5.789  15.753  14.357 -0.0956  0.0809  0.0680
13665W        W30139   5.634   5.337  13.462  0.0377 -0.0146 -0.0800
13666W        W30140  10.370   8.138   4.295  0.2054 -0.1883 -0.0426
13667W        W30141  16.420  16.973   3.689 -0.3131  0.0130 -0.2707
13668W        W30142  11.637  17.045   0.209  0.0173 -0.2415 -0.0784
13669W        W30143  12.170   5.732   3.222 -0.1206  0.0818  0.2211
13670W        W30144  12.967   4.519  12.596  0.2557 -0.1029  0.0239
13671W        W30145   9.703   8.268  14.638 -0.2715  0.1432  0.0185
13672W        W30146   7.466  14.699   2.610 -0.0382 -0.0248 -0.0610
13673W        W30147   5.836  17.404  15.554  0.0927 -0.1052  0.0067
13674W        W30148  17.893  13.286  16.271  0.0913  0.0221  0.1311
13675W        W30149  16.967  13.450   1.305  0.4173  0.0049  0.0424
13676W        W30150   0.321   8.854   2.310  0.1051  0.2128  0.0915
13677W        W30151  16.196  16.383   2.973  0.0771 -0.1109  0.1053
13678W        W30152   9.930   2.041  12.364  0.1090 -0.2708 -0.3361
13679W        W30153   0.385   9.779   0.491  0.0984  0.2991 -0.2709
13680W        W30154  14.234   9.253  11.648  0.0411 -0.1503  0.0618
13681W        W30155   2.410   2.332  12.460  0.0533 -0.0635  0.3350
13682W        W30156   0.667   4.119  15.381  0.2121  0.1749  0.2845
13683W        W30157  13.134  16.593   5.171 -0.0037 -0.0463  0.1510
13684W        W30158  13.945  16.613   2.993 -0.3794 -0.1560  0.1877
13685W        W30159  13.298  11.969  15.349 -0.0960 -0.2687  0.1720
13686W        W30160   9.729  12.638  15.891  0.0468  0.2115 -0.1437
13687W        W30161   3.647   1.435   2.211  0.2145  0.1193  0.3121
13688W        W30162  14.157  16.055   1.026  0.0559 -0.1794  0.1500
13689W        W30163   3.656   7.328   2.935 -0.1039 -0.0067 -0.1148
13690W        W30164  13.516  14.449   0.185 -0.0137 -0.0767 -0.0967
13691W        W30165   6.077   4.006  11.041 -0.1450  0.3948  0.0043
13692W        W30166   0.657   5.395  14.787 -0.0932  0.4261 -0.2520
13693W        W30167  13.706  11.714  14.376  0.1509  0.0861 -0.1183
13694W        W30168  15.949   6.059  11.091  0.1296 -0.1046  0.0221
13695W        W30169  14.757   0.805   2.866  0.1018 -0.3199  0.0074
13696W        W30170   0.897   1.566   2.090  0.1146  0.2430  0.0732
13697W        W30171  11.709   6.522   2.524  0.1598  0.0417  0.2344
13698W        W30172   9.410  15.387  11.806 -0.2472  0.2461 -0.2131
13699W        W30173   0.194   5.141  12.478 -0.1730 -0.0875  0.0471
13700W        W30174   9.965  16.835  12.378  0.0180 -0.1832  0.1792
13701W        W30175   5.929   0.019   2.385  0.1266 -0.0509  0.0006
13702W        W30176  11.127  16.057   5.510 -0.0914  0.1686 -0.1595
13703W        W30177   9.945  17.321  16.128  0.4915 -0.0030  0.2186
13704W        W30178   1.616  14.811  14.905  0.0012 -0.1145  0.1744
13705W        W30179  14.573  15.848  15.796 -0.2487  0.1560  0.0134
13706W        W30180  12.017   5.526  12.099  0.2365 -0.0245  0.0868
13707W        W30181   4.589   7.001  14.664  0.1597 -0.4644 -0.0931
13708W        W30182  17.356   8.531  15.540  0.2094  0.0857  0.2796
13709W        W30183  14.016  11.912  14.828  0.0668 -0.2483  0.1185
13710W        W30184  16.768  15.056  12.781 -0.3920  0.2505  0.0765
13711W        W30185  15.047  14.315  12.420  0.1152 -0.0767 -0.2667
13712W        W30186   2.350   5.357  11.795 -0.0715 -0.1619  0.1778
13713W        W30187  12.236  11.940   0.443 -0.0731 -0.0663 -0.0108
13714W        W30188   9.738  11.424  15.918  0.0627  0.0953 -0.1732
13715W        W30189  13.465  11.035   4.614  0.4332  0.1003 -0.1362
13716W        W30190   3.622  17.575   3.667 -0.0040 -0.2036 -0.3688
13717W        W30191   9.279   4.137   2.818 -0.1036 -0.2016  0.1155
13718W        W30192   8.476   2.752  11.586 -0.0069  0.1736  0.0512
13719W        W30193  11.446   0.626  16.063 -0.3354 -0.0005  0.2062
13720W        W30194   4.526  16.366   2.907 -0.2022  0.1067  0.1040
13721W        W30195   4.206   3.110   2.139 -0.0202  0.2177 -0.0284
13722W        W30196  15.816   2.289  15.573 -0.1368  0.2078 -0.0472
13723W        W30197   9.645   0.455   2.688 -0.0171  0.1852 -0.4624
13724W        W30198  13.402   2.322   1.603 -0.2120 -0.0811 -0.0668
13725W        W30199  11.283   1.065  13.175 -0.0797 -0.0763 -0.0535
13726W        W30200   0.352   5.838  16.291  0.2365  0.0705  0.0256
13727W        W30201  17.239   2.155  15.381  0.0612  0.1884 -0.1254
13728W        W30202   0.209   4.234  11.562  0.1152 -0.0623 -0.2418
13729W        W30203  11.552   2.173  14.320 -0.0153 -0.3030  0.2251
13730W        W30204   3.988   7.105  12.234  0.0635 -0.0654  0.0423
13731W        W30205  15.452   0.265   0.060  0.0054  0.1793  0.2132
13732W        W30206   3.045  12.245   3.089  0.0699 -0.2143 -0.1997
13733W        W30207   8.941   8.031  13.680  0.3300 -0.2169 -0.0302
13734W        W30208   2.343  10.435  15.923  0.2004  0.1575 -0.1059
13735W        W30209  14.465  17.732  12.310 -0.0536  0.1716  0.0142
13736W        W30210  11.504  11.659   2.530 -0.0046 -0.0258 -0.1928
13737W        W30211  11.572  13.106  15.775 -0.2660 -0.0515 -0.1902
13738W        W30212   8.381   7.376  12.772 -0.3642 -0.1437 -0.2630
13739W        W30213   8.926  10.134   1.991 -0.0257  0.0014 -0.0945
13740W        W30214  13.074  17.219   5.321 -0.1703 -0.0545 -0.0862
13741W        W30215  17.166   5.352  15.386  0.2009 -0.2003 -0.1011
13742W        W30216  10.783  11.726   1.103  0.0774 -0.1924 -0.0630
13743W        W30217   7.814  17.997   1.835 -0.0274  0.0948  0.2318
13744W        W30218   7.673   0.649  14.158  0.0886  0.2985 -0.1562
13745W        W30219  16.850   6.598  13.565  0.0412  0.1012 -0.2292
13746W        W30220  14.620  17.086  14.182  0.0009  0.3649 -0.0662
13747W        W30221   6.084   5.537  11.409  0.0348  0.0977  0.2073
13748W        W30222  15.274  10.281   2.713  0.2384 -0.0618  0.3835
13749W        W30223  15.430  14.537  11.719  0.2831  0.2648 -0.1643
13750W        W30224  10.753  15.016  14.222 -0.1503 -0.1921  0.2542
13751W        W30225   9.907  13.709   1.702  0.0425 -0.0442 -0.1891
13752W        W30226   4.561   6.456  14.883 -0.0249 -0.0079  0.1518
13753W        W30227   9.466  13.940   5.006 -0.2692  0.0371  0.0888
13754W        W30228   4.713   3.527  15.091 -0.0226 -0.2953  0.0293
13755W        W30229   0.518  13.903   0.665 -0.1044  0.1757  0.0916
13756W        W30230   0.348  17.241  12.185 -0.1936  0.0068  0.0314
13757W        W30231  15.912  12.485  13.454 -0.1001 -0.0606  0.1890
13758W        W30232  11.024   7.310  13.095 -0.3445  0.3736  0.4356
13759W        W30233   3.302  16.969   0.208 -0.0757  0.4048 -0.1309
13760W        W30234  12.792   8.988  12.044 -0.2575 -0.1340  0.3943
13761W        W30235   2.979  10.940   1.235  0.0576 -0.1724 -0.1463
13762W        W30236  15.692  13.068  15.915 -0.1778  0.2667 -0.1144
13763W        W30237   6.998   2.215  14.802 -0.1502  0.0751 -0.1756
13764W        W30238   0.278   7.831  14.713  0.1192  0.3122 -0.0770
13765W        W30239   8.149   4.972   4.604  0.0884  0.2323 -0.0294
13766W        W30240   6.878   9.499   3.517 -0.0722  0.4083  0.2243
13767W        W30241  10.791   8.640   2.503  0.0226  0.0283 -0.0080
13768W        W30242  12.125   3.146   0.661 -0.2312 -0.1611 -0.0195
13769W        W30243   2.809   7.518   5.656  0.0686  0.0838 -0.1203
13770W        W30244  12.016   7.598  14.091 -0.1741  0.2052 -0.0846
13771W        W30245   7.494   5.514  15.028  0.2154  0.1213 -0.0136
13772W        W30246  16.529   2.292   2.836 -0.2742 -0.0151  0.1627
13773W        W30247   0.894  15.402  15.472  0.0710  0.1942  0.2698
13774W        W30248   2.243  15.590   4.586  0.1173  0.0266 -0.3607
13775W        W30249   8.251  10.637   5.061  0.3241  0.1448  0.1534
13776W        W30250  11.171  17.558   2.846  0.2689  0.1341  0.0659
13777W        W30251   9.379  14.903   4.772  0.0228  0.1223 -0.0621
13778W        W30252   8.294   0.540   4.557 -0.1077  0.1478 -0.0447
13779W        W30253  13.495   6.103  15.458 -0.1633 -0.0039 -0.0528
13780W        W30254   7.296  14.916   0.902  0.0663 -0.0289  0.2089
13781W        W30255   4.803  14.454  13.757 -0.3260 -0.0799  0.1754
13782W        W30256   6.129   6.569  14.557 -0.0171 -0.0641 -0.1109
13783W        W30257   3.236   7.137  15.668  0.0181 -0.0402  0.2263
13784W        W30258   1.319   6.140   5.546 -0.4671 -0.1957 -0.1168
13785W        W30259  10.640  12.821   0.232 -0.0991 -0.0476  0.1617
13786W        W30260   7.140  15.984   2.865 -0.2496 -0.2510 -0.3227
13787W        W30261   8.812  12.885   3.301 -0.1489  0.0533 -0.1884
13788W        W30262   6.159   6.910  12.414 -0.1417 -0.0906  0.0925
13789W        W30263   5.894   1.034  14.902  0.0872  0.0102 -0.1039
13790W        W30264  11.194  16.146   4.014  0.2884  0.0065 -0.0394
13791W        W30265  16.971  12.399  14.547 -0.0744 -0.2569 -0.0638
13792W        W30266   3.223   9.498  12.691 -0.0463 -0.1355 -0.1661
13793W        W30267   0.359   9.816  13.412  0.0606  0.0982 -0.0812
13794W        W30268   7.816  16.406   6.056 -0.2479  0.0336 -0.0407
13795W        W30269  17.553  13.674   4.317 -0.2561  0.3034 -0.0621
13796W        W30270   3.674   0.576  14.458  0.0722 -0.0727  0.1241
13797W        W30271   9.744   5.348   0.303  0.0109  0.2658 -0.1454
13798W        W30272   8.707  14.979   4.983 -0.0014  0.3608 -0.0569
13799W        W30273   2.096  16.121  13.936  0.1769 -0.0253 -0.1791
13800W        W30274  17.799   2.399   3.697  0.2256 -0.0795 -0.1139
13801W        W30275   0.967  12.031  11.789  0.2762 -0.0702 -0.0150
13802W        W30276  16.686  13.680  15.226 -0.1082 -0.3469 -0.0696
13803W        W30277   7.304   2.440   2.511  0.2466  0.1434 -0.1688
13804W        W30278  12.039   4.824   0.462 -0.1860  0.0304  0.1126
13805W        W30279   0.655   1.407   3.471 -0.4550  0.2845  0.1723
13806W        W30280  15.979  13.910   2.292  0.1901  0.0684  0.0163
13807W        W30281   1.593   4.426   0.198  0.2151  0.0722 -0.2099
13808W        W30282  16.145   6.374   5.395  0.3161 -0.4344  0.1335
13809W        W30283   1.889   5.556   2.256  0.3695 -0.1485 -0.1439
13810W        W30284   1.607   2.514   4.830  0.3344 -0.0340  0.1455
13811W        W30285   3.722   8.212  12.835  0.2167  0.0028 -0.1324
13812W        W30286  16.160   5.909   1.656 -0.2815 -0.0288 -0.0690
13813W        W30287   0.579   9.140  12.590  0.0721 -0.1255 -0.1227
13814W        W30288  16.143   0.919   3.853  0.0542  0.0111  0.1331
13815W        W30289   4.135   9.829  10.177  0.1592  0.0390 -0.2001
13816W        W30290   5.483  16.250   0.072 -0.0772 -0.0014 -0.1900
13817W        W30291   0.856   6.801   0.285  0.1139  0.0100  0.1450
13818W        W30292  17.499   7.596   5.536  0.1429  0.0939 -0.0523
13819W        W30293   4.527  15.785   2.150  0.2277 -0.1839 -0.2334
13820W        W30294  13.053   3.173  15.551 -0.3626 -0.4756  0.0727
13821W        W30295   3.499   6.034   3.699  0.0380 -0.2891 -0.0251
13822W        W30296  18.092   8.017   5.477 -0.1370 -0.0245 -0.3502
13823W        W30297   2.507  17.089  12.084 -0.0924 -0.2056  0.2862
13824W        W30298   9.299  17.419   1.158 -0.0506 -0.1124 -0.0328
13825W        W30299  15.889   0.204   0.312  0.0092 -0.0395  0.1963
13826W        W30300   4.940   1.505  15.227 -0.2889  0.2087  0.1007
13827W        W30301   2.940  15.818   0.591  0.0299  0.2174 -0.0948
13828W        W30302   0.937  14.950   0.733 -0.1106 -0.0419  0.1386
13829W        W30303  17.492  11.566   5.626 -0.2684 -0.1301 -0.1537
13830W        W30304  10.567   2.311  14.717 -0.1065 -0.1412 -0.1886
13831W        W30305  15.807  18.092  11.837 -0.2096 -0.0866  0.0464
13832W        W30306   7.271   8.303  12.418  0.0898 -0.2788  0.1250
13833W        W30307   4.693  12.319   1.436 -0.2050 -0.0277  0.1913
13834W        W30308   1.989  17.152  15.761  0.0472 -0.3130  0.1911
13835W        W30309  11.502   9.709   1.177  0.1962  0.1232  0.2496
13836W        W30310   5.746   4.327  13.425 -0.0226 -0.0603  0.2156
13837W        W30311   8.167   9.877   6.210 -0.1638  0.2384  0.3117
13838W        W30312   1.326   6.804  11.388 -0.0097  0.1596  0.1866
13839W        W30313  14.147   2.257  13.846 -0.1043 -0.0781  0.0709
13840W        W30314  10.161  17.121  15.685 -0.0652  0.0558  0.0799
13841W        W30315   5.935   5.041  13.984  0.0118 -0.0540  0.0902
13842W        W30316  14.998   2.442   1.416  0.2672 -0.1939 -0.1363
13843W        W30317  16.521  17.586  12.614 -0.1015  0.0766  0.0944
13844W        W30318   1.702   8.474   0.958  0.1941 -0.0987 -0.2353
13845W        W30319  10.675  10.595  14.069 -0.0647 -0.0348  0.0180
13846W        W30320   9.708   2.111   1.471 -0.3470 -0.1773 -0.1678
13847W        W30321  16.987  10.402   2.772 -0.2552  0.0551 -0.1267
13848W        W30322  15.122   5.023  15.595 -0.0733 -0.1650 -0.1004
13849W        W30323  11.918   2.163  13.615  0.0199 -0.1098  0.0236
13850W        W30324   4.030   3.334  12.823  0.2074 -0.0660  0.3172
13851W        W30325  17.389   9.967   2.873  0.1473  0.0153  0.2187
13852W        W30326   8.121   5.235   5.887  0.2702  0.0067  0.0018
13853W        W30327   1.702   9.043   2.329 -0.1898 -0.0336 -0.0378
13854W        W30328  17.074  15.453   0.308 -0.2802  0.0102  0.4893
13855W        W30329  16.116   2.142  12.249  0.2989 -0.0083 -0.3310
13856W        W30330   7.702   2.900   3.777 -0.2528 -0.2476  0.2197
13857W        W30331  12.270   7.790   1.473 -0.2662 -0.0674 -0.2637
13858W        W30332  10.224   4.127  12.884 -0.2217 -0.2125 -0.0921
13859W        W30333   9.900  13.471  16.083 -0.0804 -0.0343 -0.2371
13860W        W30334  13.909  12.231  14.453 -0.1157  0.0010  0.0490
13861W        W30335   7.128   3.162   1.281  0.2655 -0.0720  0.0572
13862W        W30336  14.153   5.992   2.509  0.0377 -0.2213 -0.1374
13863W        W30337   6.492   4.309  15.550  0.4253 -0.5077  0.3236
13864W        W30338   5.483  15.804   1.779  0.1845 -0.1475 -0.1878
13865W        W30339   0.134   8.512  13.732  0.1184 -0.0439  0.3362
13866W        W30340   5.221   9.764   0.347  0.0075  0.0686  0.2488
13867W        W30341   0.785  13.485   2.855  0.1641 -0.0531 -0.3244
13868W        W30342  10.047   0.106   2.629 -0.0301  0.0608  0.0754
13869W        W30343  11.797  17.395  15.429  0.0949 -0.2618 -0.3368
13870W        W30344   1.363  11.230  13.965 -0.0235 -0.0843  0.0816
13871W        W30345   9.205   2.989  15.511 -0.0313  0.2361  0.2346
13872W        W30346   6.375  14.963   4.879 -0.1438 -0.0742  0.0735
13873W        W30347   9.642   4.087  13.072 -0.1307 -0.1123 -0.2582
13874W        W30348   1.268   4.856   5.276 -0.0821 -0.0214 -0.1041
13875W        W30349   0.700   8.569   5.255 -0.1906 -0.0454  0.0653
13876W        W30350  10.570  18.144  14.924 -0.0821  0.2055 -0.0085
13877W        W30351  10.988   9.941   4.887  0.1798  0.0076 -0.0999
13878W        W30352   1.224   7.727  11.230  0.1115 -0.2260  0.1995
13879W        W30353  10.862   6.852   1.063 -0.1817 -0.4023  0.0154
13880W        W30354   5.358  15.171  13.287  0.0405 -0.1797 -0.0863
13881W        W30355  16.492  12.492   2.841 -0.1379 -0.0637 -0.1040
13882W        W30356   1.230   1.999   1.167 -0.0960  0.2034 -0.0611
13883W        W30357  10.199  12.342   0.887  0.0744 -0.3407  0.2509
13884W        W30358   3.397   4.639   0.222  0.0139 -0.1655 -0.3392
13885W        W30359   2.452   9.040  15.431  0.1467  0.0808  0.3745
13886W        W30360  15.791   5.479  14.888  0.0525 -0.0611 -0.1244
13887W        W30361   8.625   6.525   3.871  0.2487 -0.0190 -0.1110
13888W        W30362   5.200  17.056   3.519 -0.2409  0.1470  0.1385
13889W        W30363  11.138  15.563   5.325  0.0437 -0.1851 -0.1063
13890W        W30364  14.846   0.925  10.816  0.0265 -0.0594 -0.1347
13891W        W30365   7.583   1.829   1.002 -0.2748 -0.1396 -0.1883
13892W        W30366   0.009   8.811  12.304 -0.0466 -0.4401  0.0433
13893W        W30367  10.003   0.276  15.805  0.0508  0.0367 -0.2181
13894W        W30368   8.178  15.157   3.097 -0.0972  0.3557 -0.2338
13895W        W30369   4.330   8.287  10.906 -0.0108 -0.1800 -0.0701
13896W        W30370  11.936  11.281  13.328 -0.0624  0.0905 -0.1986
13897W        W30371  16.449   9.997   1.731 -0.0189 -0.1744  0.1884
13898W        W30372   1.868   6.149  15.440  0.1214  0.0857 -0.0998
13899W        W30373  14.646  15.663   4.985 -0.1292  0.1349 -0.1823
13900W        W30374  12.028  17.004   4.423  0.0271 -0.1530  0.2366
13901W        W30375  16.317   7.219   1.216  0.0324 -0.0450  0.2133
13902W        W30376  16.207   2.490   1.003  0.2038 -0.1706 -0.0245
13903W        W30377  10.641  16.438  10.200 -0.0993  0.3378  0.3153
13904W        W30378   8.004  10.318   2.312  0.2539 -0.0003  0.1879
13905W        W30379  18.017  17.222  13.900  0.2620  0.0947 -0.0981
13906W        W30380   0.313   4.260   3.284  0.1787  0.2740  0.2777
13907W        W30381   4.128  16.887   1.944  0.0546 -0.0688 -0.1096
13908W        W30382   7.300   4.673   1.334  0.1377 -0.4808  0.0424
13909W        W30383   6.150  10.233  13.108 -0.1922 -0.0069  0.0887
13910W        W30384  15.098   0.735   1.695  0.0547  0.0451 -0.0724
13911W        W30385   7.354  17.488   3.503  0.1034 -0.0727 -0.0812
13912W        W30386  11.418   2.826   0.792 -0.0688 -0.0648 -0.0167
13913W        W30387  10.287  13.720   0.147 -0.1092  0.0368 -0.1053
13914W        W30388   5.174  15.850  11.634  0.3639 -0.0633  0.0450
13915W        W30389   7.111  16.967  15.841 -0.4257  0.0219 -0.1540
13916W        W30390  14.010   4.579  11.581  0.0865  0.0673  0.4388
13917W        W30391  10.990  10.093   0.253  0.2063  0.0298  0.1187
13918W        W30392   8.877   5.279   5.577  0.2905 -0.0200 -0.3819
13919W        W30393   7.433   5.528   4.146  0.1797 -0.0599 -0.3082
13920W        W30394  12.062   0.156   1.725 -0.1702  0.2432 -0.0201
13921W        W30395  14.975  17.604  13.552  0.1091  0.1825  0.2856
13922W        W30396   2.227   3.648   1.142 -0.2140  0.0176 -0.0435
13923W        W30397   4.261  10.295  12.888  0.5062  0.3421 -0.2826
13924W        W30398   2.405  13.639  11.509  0.4203 -0.0597 -0.0544
13925W        W30399  13.356  17.912  16.175 -0.0468 -0.1363 -0.0105
13926W        W30400  16.608  15.360   2.996 -0.3622 -0.3036 -0.0417
13927W        W30401   7.892   5.842  15.232 -0.1645  0.1845 -0.0588
13928W        W30402  17.156   0.691  13.708 -0.2063 -0.3407 -0.0900
13929W        W30403   0.813   2.037   3.119 -0.0476 -0.2383  0.1258
13930W        W30404   4.763   9.819  13.590 -0.2352 -0.1182 -0.2822
13931W        W30405   6.527   1.751   4.346  0.1045 -0.1215 -0.2577
13932W        W30406  10.650  16.944   4.613  0.0352 -0.2059  0.0086
13933W        W30407  15.808   2.916   0.512 -0.0217 -0.0272  0.2910
13934W        W30408  10.626  13.703  10.768 -0.1103  0.0592 -0.2210
13935W        W30409  16.857   7.842   1.437  0.1836  0.0892 -0.0660
13936W        W30410   1.999  11.730  14.505  0.0974  0.1947 -0.0092
13937W        W30411  16.933  17.263  11.866 -0.0777  0.1210 -0.0078
13938W        W30412  13.799  13.440   3.212 -0.2328  0.0775 -0.0048
13939W        W30413   1.912  13.650  13.425  0.4473  0.0322  0.3019
13940W        W30414   1.811   3.173  13.361  0.0536 -0.1268  0.2344
13941W        W30415   0.394   7.795   2.123 -0.0952  0.1691  0.1711
13942W        W30416  10.702   3.439  13.872  0.1417 -0.0731  0.0760
13943W        W30417   8.565   6.679  14.889 -0.0199  0.2033  0.0538
13944W        W30418  17.491   0.999  13.299 -0.1614 -0.0867 -0.1835
13945W        W30419   2.436  16.108  12.222  0.1685 -0.0524  0.0505
13946W        W30420   3.629   6.913   3.783 -0.1012 -0.1843 -0.3282
13947W        W30421   7.651   6.461   2.529 -0.1650 -0.2293  0.1055
13948W        W30422   3.768   7.423  14.073  0.3132  0.0847  0.0691
13949W        W30423  10.443   2.699   0.830  0.1212 -0.0887  0.4391
13950W        W30424   1.209   7.924  14.083 -0.0773  0.1036  0.1108
13951W        W30425  15.678  11.996   3.269  0.1947 -0.0815 -0.0873
13952W        W30426   5.698   7.151   1.353 -0.0434  0.0217 -0.2587
13953W        W30427   6.956  10.425   4.514 -0.0184 -0.0132  0.2117
13954W        W30428  14.687  17.463  11.604  0.3932 -0.2787  0.1500
13955W        W30429  17.665  18.039  14.678 -0.0381 -0.0702 -0.1762
13956W        W30430   0.803   8.823   2.614  0.1091  0.1023  0.0997
13957W        W30431  11.190  11.521   4.260  0.1039  0.0429 -0.1274
13958W        W30432   0.788   8.759   3.117  0.1758 -0.0842 -0.1770
13959W        W30433   0.814   7.138  13.394  0.1861 -0.0421 -0.3082
13960W        W30434   5.733   9.777  15.115 -0.0254 -0.1999 -0.1200
13961W        W30435  12.575   0.202  12.282  0.2140 -0.1936  0.0207
13962W        W30436   0.814   5.144   0.345 -0.1751  0.0794  0.1003
13963W        W30437   0.420   7.017  11.995  0.0947  0.0806  0.2435
13964W        W30438   7.860   4.238   5.368  0.0724  0.2639 -0.0482
13965W        W30439   0.526  14.484   4.389 -0.1671 -0.2406 -0.0534
13966W        W30440  13.800   4.218  11.951  0.0820  0.3061 -0.1180
13967W        W30441  12.774  15.444   1.368 -0.4384  0.0188  0.1422
13968W        W30442   8.279   1.378  13.150  0.0688 -0.0408 -0.1401
13969W        W30443   0.814   6.408  12.081  0.4066 -0.1022 -0.0814
13970W        W30444  12.360   6.259  12.246  0.0337  0.1460  0.0973
13971W        W30445  15.301  16.272   0.514 -0.5286 -0.0735 -0.0628
13972W        W30446  16.508  10.876  11.813  0.1356 -0.2648 -0.1846
13973W        W30447  18.072   2.316   4.556  0.0589  0.0891  0.0379
13974W        W30448   6.233   2.255   5.760 -0.2471  0.3388  0.1419
13975W        W30449  13.282   0.504   3.979 -0.0917 -0.0905 -0.1204
13976W        W30450  16.580   5.965   0.185 -0.1246 -0.0750 -0.1120
13977W        W30451  15.606  10.795   2.667  0.1079  0.3521  0.0264
13978W        W30452   8.794  11.456  12.314 -0.0845 -0.0093 -0.0166
13979W        W30453  10.296   1.271  12.946  0.3888 -0.0571 -0.0459
13980W        W30454  11.177  11.374  15.823  0.1843  0.1057 -0.0975
13981W        W30455  17.962   3.820   5.065  0.4048  0.0388 -0.0203
13982W        W30456  11.565  17.379  10.381 -0.0757  0.0256 -0.0813
13983W        W30457  11.748   2.512   3.713  0.0424  0.1795 -0.2702
13984W        W30458  11.673   5.103   5.146  0.2356 -0.0712 -0.0606
13985W        W30459   9.350   3.073  12.932  0.0394 -0.1915  0.1946
13986W        W30460  14.789   8.990   2.244 -0.1160  0.0153  0.1082
13987W        W30461  16.749   2.859   0.530 -0.1402 -0.0415 -0.1646
13988W        W30462   9.344   0.588  15.034 -0.1815  0.0860  0.1721
13989W        W30463  15.140   9.232  13.695  0.1458 -0.1904  0.2164
13990W        W30464   2.410  15.177   3.977 -0.1785 -0.0965  0.2735
13991W        W30465  16.472  12.387  14.276 -0.0044 -0.0483  0.0818
13992W        W30466   2.972   8.216   3.929 -0.1630  0.1071  0.0856
13993W        W30467   9.191   1.422   5.031 -0.0377 -0.1691  0.1087
13994W        W30468  11.901  16.445   1.224  0.0409  0.0392 -0.0579
13995W        W30469  10.737  14.892  13.319 -0.2694 -0.1167  0.0538
13996W        W30470   5.154  10.875  15.298  0.2855 -0.2797  0.2554
13997W        W30471   1.923   5.759  13.505 -0.0596 -0.1351  0.2623
13998W        W30472   3.382   2.640   3.629 -0.2263 -0.4900 -0.0262
13999W        W30473   6.707  10.402  14.835  0.1286 -0.1611 -0.2250
14000W        W30474   2.385   4.153  16.175 -0.1827 -0.0248  0.1055
14001W        W30475   7.812   5.149   3.457 -0.2329  0.2030 -0.0759
14002W        W30476   0.933  14.508  13.870  0.1032  0.1388 -0.2910
14003W        W30477  15.912   7.875  12.360 -0.0403  0.1691 -0.1667
14004W        W30478  14.545  12.243  13.472  0.2874 -0.0241  0.0566
14005W        W30479   7.802   4.533   2.103 -0.0448 -0.0551 -0.1369
14006W        W30480   9.763   3.280   4.228  0.1353 -0.2494 -0.2871
14007W        W30481   0.438   6.672  15.818 -0.1688 -0.4284 -0.0367
14008W        W30482   8.586  14.675  15.878 -0.0895  0.1314 -0.1020
14009W        W30483  10.850  12.555  14.389  0.1253 -0.2568  0.0258
14010W        W30484  13.232   0.035  14.546 -0.0467  0.2276 -0.1232
14011W        W30485   8.921  16.990   4.931 -0.1061  0.1736 -0.1371
14012W        W30486  17.497  15.086   6.194  0.2196  0.0574 -0.0419
14013W        W30487   9.266  14.033  12.319 -0.3393  0.2755  0.1322
14014W        W30488  13.599   8.199   3.703  0.1466 -0.0309  0.0647
14015W        W30489  10.288   6.536   2.333  0.0500  0.1860 -0.1720
14016W        W30490  12.517  17.539  15.003 -0.0589  0.1477  0.0002
14017W        W30491   7.285   7.684   2.130 -0.1705  0.2390 -0.1521
14018W        W30492   5.781  12.987  14.502  0.1000  0.0084 -0.0195
14019W        W30493   9.646   4.386  11.731 -0.1297 -0.1008 -0.0171
14020W        W30494  15.584   0.758   1.449 -0.3452 -0.0026 -0.2219
14021W        W30495  10.282   3.055   0.521 -0.2033  0.2800 -0.0925
14022W        W30496   2.087   9.766   5.853 -0.3198 -0.2141  0.0305
14023W        W30497   8.085   7.908  16.012 -0.0180 -0.1636  0.0870
14024W        W30498  13.115   5.624  14.230 -0.1203  0.1597  0.1600
14025W        W30499   3.238   7.808   4.075  0.1339 -0.2722 -0.1582
14026W        W30500  11.905   6.618   1.045  0.0468  0.2810 -0.3447
14027W        W30501  11.705   6.887  16.067 -0.0700 -0.0906  0.2352
14028W        W30502   6.835   9.373   1.812  0.0466 -0.0032 -0.2028
14029W        W30503   2.263   2.293  14.028 -0.2595  0.1144  0.0910
14030W        W30504  17.453   1.562   3.757  0.0498  0.1377  0.3605
14031W        W30505   5.935  13.354  11.707 -0.1301  0.3144  0.1660
14032W        W30506  16.071   4.295  13.690 -0.1918 -0.0229 -0.0824
14033W        W30507   1.624  17.751   2.987  0.1959 -0.0570 -0.0567
14034W        W30508  11.229   3.289   3.591 -0.1647 -0.3192  0.2573
14035W        W30509   0.922   5.548  12.047  0.1296  0.2069 -0.1563
14036W        W30510   9.680   9.073  14.904  0.0005  0.2809  0.0356
14037W        W30511   9.525  14.878   3.040  0.0576 -0.3003 -0.2710
14038W        W30512  14.367  12.294  14.840  0.1279 -0.2371 -0.0750
14039W        W30513  10.523   8.570  15.711 -0.0320 -0.1018 -0.0169
14040W        W30514   1.266   1.190   1.471  0.0142 -0.2249 -0.0517
14041W        W30515  16.616  13.617  12.579 -0.0786 -0.1701  0.2773
14042W        W30516   3.365   0.958  11.325 -0.2487  0.0116 -0.2317
14043W        W30517   7.325   7.584   0.753  0.0840  0.1333  0.0145
14044W        W30518  16.330   7.650  14.966 -0.2129 -0.2410 -0.0826
14045W        W30519  16.358  15.979  14.419  0.0208 -0.1097 -0.0794
14046W        W30520  13.136   9.298   4.780 -0.0276 -0.0572  0.2210
14047W        W30521   1.239  11.959  12.883 -0.0349 -0.0279 -0.0812
14048W        W30522   2.974  10.419   1.394  0.1405  0.0277 -0.0671
14049W        W30523  15.878   7.425   1.729  0.1375  0.1956 -0.4254
14050W        W30524   4.007   8.909  10.237  0.0451  0.0452  0.0655
14051W        W30525   8.140  17.948   1.381 -0.3255 -0.2411  0.2844
14052W        W30526   2.336   7.925   5.790  0.2490 -0.1991  0.0696
14053W        W30527  13.697   7.596   2.777  0.0976 -0.0035 -0.3322
14054W        W30528   5.398   9.719   3.489 -0.0023 -0.2412  0.0832
14055W        W30529  17.144   9.422   4.606 -0.2460 -0.0510  0.2291
14056W        W30530   7.653  14.823  14.303  0.0182  0.0686  0.0016
14057W        W30531   5.422  15.805   3.161 -0.0694 -0.2697 -0.0860
14058W        W30532  16.690  13.734   3.887  0.1101  0.1042  0.1307
14059W        W30533   7.728  14.063   2.058  0.2285 -0.1936  0.2873
14060W        W30534  11.542  14.114  14.653 -0.1003  0.1272  0.2760
14061W        W30535   2.304  16.582  11.482 -0.1825 -0.2291  0.0666
14062W        W30536  13.582   0.912  14.274 -0.0068 -0.1649  0.1877
14063W        W30537   4.169   8.862  12.661 -0.1701 -0.1872  0.0123
14064W        W30538   2.094  10.335   0.825  0.0260 -0.1696 -0.1731
14065W        W30539   7.897  15.239  16.192  0.0601 -0.0004  0.1351
14066W        W30540   9.950  15.643  11.823  0.0189  0.0122 -0.0892
14067W        W30541   7.532   6.095  12.739  0.2035 -0.0240 -0.0336
14068W        W30542   6.519   6.997   0.488 -0.2521 -0.0822  0.0822
14069W        W30543   5.566  17.051  15.326 -0.1682 -0.1124 -0.0312
14070W        W30544  17.581   4.590   1.586  0.0986 -0.3113 -0.1165
14071W        W30545   9.916   9.862  14.486  0.1304 -0.2409  0.1687
14072W        W30546  11.936   9.692  14.845 -0.0242 -0.3240 -0.1353
14073W        W30547   1.276   5.493   1.871 -0.2046 -0.2399 -0.0747
14074W        W30548   4.861   5.574   5.067  0.1435  0.1391 -0.1235
14075W        W30549   4.199  15.523  14.973  0.1724  0.2897 -0.2542
14076W        W30550   1.323  11.154  12.142  0.2374  0.1003  0.0114
14077W        W30551  17.935  17.120  13.260  0.0996 -0.2874 -0.2171
14078W        W30552  13.851  14.595   0.949 -0.0847 -0.0697  0.0199
14079W        W30553  10.874   3.946   2.859 -0.1315 -0.3410 -0.1026
14080W        W30554   7.845  10.776   0.101 -0.0661 -0.0469 -0.2763
14081W        W30555   3.265   0.521  11.081  0.1225 -0.3193  0.0160
14082W        W30556   7.658  16.991  12.345 -0.3302  0.1962 -0.1327
14083W        W30557  13.799  12.696  13.093 -0.0733  0.2361  0.0832
14084W        W30558   2.163  11.892  12.746  0.3171 -0.0683  0.2051
14085W        W30559   3.863   2.941  12.315 -0.0151  0.2169  0.1453
14086W        W30560  11.327  10.414   2.865 -0.1584  0.0439 -0.0813
14087W        W30561   4.499  13.864   2.233  0.0263  0.1841 -0.1289
14088W        W30562  18.039   2.705  14.359  0.1141 -0.0148 -0.0755
14089W        W30563  14.879  15.147   1.861 -0.1443 -0.0664 -0.4124
14090W        W30564   9.830   1.450  16.107 -0.1106 -0.1336  0.1169
14091W        W30565   0.399   7.066   2.653  0.1688  0.1013  0.0590
14092W        W30566   3.320  13.143  11.286  0.0473  0.0409 -0.4240
14093W        W30567   5.868  10.889   5.137 -0.4287  0.0438 -0.0955
14094W        W30568  13.835   5.794   3.003 -0.0141  0.0118 -0.1385
14095W        W30569  12.068  15.610  15.277  0.0573 -0.4662 -0.1548
14096W        W30570   1.850  11.261   4.356  0.1119 -0.0724  0.0665
14097W        W30571   6.111   9.271   4.825 -0.0763 -0.0610  0.1294
14098W        W30572   5.701   4.978   0.787 -0.3139  0.2244  0.0371
14099W        W30573   7.345  13.849  12.016 -0.1164  0.1463 -0.3240
14100W        W30574  12.280  17.184  14.442  0.0128 -0.1462 -0.0852
14101W        W30575  14.662  13.060   2.965 -0.1021 -0.2972 -0.1049
14102W        W30576   4.923  16.665   1.674  0.0752 -0.0868 -0.0095
14103W        W30577   9.540   1.944   5.688 -0.2352 -0.0969  0.3069
14104W        W30578  15.162  13.028   5.813 -0.0401 -0.0877  0.0229
14105W        W30579  16.308   4.331   3.460 -0.1740 -0.0517  0.2679
14106W        W30580  11.555   6.126   2.277  0.1680  0.3449 -0.2365
14107W        W30581   0.804  17.379   0.138 -0.0191  0.1205 -0.1023
14108W        W30582   8.124   8.919   3.103  0.2616 -0.0574 -0.1412
14109W        W30583  15.369  10.528   5.108 -0.0545  0.1817 -0.0575
14110W        W30584  15.456   6.797  13.793  0.0959  0.2108  0.3087
14111W        W30585  16.759   6.281   2.273  0.0505  0.0581 -0.1299
14112W        W30586   4.158   6.431  10.315  0.1307 -0.2034  0.0064
14113W        W30587  14.159   0.436   4.500 -0.0379 -0.1160  0.1724
14114W        W30588  16.475   2.464   3.486  0.0577 -0.3217 -0.0334
14115W        W30589   0.766  17.602  12.066 -0.1380 -0.1943 -0.1348
14116W        W30590   9.398  14.180  13.959  0.0653  0.1084 -0.1216
14117W        W30591  12.126  11.730   3.198 -0.2323 -0.0613 -0.2375
14118W        W30592  15.528   3.735  14.977 -0.3145 -0.0742  0.1371
14119W        W30593   9.326  17.310  15.761  0.3768 -0.0736 -0.1080
14120W        W30594  13.346   1.308  14.344  0.0076 -0.2298 -0.1414
14121W        W30595   8.547   0.096  14.160  0.0676 -0.0679 -0.2132
14122W        W30596   2.040   5.336   4.480 -0.1749  0.1021  0.1569
14123W        W30597   5.763  15.402  13.125  0.2249  0.0124  0.0394
14124W        W30598  12.022   5.628  11.576 -0.0331 -0.3198 -0.0982
14125W        W30599  13.896  17.258  14.906 -0.2355 -0.3059 -0.0214
14126W        W30600   8.757   6.987   4.600  0.4299 -0.0906 -0.0668
14127W        W30601  17.625  17.542   2.224  0.0512 -0.0715 -0.1862
14128W        W30602   1.915  15.957  13.470  0.0794  0.0556 -0.0736
14129W        W30603  16.054   9.794  12.465  0.0282  0.0948  0.1354
14130W        W30604  18.015   4.216   4.361  0.0450 -0.0436 -0.0949
14131W        W30605   8.125   4.989  14.246 -0.2034 -0.1179 -0.2697
14132W        W30606   4.108  16.501  12.691  0.3248 -0.2015 -0.2068
14133W        W30607  13.556  11.963   0.206 -0.1921  0.2933  0.0401
14134W        W30608   5.227   4.173   0.181 -0.1031  0.1692 -0.0213
14135W        W30609  17.241  10.649  12.524  0.1713 -0.2721  0.3920
14136W        W30610  16.524   4.072   2.230  0.1887  0.1352 -0.0974
14137W        W30611  10.087   4.431   1.878  0.1591  0.1648 -0.0951
14138W        W30612  16.382  12.841  12.986 -0.1359 -0.1665 -0.0698
14139W        W30613  10.494  15.404   1.719 -0.2722 -0.0078  0.0602
14140W        W30614   2.921   2.568  12.977  0.0765 -0.0746  0.0812
14141W        W30615  12.914   2.757   2.901 -0.1246 -0.0353 -0.0613
14142W        W30616   9.457   8.726   2.002 -0.0399 -0.1632 -0.0766
14143W        W30617   1.116  17.576   3.190  0.2468 -0.0320  0.3510
14144W        W30618  15.992  12.603   2.924  0.0146  0.1853  0.0974
14145W        W30619   4.315  16.475   1.015 -0.0218 -0.1951 -0.1483
14146W        W30620   1.210  11.842  15.653 -0.2727  0.0062 -0.0704
14147W        W30621   5.050   2.383   4.449  0.3703  0.3095  0.0008
14148W        W30622   6.584   1.432  16.334 -0.0382 -0.1083 -0.0311
14149W        W30623   8.432   9.262  14.872 -0.0033  0.0622 -0.0622
14150W        W30624   6.037  12.324   0.475 -0.3457  0.3083 -0.1850
14151W        W30625   8.666  16.921  15.247 -0.4104 -0.0275 -0.0991
14152W        W30626   6.644  15.693  16.330 -0.0170 -0.0630 -0.2355
14153W        W30627  11.579  11.939  15.440 -0.3741 -0.2628  0.2665
14154W        W30628  14.277  14.732  12.670 -0.0711 -0.2194 -0.0121
14155W        W30629   6.638   8.360   0.748 -0.2353 -0.0535 -0.0880
14156W        W30630   3.192   4.374  16.091 -0.0946  0.2507  0.1000
14157W        W30631  17.151   5.936   3.684 -0.0305 -0.0628  0.2919
14158W        W30632  11.712   5.104  14.479  0.1418 -0.1495  0.2114
14159W        W30633  13.918   8.483  14.898  0.1780  0.0371  0.0532
14160W        W30634  10.130   5.016   3.349  0.2768  0.3031 -0.2623
14161W        W30635   5.187  11.023  13.838 -0.0450 -0.1228 -0.2695
14162W        W30636   9.187   3.121   4.930 -0.1791  0.0660 -0.1968
14163W        W30637  10.180   4.203   5.436  0.0895  0.2908  0.1810
14164W        W30638   9.603   2.374  10.317  0.1032 -0.0756  0.2776
14165W        W30639  10.251  16.590  15.726  0.3158  0.0690 -0.1735
14166W        W30640  14.612  14.016  16.219  0.1513 -0.0988  0.2553
14167W        W30641   2.163   7.147   1.520  0.1822 -0.0530 -0.0006
14168W        W30642   8.403  13.134   3.070  0.0774 -0.1464 -0.0025
14169W        W30643  17.098   0.225  15.067 -0.1244 -0.0549  0.1166
14170W        W30644   8.271   3.233  15.383  0.0371 -0.1221 -0.0402
14171W        W30645   4.646   7.994   3.559  0.2004 -0.1704 -0.1856
14172W        W30646   2.554  12.927  14.993  0.0318 -0.1411 -0.3224
14173W        W30647   2.489  15.315   1.870 -0.0730 -0.0249 -0.0034
14174W        W30648   6.192   6.582   3.894  0.1462  0.0521 -0.0587
14175W        W30649   4.174   9.666   1.574 -0.0384 -0.1429 -0.3479
14176W        W30650  10.285  11.954  12.178  0.0291 -0.0537  0.1728
14177W        W30651   5.160   9.411  15.876  0.2966 -0.3675  0.1103
14178W        W30652   8.564   3.160   3.876 -0.2323  0.0937  0.1021
14179W        W30653  14.389   5.746  12.882  0.3629 -0.1361 -0.4421
14180W        W30654   4.479  15.495   1.041 -0.2235  0.2511 -0.1149
14181W        W30655  11.444   1.068  15.066  0.3552  0.2687 -0.1075
14182W        W30656   5.174  13.674  14.335  0.0278  0.0327 -0.1577
14183W        W30657  10.829  12.004   2.067 -0.1992 -0.2077 -0.1345
14184W        W30658   4.861   7.326   5.324 -0.0332 -0.0008 -0.0454
14185W        W30659   6.140   7.600   5.112 -0.0672 -0.0079  0.0911
14186W        W30660   5.474  11.282   1.888 -0.0716 -0.2824  0.0681
14187W        W30661   7.833  13.102   1.173 -0.1306  0.1743 -0.0537
14188W        W30662   3.328   6.828   0.059 -0.0820 -0.1726 -0.1072
14189W        W30663  13.664   3.185  14.754  0.2900  0.1699  0.0333
14190W        W30664  12.068  16.685   3.770 -0.2442 -0.0746  0.2017
14191W        W30665   5.392  13.859   6.039 -0.2185  0.1539  0.2991
14192W        W30666  12.283   8.144  15.296  0.2450  0.2195  0.3109
14193W        W30667   9.458   8.079  15.579  0.0083 -0.1880 -0.0393
14194W        W30668   1.973   3.628  13.620 -0.1138 -0.3640 -0.0609
14195W        W30669   2.241  11.981  13.469 -0.1560 -0.0260 -0.0894
14196W        W30670   0.772   8.930   0.835 -0.0580 -0.0020  0.1848
14197W        W30671   7.658  14.918   1.266 -0.1315  0.0274  0.0119
14198W        W30672   1.297   0.784   5.506  0.0423  0.0616  0.3014
14199W        W30673   0.227   1.986   4.318  0.0994  0.1921  0.2029
14200W        W30674   8.610  11.522   4.385 -0.2181 -0.2007 -0.0905
14201W        W30675   3.480   8.974   3.572  0.1009  0.2903 -0.0913
14202W        W30676   6.553   1.582  12.248 -0.2000 -0.2696 -0.0150
14203W        W30677   0.494  12.903  14.237  0.2281  0.2193 -0.1170
14204W        W30678   6.804   2.175   1.410  0.0122 -0.4382  0.0151
14205W        W30679  17.078  13.000  13.803  0.0471  0.0284  0.0417
14206W        W30680   7.218   5.405   5.024  0.3036 -0.0067  0.0276
14207W        W30681   7.034   7.125  11.865  0.1654 -0.1531 -0.0800
14208W        W30682   4.336   0.262   1.827  0.0267 -0.4010  0.3426
14209W        W30683  11.190   6.832  12.931 -0.2032  0.1664  0.1751
14210W        W30684   4.591   2.304   0.676  0.0982 -0.2976 -0.0858
14211W        W30685   8.903   4.322   5.367 -0.2531 -0.1868 -0.0761
14212W        W30686   0.007  13.375  14.315  0.1926 -0.0735 -0.0798
14213W        W30687   8.469  11.355  13.596 -0.2256 -0.1338 -0.1243
14214W        W30688   2.987   5.662  16.072  0.1239 -0.1354 -0.1469
14215W        W30689  15.721   6.276   5.151 -0.1225  0.2431 -0.1613
14216W        W30690  18.018   7.753  15.009  0.2988 -0.0668 -0.0210
14217W        W30691  12.193  16.876  11.519 -0.4225  0.0033 -0.1492
14218W        W30692   2.022  12.354  12.559 -0.0143 -0.0248 -0.2435
14219W        W30693   6.406  13.301  11.446 -0.1437 -0.0517  0.0102
14220W        W30694   2.012  17.658   4.826  0.0353  0.2202  0.0295
14221W        W30695  12.859   9.578  13.287 -0.0818  0.1452 -0.3195
14222W        W30696  17.204  17.461   5.335 -0.4588 -0.1218 -0.2061
14223W        W30697   3.143   8.324   1.404  0.0527 -0.2862 -0.2428
14224W        W30698   2.676   3.628   2.982  0.1713 -0.2701 -0.0383
14225W        W30699   3.646   3.268  14.060  0.0775  0.1467  0.3420
14226W        W30700  11.784   2.906   3.088  0.3067  0.0452 -0.1316
14227W        W30701  14.362   3.907   0.505 -0.3056  0.2118 -0.3486
14228W        W30702  17.651   4.004   0.756 -0.2446 -0.2119 -0.0485
14229W        W30703   3.949   6.028   3.537 -0.2404 -0.3684  0.0605
14230W        W30704  12.728   1.516   1.671  0.0316  0.2215  0.3303
14231W        W30705   2.763  13.680   4.739  0.0933 -0.0809  0.1954
14232W        W30706   7.176  12.649   1.097 -0.2012  0.0696  0.0604
14233W        W30707  11.443   9.630   2.010 -0.0999  0.0107  0.1617
14234W        W30708   5.277  16.673   4.948 -0.1192  0.1362  0.0720
14235W        W30709   7.582   5.779   5.157 -0.1062 -0.4064 -0.3833
14236W        W30710  17.997  11.922   1.635 -0.0320  0.0426 -0.1347
14237W        W30711   6.790   3.878  15.586  0.0454 -0.3217  0.1619
14238W        W30712   2.292  10.996  14.230  0.0214  0.0035  0.0177
14239W        W30713  12.344   3.955   5.013  0.0762 -0.3588 -0.0376
14240W        W30714   5.344  17.406   1.198  0.2783  0.0632  0.0724
14241W        W30715   2.600  12.446  13.317 -0.0475  0.2068 -0.0458
14242W        W30716   6.175  10.522   5.004  0.1898  0.0778  0.0635
14243W        W30717  14.171   7.006   1.052 -0.1446  0.1046 -0.0299
14244W        W30718  13.282  17.041  13.793  0.0981 -0.2037  0.0284
14245W        W30719  15.458  11.251  13.203 -0.2931 -0.3449  0.0665
14246W        W30720   7.112  17.528   5.733 -0.1837 -0.1023 -0.2623
14247W        W30721  17.565   6.609  14.429  0.4944  0.3025 -0.2240
14248W        W30722   7.051  11.106  13.822  0.2040 -0.0986  0.0664
14249W        W30723   3.236  18.002   3.472  0.1035 -0.0044  0.1383
14250W        W30724  10.668   8.789   4.028 -0.2150 -0.1588 -0.1363
14251W        W30725  15.775  10.142  14.315 -0.0336 -0.2311  0.0381
14252W        W30726  12.861  15.075  12.978  0.3093 -0.0388 -0.0975
14253W        W30727  16.128  10.062  12.051 -0.0451  0.0682 -0.2061
14254W        W30728   2.215   8.502  11.527  0.2568 -0.0413  0.0702
14255W        W30729  11.753  17.784  11.382  0.0225  0.0741  0.1516
14256W        W30730   3.291  13.398   2.765  0.0217  0.1768  0.2129
14257W        W30731  17.782   8.003  11.231  0.0543 -0.0235  0.0182
14258W        W30732   7.481  17.721  12.996  0.0528 -0.0152 -0.0434
14259W        W30733   4.485   7.517  12.899  0.0228 -0.0080  0.2339
14260W        W30734   2.849   2.492  13.974 -0.0976 -0.1765 -0.0836
14261W        W30735  13.925  10.115   2.842  0.1029  0.0253  0.0399
14262W        W30736   1.464   7.263  12.400  0.1220 -0.1004  0.0502
14263W        W30737  16.981  15.979   3.026  0.0266  0.1126 -0.0583
14264W        W30738  15.505  10.070  14.732 -0.1024  0.3321 -0.1148
14265W        W30739   8.571   8.826   0.610 -0.0113  0.0156  0.1503
14266W        W30740   7.000  12.061   4.131 -0.2202  0.0532 -0.0080
14267W        W30741  14.404  17.184   1.839  0.2371  0.1293  0.0465
14268W        W30742   0.222  13.144   5.847 -0.0169  0.3457 -0.0595
14269W        W30743   2.623  12.682   4.955  0.2665 -0.2505  0.0615
14270W        W30744   9.920  14.108   4.807  0.0732 -0.0081 -0.0461
14271W        W30745   3.876   5.046   2.134  0.4020  0.2057 -0.0030
14272W        W30746  11.451  16.485   4.313  0.2176  0.1281 -0.2090
14273W        W30747  16.064  10.000  10.849  0.1135  0.0065 -0.3533
14274W        W30748  13.972  15.824   3.214  0.1412 -0.1847  0.2145
14275W        W30749   3.110   2.428   0.107  0.0474  0.4346  0.3098
14276W        W30750   0.095  14.518   0.264  0.2921 -0.0568 -0.3945
14277W        W30751   5.536  11.608   2.270 -0.2112 -0.0664  0.2236
14278W        W30752  15.505   9.536  13.346  0.3429  0.3351 -0.1441
14279W        W30753  17.523  13.145   5.369  0.2047  0.1129  0.2516
14280W        W30754  18.044   5.320   0.205  0.1671  0.2101 -0.0971
14281W        W30755   2.195   5.146   1.984  0.2318 -0.0859 -0.2640
14282W        W30756   4.738   7.689   3.959 -0.0783 -0.1830  0.3241
14283W        W30757  16.249   5.439  13.398  0.1017 -0.4263  0.4379
14284W        W30758  14.473   0.167   5.717  0.2842 -0.0641  0.1811
14285W        W30759   7.273  17.112  14.037  0.0916 -0.0185  0.0018
14286W        W30760   5.126  16.811  15.929  0.2312  0.0424  0.0496
14287W        W30761   4.121   3.842   2.773 -0.3354  0.0842  0.0541
14288W        W30762  16.126  13.227   0.130 -0.0421  0.1633 -0.3371
14289W        W30763  10.373   8.244  12.030 -0.0966 -0.1106  0.0942
14290W        W30764   0.546   0.265  13.986  0.2145  0.0164  0.1502
14291W        W30765  12.170  11.802   1.349  0.0691 -0.0222 -0.0542
14292W        W30766  14.732  13.510  12.938  0.2648  0.1400 -0.3722
14293W        W30767  13.649   0.320  10.624  0.0164  0.1178 -0.1337
14294W        W30768   0.722   1.292   0.042  0.2398 -0.2624 -0.1656
14295W        W30769   5.651  13.850  15.373  0.3047 -0.0727 -0.1552
14296W        W30770   7.564   1.451   0.174 -0.1038  0.1335 -0.1710
14297W        W30771  14.843  14.649   4.098  0.0333 -0.2928 -0.0360
14298W        W30772   9.878  15.536   2.763 -0.1413 -0.1387  0.2076
14299W        W30773  17.398   6.240  15.680  0.1417 -0.0658 -0.0437
14300W        W30774   5.853   7.143  15.330 -0.0644 -0.5282  0.0392
14301W        W30775   6.604   4.354  11.835  0.2338  0.0721  0.0556
14302W        W30776   1.961  15.814   1.164 -0.0729  0.0792  0.0286
14303W        W30777   2.627   8.963   1.891  0.0685 -0.1391 -0.0320
14304W        W30778  12.832  13.939  11.662  0.0258 -0.1701  0.0098
14305W        W30779   2.103   1.854   5.491 -0.3680  0.1058  0.0719
14306W        W30780  15.512   2.473   5.687 -0.2284 -0.0550  0.1808
14307W        W30781   3.236   1.854   4.091  0.1652  0.0095  0.0745
14308W        W30782   0.778   1.448  13.440 -0.0037  0.0860  0.0423
14309W        W30783   2.831  14.541  12.945 -0.2373  0.0777 -0.2018
14310W        W30784   1.812  16.833  12.029  0.1260 -0.0390  0.1187
14311W        W30785  14.400  13.913   0.463 -0.0747 -0.1656 -0.0537
14312W        W30786  13.156   9.179   1.482 -0.2091 -0.1795 -0.1524
14313W        W30787   4.408  12.444   3.364  0.0024  0.0553  0.0622
14314W        W30788  14.795  15.656   1.820  0.2091  0.2149  0.0355
14315W        W30789  13.221   9.285  12.012  0.3273  0.3598 -0.0193
14316W        W30790  17.361  12.792  12.325  0.1560  0.0285 -0.1659
14317W        W30791   5.320   6.444  13.110 -0.2622 -0.2520  0.2085
14318W        W30792  17.964   2.067   0.971  0.1912 -0.0851 -0.1040
14319W        W30793   2.986  11.440   6.012  0.1384  0.0652  0.4229
14320W        W30794   7.345  15.286  15.391  0.0860  0.2094 -0.0958
14321W        W30795  11.934   5.554  15.888  0.4736 -0.0698 -0.2661
14322W        W30796   0.970   8.555  13.204  0.1002  0.1903 -0.3683
14323W        W30797  10.657  13.530  14.497 -0.2320  0.0223  0.0169
14324W        W30798  12.336   6.993  11.091  0.4922  0.1045 -0.0669
14325W        W30799  16.022   9.614  14.123 -0.1277 -0.1324 -0.0730
14326W        W30800  14.249   7.464   4.244 -0.1112  0.0225 -0.0051
14327W        W30801  15.850  14.464  14.600  0.0020  0.1770 -0.1498
14328W        W30802  12.550   1.353  12.153 -0.0283 -0.1020  0.4326
14329W        W30803   2.873  14.799  13.888  0.4134  0.3061 -0.1565
14330W        W30804   3.644  13.045   2.925  0.3232  0.0132 -0.0527
14331W        W30805   7.297  14.289   2.197  0.0323  0.2962 -0.3106
14332W        W30806   7.260  11.311  12.655 -0.1165 -0.1485  0.0560
14333W        W30807  16.774  14.025   2.100 -0.0174 -0.1351 -0.2878
14334W        W30808  10.990  12.266   3.586 -0.2733 -0.2896 -0.0148
14335W        W30809  10.878  16.844  16.104  0.0187  0.1315 -0.0330
14336W        W30810   5.111   4.374   5.566 -0.0456 -0.4086 -0.0169
14337W        W30811   7.835  16.168  12.711  0.0215 -0.0761  0.0872
14338W        W30812   9.048  13.349  15.612  0.2499 -0.0963 -0.2891
14339W        W30813   9.306  10.317   4.106 -0.1402 -0.2916  0.0583
14340W        W30814   6.692   1.701   3.416 -0.1725 -0.2702 -0.3350
14341W        W30815   4.203  12.077   4.476 -0.2112 -0.1095  0.2320
14342W        W30816  13.040  12.827  14.708 -0.2496  0.0087 -0.1312
14343W        W30817   1.019   7.173   0.614 -0.4497 -0.4860 -0.0174
14344W        W30818  10.899   0.627   2.148  0.0905  0.3338 -0.0692
14345W        W30819  16.493  12.851  11.614 -0.3044 -0.1203  0.2954
14346W        W30820   0.634  16.823  11.894 -0.3573 -0.0364 -0.0392
14347W        W30821   2.414   9.997  13.354  0.2064  0.0329 -0.0339
14348W        W30822   0.693  16.919  14.678  0.1256  0.1240  0.1195
14349W        W30823   7.655   0.930  12.480 -0.2724 -0.2161 -0.3041
14350W        W30824  15.090   8.876  11.947 -0.0770 -0.0720  0.0319
14351W        W30825   7.348   1.848  11.403  0.0917 -0.1450  0.2630
14352W        W30826   8.617   6.741  13.895  0.3679 -0.2538 -0.2544
14353W        W30827  12.004   0.336   2.607  0.2281 -0.2016  0.0537
14354W        W30828   1.595  11.569  12.289 -0.0321 -0.1699  0.0491
14355W        W30829   9.178   4.618  15.628  0.1012 -0.1501 -0.0579
14356W        W30830  12.048   5.105  11.818 -0.2219 -0.2319 -0.0391
14357W        W30831  13.473  11.243  11.818  0.0510  0.0593  0.2708
14358W        W30832  11.897   0.791   3.963 -0.0317 -0.0108  0.0400
14359W        W30833   9.042   2.110   0.224  0.1859 -0.2363 -0.1957
14360W        W30834  15.638   4.667  11.466 -0.4667 -0.0885  0.2098
14361W        W30835  12.953   4.364  14.131  0.2916 -0.1402 -0.3782
14362W        W30836   5.711   9.921  11.709 -0.1174  0.0187  0.5055
14363W        W30837  13.831  18.043  16.237 -0.1187  0.0398 -0.0467
14364W        W30838   3.189  10.844  16.314  0.0396  0.1417 -0.3851
14365W        W30839   4.899  10.601   5.285  0.0628  0.0659  0.0160
14366W        W30840  14.044   5.266  13.914 -0.1333  0.2090  0.0677
14367W        W30841  15.370  10.791  16.043  0.0564  0.1011  0.2277
14368W        W30842  13.888  14.563  15.803  0.0456 -0.1275  0.0737
14369W        W30843  12.494   5.766   1.578  0.1450  0.1409  0.0001
14370W        W30844   6.772  17.258   5.365 -0.0400  0.0742  0.1042
14371W        W30845  14.328   8.811  13.295  0.2903  0.2132 -0.2642
14372W        W30846   8.517   7.350   1.599 -0.0764 -0.0161 -0.0459
14373W        W30847   0.710  17.732   5.374  0.2908  0.1621  0.4453
14374W        W30848   9.393  11.806  12.275  0.1088 -0.1040 -0.1090
14375W        W30849  10.699  13.648  12.358 -0.1574 -0.1243  0.0439
14376W        W30850   6.660  15.824  12.834 -0.2901  0.0260 -0.0599
14377W        W30851  11.219  11.129  15.337 -0.1528  0.4274 -0.0938
14378W        W30852   7.606   7.747   5.172  0.2607 -0.0829  0.1065
14379W        W30853   6.642   7.876   2.785  0.0959 -0.0108  0.1441
14380W        W30854   3.592   3.497  14.550 -0.1848  0.0860 -0.1537
14381W        W30855  15.285   0.367   6.131  0.0901 -0.0885 -0.0692
14382W        W30856  14.371  10.805  12.047  0.0371  0.2031  0.3230
14383W        W30857   7.923  16.961   0.570 -0.2257 -0.0733 -0.0881
14384W        W30858   9.365  10.455  13.820 -0.0708  0.1835  0.0209
14385W        W30859  16.249  17.322   2.402  0.2900 -0.0584  0.0668
14386W        W30860  11.146  15.177   5.674  0.1533  0.0150  0.2112
14387W        W30861   5.033  14.973   5.235  0.1231 -0.1822 -0.1073
14388W        W30862   0.441  18.159   3.700 -0.1938  0.4185 -0.1969
14389W        W30863   9.878  14.173  13.953 -0.0590  0.0303 -0.1175
14390W        W30864   0.500   3.641  13.201  0.2102 -0.0057 -0.0748
14391W        W30865  11.226   2.438  12.781 -0.0261 -0.0194  0.3502
14392W        W30866   2.889  13.087   4.907 -0.1410 -0.0073  0.2451
14393W        W30867   8.481   4.810   0.196 -0.1729  0.2036  0.0957
14394W        W30868   2.541  13.097  12.501  0.4681 -0.0517 -0.1412
14395W        W30869  15.165  15.735   4.880 -0.2750  0.1779 -0.1241
14396W        W30870  13.141  11.713   2.339 -0.1357 -0.0612 -0.4015
14397W        W30871   2.392   5.920   3.449 -0.0468 -0.0654  0.1965
14398W        W30872   1.759   6.643  15.377  0.0383 -0.0333 -0.1804
14399W        W30873   4.553  12.609  15.875 -0.5266  0.3659 -0.2401
14400W        W30874  15.765   8.985  15.695  0.1204 -0.0599 -0.1632
14401W        W30875   0.383  16.040  15.804  0.2498  0.0468  0.6797
14402W        W30876  15.676  12.555  15.890  0.0525  0.0829 -0.0780
14403W        W30877   7.329  15.159  11.682  0.1012 -0.2066 -0.0915
14404W        W30878  13.393   7.195   5.422  0.0599  0.1331  0.0533
14405W        W30879  14.244  15.026   2.362  0.2850 -0.0259 -0.1613
14406W        W30880  17.005  11.099   3.947 -0.3225  0.0969  0.2700
14407W        W30881   2.445  17.573  13.282 -0.1283  0.3865 -0.1848
14408W        W30882  15.422  11.842  13.980  0.2083  0.0488 -0.0478
14409W        W30883  17.566   3.776   0.351  0.0980  0.0794 -0.2772
14410W        W30884   2.849  11.854  15.845 -0.1490 -0.1256  0.3563
14411W        W30885   3.982   9.785  12.867  0.0010 -0.0467  0.0141
14412W        W30886   3.962   1.671  13.336 -0.0169  0.0479  0.1111
14413W        W30887   1.973   3.570  13.125  0.2865  0.0728 -0.2950
14414W        W30888   9.606   6.377  12.884 -0.0553  0.0484  0.2520
14415W        W30889   8.831   0.715  13.183 -0.4318 -0.0511  0.1301
14416W        W30890  14.487   3.088  14.879  0.2055  0.2593  0.0252
14417W        W30891  16.731   3.166  13.771 -0.3837 -0.2571  0.2935
14418W        W30892   0.187   5.218   6.063 -0.0792 -0.0208  0.0905
14419W        W30893  15.189  15.381   0.453  0.3946 -0.1503 -0.0626
14420W        W30894   9.938   3.477  15.580  0.0640  0.1260  0.0268
14421W        W30895  17.523   6.864   3.624  0.1806 -0.0206 -0.0013
14422W        W30896   7.795   5.216  12.710 -0.1105  0.2083  0.1304
14423W        W30897   4.856   7.595   3.350  0.2528 -0.1997 -0.0401
14424W        W30898   3.848  17.924   2.890  0.1434 -0.2693 -0.0660
14425W        W30899   6.900   0.749   5.435  0.1520 -0.4326 -0.2912
14426W        W30900  11.131  11.125   0.036  0.0166  0.1736 -0.2319
14427W        W30901   2.077  18.124   1.017  0.2099  0.2230  0.1862
14428W        W30902   3.758   6.869  15.532  0.0522 -0.1829  0.1347
14429W        W30903  16.372   0.475   3.942 -0.1529 -0.2078 -0.1204
14430W        W30904   8.209   4.350  13.419  0.1221  0.0033 -0.0161
14431W        W30905  13.979   5.255   5.327 -0.3127 -0.1249 -0.0945
14432W        W30906   2.554  14.251  14.764 -0.2780 -0.0265 -0.0113
14433W        W30907   3.541   4.758   4.896  0.2946 -0.0807  0.0945
14434W        W30908   5.243   1.369   0.130  0.0517 -0.0117 -0.1219
14435W        W30909  10.170   6.185   4.389  0.1546  0.3466 -0.1016
14436W        W30910   7.363  12.994   0.780 -0.2395 -0.0848 -0.1666
14437W        W30911  13.535   9.257   3.748  0.0395  0.1974 -0.0593
14438W        W30912  15.608  16.881   0.266  0.1501  0.0216 -0.1788
14439W        W30913   9.850  12.938   0.546  0.2241 -0.1855  0.0685
14440W        W30914  11.554  11.133  16.043  0.2359 -0.1110 -0.0142
14441W        W30915   0.209  18.177   6.048  0.4474 -0.2559 -0.1841
14442W        W30916   5.228   0.925   3.205  0.1027 -0.0841 -0.0601
14443W        W30917  15.303   1.979  12.455  0.1452  0.1780  0.1472
14444W        W30918   9.022  16.722  14.562  0.0654 -0.0887  0.2490
14445W        W30919   6.884   0.348   4.678 -0.1901 -0.2153  0.0956
14446W        W30920  13.019  15.186   2.012  0.1565 -0.0152 -0.0116
14447W        W30921   4.098  16.737   4.257  0.1679 -0.2061  0.0748
14448W        W30922  15.748   1.418   5.259  0.3226 -0.0429  0.2004
14449W        W30923   3.006   1.156  12.792 -0.2158 -0.0375  0.0041
14450W        W30924  12.635  16.109  14.469  0.0952  0.0143  0.2049
14451W        W30925  17.642   4.473   3.071 -0.1482  0.0107  0.0398
14452W        W30926   7.943   0.511   3.861  0.0590 -0.1803 -0.2483
14453W        W30927   9.326  12.930   2.464  0.0405 -0.1373  0.1489
14454W        W30928   4.653  10.639  11.217  0.3200  0.1365  0.1323
14455W        W30929  13.695   7.564  13.387 -0.0860 -0.1784  0.1932
14456W        W30930   8.914  16.091   0.559 -0.2291  0.1838  0.1870
14457W        W30931  16.566   4.268  11.965  0.0173 -0.2628  0.0328
14458W        W30932   6.999   6.666   6.145  0.3558 -0.1718 -0.2386
14459W        W30933   8.229   1.090  11.846 -0.4202  0.0502  0.0382
14460W        W30934   2.885   6.120   1.378  0.3029 -0.0536 -0.0831
14461W        W30935  17.021   3.010   0.093  0.0009  0.0214 -0.1324
14462W        W30936   7.952  17.139   2.862  0.0639  0.3261  0.3140
14463W        W30937   2.194   2.953   0.802  0.2183  0.0561  0.3501
14464W        W30938  16.076   7.341  12.254  0.2431  0.0418  0.0715
14465W        W30939  12.209   0.498   0.766 -0.0487  0.0994  0.1108
14466W        W30940  13.681   5.162   0.299 -0.1033 -0.0509 -0.1939
14467W        W30941   0.400  12.818  10.330  0.0391 -0.0850  0.0959
14468W        W30942   1.398  10.877  14.333  0.1968 -0.3875  0.2536
14469W        W30943  18.100  10.405   4.527 -0.0417  0.1914  0.1935
14470W        W30944   6.009  13.204   1.441 -0.2166  0.1037 -0.0123
14471W        W30945   7.450   9.819   4.975  0.1080 -0.0566  0.0448
14472W        W30946  10.540  10.755  11.883 -0.1321  0.0235  0.4308
14473W        W30947   1.077  14.385  14.384  0.2592  0.0992  0.1965
14474W        W30948   8.466   4.714   3.102  0.1922  0.0943 -0.2114
14475W        W30949   0.705   0.744   1.429  0.2316 -0.2245  0.0582
14476W        W30950   6.967   5.536   3.641 -0.0943 -0.2254 -0.1571
14477W        W30951   8.934  14.495  15.552 -0.2257 -0.0550  0.1820
14478W        W30952   3.352   1.571   4.427  0.0164 -0.0589 -0.2954
14479W        W30953  16.592  13.206  15.978 -0.1325 -0.0332 -0.2497
14480W        W30954   5.693  13.826   1.055 -0.0438  0.1739 -0.2494
14481W        W30955   0.954  12.513   5.239  0.1275 -0.0140  0.3330
14482W        W30956  17.495   8.956   4.601 -0.0119  0.0016 -0.1807
14483W        W30957   9.229  13.108   5.340  0.3932 -0.3460  0.3480
14484W        W30958   5.547   2.142  12.503  0.0262  0.1498  0.1981
14485W        W30959   8.818   9.980   5.332 -0.1668 -0.2349  0.2508
14486W        W30960  16.348  15.982   1.821 -0.4401 -0.2559 -0.0671
14487W        W30961  16.115  14.957   4.141  0.2379 -0.1737 -0.0976
14488W        W30962  10.623  13.362   0.245  0.1675 -0.0177 -0.0877
14489W        W30963  10.569   7.786   2.105 -0.1353 -0.0608 -0.0259
14490W        W30964  16.940   2.670  14.617  0.4450 -0.2891  0.1317
14491W        W30965  16.126   3.746  11.838 -0.3341 -0.1788 -0.0058
14492W        W30966   6.307   6.731   2.574 -0.1072 -0.0290  0.1587
14493W        W30967   4.945  10.828   1.217 -0.0554  0.2027  0.2678
14494W        W30968   7.953  14.944   0.338 -0.0571 -0.1553 -0.1937
14495W        W30969   7.181  17.884   0.095  0.1722  0.1075 -0.1962
14496W        W30970  15.836  11.423   0.809  0.1968  0.0595  0.0164
14497W        W30971  10.185   9.047  14.904 -0.1973 -0.1441  0.1212
14498W        W30972  13.030  11.472   0.836  0.2159 -0.0486 -0.1343
14499W        W30973   1.907  15.585  13.078 -0.0862  0.0852  0.5286
14500W        W30974  16.419  15.408   3.564 -0.2774  0.0990 -0.2807
14501W        W30975  10.094   5.467  15.238 -0.1157 -0.1336  0.0128
14502W        W30976   9.887   2.884   1.027  0.0375 -0.1283  0.3372
14503W        W30977  17.749   3.468  11.600 -0.0237  0.0510  0.4072
14504W        W30978   4.314  13.274  14.874  0.0833  0.0187  0.2591
14505W        W30979   3.205   6.670  14.314 -0.1795 -0.2630 -0.1967
14506W        W30980  14.176  13.589  15.746 -0.2601 -0.0892 -0.1422
14507W        W30981   6.083  14.584   0.508 -0.1455 -0.2545  0.0229
14508W        W30982  17.209  13.959   5.186  0.2994 -0.1239  0.0301
14509W        W30983   0.344   0.195  12.927  0.2716 -0.0043 -0.0940
14510W        W30984  11.353   9.691  13.780  0.3760 -0.0622  0.0587
14511W        W30985   8.600   1.705  10.591 -0.1208 -0.1299  0.0615
14512W        W30986   6.221  10.670   0.947  0.1701  0.1638  0.1879
14513W        W30987  15.512   3.016  16.165  0.0291 -0.1923 -0.2593
14514W        W30988  16.917   6.132  13.389 -0.1651  0.2199  0.1874
14515W        W30989  14.371  16.395   4.275 -0.3217 -0.0483  0.1180
14516W        W30990  12.873   1.298   5.309  0.1549  0.1818 -0.4704
14517W        W30991  13.155  16.427  15.929  0.0201 -0.1538  0.0601
14518W        W30992   1.494   4.625  15.991  0.0263 -0.0167 -0.1768
14519W        W30993   6.273  16.969   0.734  0.1848  0.3861  0.3063
14520W        W30994   8.114  14.058   2.660  0.2415  0.1383 -0.1751
14521W        W30995  16.378   4.911  14.608  0.1947  0.3866  0.3123
14522W        W30996   1.905   7.227  12.659 -0.2835 -0.0259 -0.2518
14523W        W30997  10.321  11.928   5.133 -0.1133  0.1395  0.1261
14524W        W30998  15.353   0.949  16.005  0.1099 -0.2045  0.1761
14525W        W30999  15.312   5.621  13.214 -0.1060 -0.1399  0.0894
14526W        W31000   6.961  11.958  11.884  0.1039  0.2706  0.2262
14527W        W31001   2.095   7.820  10.288  0.2720 -0.4467 -0.0464
14528W        W31002  17.664   5.461  15.616  0.1000  0.0452  0.3141
14529W        W31003   5.400  11.253  14.253 -0.0251  0.1576 -0.3275
14530W        W31004  13.237  14.418   5.273 -0.0581  0.3217  0.3007
14531W        W31005  16.358   1.976   0.930  0.1534 -0.1040  0.1316
14532W        W31006   3.377  13.466  15.209 -0.1902 -0.1296  0.1207
14533W        W31007   0.514   7.187   5.209  0.1086  0.1379 -0.0888
14534W        W31008  11.424   8.512   0.574  0.0348  0.1059 -0.0163
14535W        W31009  10.284  16.637   4.821  0.0599  0.3180  0.1329
14536W        W31010  14.073   6.364   4.649 -0.2073  0.0468  0.5105
14537W        W31011   8.400  18.170  12.693 -0.1023 -0.0246  0.0088
14538W        W31012   1.055  15.651  12.435 -0.0587 -0.0779  0.0518
14539W        W31013   0.697   7.761   4.861 -0.2375 -0.2995  0.0672
14540W        W31014  17.895   2.518   5.042  0.0606 -0.0158  0.1260
14541W        W31015   9.479  14.776   2.176 -0.0491 -0.2573 -0.4407
14542W        W31016  17.215   8.207   1.330  0.0305 -0.0147  0.0172
14543W        W31017   4.715  15.226  11.479 -0.2076  0.1564 -0.0779
14544W        W31018   8.019  10.934  16.024 -0.0303  0.1456 -0.1770
14545W        W31019   7.329  10.602   1.150 -0.0810  0.1794 -0.0181
14546W        W31020   8.221   5.694   2.841  0.0964 -0.0484 -0.2382
14547W        W31021   0.384  16.018  13.106 -0.0174  0.0752 -0.0110
14548W        W31022   1.470   6.310   1.349 -0.1297 -0.0351  0.1603
14549W        W31023   8.975  14.790   2.288  0.1169 -0.2136  0.0434
14550W        W31024   9.740   6.334  14.077 -0.3135  0.0810 -0.2713
14551W        W31025  15.248  11.838   2.216  0.2946 -0.1681 -0.0496
14552W        W31026  11.401   7.253  11.119  0.1415  0.1536 -0.1482
14553W        W31027   3.145  12.639   5.438 -0.1992 -0.2018 -0.1941
14554W        W31028   3.250   3.747   2.200 -0.4103 -0.0212 -0.1731
14555W        W31029  14.727   4.406  13.963  0.0262  0.1905 -0.1140
14556W        W31030  16.477   7.209   2.522 -0.0625 -0.1687 -0.0075
14557W        W31031  17.359  15.857   2.354  0.0441  0.0980  0.1206
14558W        W31032  12.276  12.527  14.763  0.0065  0.2104  0.2055
14559W        W31033  14.295   7.415  12.126 -0.1493  0.1234  0.1855
14560W        W31034   3.622   9.823  14.702 -0.1133  0.1193  0.1198
14561W        W31035  11.098   7.266  15.301 -0.1006  0.1092 -0.0760
14562W        W31036  13.347   0.832  13.309  0.0389 -0.0398 -0.1561
14563W        W31037  14.875  11.632   0.712 -0.2428  0.1214 -0.0185
14564W        W31038   0.930   5.128   0.900  0.0011  0.0154 -0.0295
14565W        W31039   0.712  16.388   1.438 -0.3680 -0.0083  0.2659
14566W        W31040  10.844  13.645   1.602 -0.3312 -0.1298  0.1887
14567W        W31041   2.665   7.813  13.119 -0.1411 -0.1191 -0.3666
14568W        W31042  17.400  13.287  14.815  0.0052 -0.0127 -0.1951
14569W        W31043   0.646   5.555   4.333  0.1562  0.2427 -0.0461
14570W        W31044   1.073   7.706   3.458  0.1858 -0.2159 -0.0684
14571W        W31045  17.681  11.400   2.317 -0.1603 -0.0156  0.1700
14572W        W31046  17.354  10.192   5.332 -0.1617  0.2786  0.2366
14573W        W31047   9.552   9.479   1.589 -0.1879  0.0886 -0.1308
14574W        W31048  10.944   6.190   4.889 -0.0391 -0.1103  0.0911
14575W        W31049  16.470  15.225  12.389  0.0995 -0.0007  0.0843
14576W        W31050   6.244  12.363  16.354  0.1276  0.2394 -0.0698
14577W        W31051   1.228  13.615   1.974 -0.1066  0.0804  0.0475
14578W        W31052  16.041  15.733   5.442 -0.0265 -0.4134  0.2371
14579W        W31053   5.066   7.127   1.528  0.1005  0.3910 -0.0791
14580W        W31054  10.141   1.095  16.291  0.1250 -0.4977 -0.0558
14581W        W31055   3.631  11.190   5.311 -0.2360 -0.2191 -0.1339
14582W        W31056  15.144   8.589  11.553 -0.1471  0.1077 -0.0607
14583W        W31057   9.867  10.810  13.031 -0.2456 -0.3869  0.0119
14584W        W31058   2.961   9.011   3.509  0.0467 -0.2871  0.1069
14585W        W31059  15.777   4.755  14.098  0.1514 -0.1802  0.0054
14586W        W31060  16.027   8.164  14.012 -0.0095  0.1435  0.0675
14587W        W31061  17.631  13.460  13.230  0.0766 -0.3076 -0.0044
14588W        W31062  14.178   5.227  12.577 -0.1569  0.0370  0.0543
14589W        W31063   5.982   8.321  13.408  0.0764 -0.2740  0.0502
14590W        W31064   1.662   3.263  11.572  0.0153  0.3344 -0.2876
14591W        W31065  15.614  14.833   3.821  0.0152 -0.1924  0.6153
14592W        W31066  18.173   9.723   3.224  0.2093  0.0209  0.0906
14593W        W31067  13.102  17.668  12.764 -0.1156  0.2551 -0.1034
14594W        W31068   3.976   0.677   2.954  0.2153 -0.0694 -0.1028
14595W        W31069  11.360   7.844   1.109 -0.1417  0.1309 -0.1093
14596W        W31070   3.917   8.645  14.802 -0.0901  0.0315  0.1720
14597W        W31071  17.515  10.500  11.462  0.1085 -0.2496  0.3441
14598W        W31072   5.249  14.118   2.514 -0.0549  0.1807  0.0574
14599W        W31073   6.891   5.813   2.533  0.3656 -0.0171 -0.0419
14600W        W31074  13.685  11.736  12.140 -0.4458  0.1785 -0.0352
14601W        W31075   9.611   1.916  15.462  0.2621  0.2320  0.1011
14602W        W31076  17.785   9.464  15.955  0.0650 -0.1902  0.2177
14603W        W31077  17.170  14.238  13.297  0.0277  0.2795  0.2865
14604W        W31078   3.307  14.786   0.313  0.0718 -0.2330  0.1997
14605W        W31079  16.346   6.472   0.308 -0.1808  0.0896  0.3670
14606W        W31080   5.764   9.450  12.083  0.0860 -0.1012 -0.0949
14607W        W31081   7.222   7.170  15.079  0.1701  0.0664 -0.1630
14608W        W31082  13.243   8.908  15.584  0.2797 -0.0399  0.2548
14609W        W31083  11.352  18.131   5.331  0.0191  0.0546  0.2329
14610W        W31084  11.775  12.380  15.517 -0.0898 -0.0483  0.0066
14611W        W31085  13.506   1.668  15.100 -0.0240  0.1196 -0.0765
14612W        W31086  15.220   6.527   3.356  0.0269  0.0556 -0.5094
14613W        W31087   0.205  17.973   5.158  0.0146  0.1003 -0.0078
14614W        W31088  12.003  13.598  13.626 -0.0147  0.0271  0.2206
14615W        W31089  17.647   5.526  12.395 -0.0365 -0.4094  0.0213
14616W        W31090   1.178  13.885  14.444 -0.2065 -0.0739 -0.0739
14617W        W31091  10.883  11.101   4.144  0.2550  0.0126  0.2809
14618W        W31092   4.225  10.789  12.473  0.0807 -0.1065 -0.0386
14619W        W31093   4.205   0.483  13.461 -0.1468  0.1493  0.0592
14620W        W31094   7.012   9.917   4.440  0.1805 -0.0429 -0.0910
14621W        W31095  16.376   0.135  13.475 -0.1695  0.0840  0.1053
14622W        W31096  12.662   1.170  12.844 -0.2088  0.0511  0.0760
14623W        W31097  14.881  15.549   2.776 -0.1201  0.0513  0.0044
14624W        W31098  11.765   7.920   5.166 -0.0114 -0.0710  0.1989
14625W        W31099  14.800  14.827  14.296  0.0375 -0.1339 -0.1418
14626W        W31100  13.410   2.621  13.226  0.0794  0.1851 -0.0666
14627W        W31101  14.464   8.312  11.360  0.0021  0.0327  0.0364
14628W        W31102   4.183   7.391   3.070  0.2781  0.0739 -0.4125
14629W        W31103  16.051  11.744  15.903  0.0113 -0.1849 -0.0138
14630W        W31104  13.881  15.591   0.658 -0.0470  0.0203 -0.2079
14631W        W31105  17.572   7.521   0.360  0.0215  0.0963 -0.1699
14632W        W31106   6.559   8.608  11.441 -0.2333  0.0472 -0.1734
14633W        W31107   8.727   2.056  11.591  0.1793 -0.0832  0.1845
14634W        W31108   6.768   0.391  13.620 -0.1138 -0.1655 -0.0137
14635W        W31109   7.114  14.288  15.520 -0.0425 -0.2359  0.1447
14636W        W31110  13.142  14.657   0.973 -0.3059 -0.0153 -0.1816
14637W        W31111   8.995  15.985   5.102  0.1191 -0.0269  0.0781
14638W        W31112  16.667   5.232  15.387 -0.0898  0.0475 -0.1976
14639W        W31113   0.588  12.711  11.998 -0.2242  0.3910  0.0701
14640W        W31114   0.892  13.810  15.864  0.0846 -0.0096  0.0247
14641W        W31115  15.118   3.046   2.852  0.0248 -0.1437  0.0789
14642W        W31116   3.665   9.203  11.794 -0.3885  0.1815 -0.0087
14643W        W31117   2.125   1.902   4.982  0.1086  0.0114 -0.2053
14644W        W31118  11.823  11.208  15.150  0.0542  0.1575 -0.2646
14645W        W31119  14.051  15.222   1.472 -0.0063  0.2104 -0.0068
14646W        W31120   2.259  14.668   5.144  0.2361 -0.2286 -0.0777
14647W        W31121  12.374   4.551  12.679  0.1207  0.1674  0.3877
14648W        W31122  15.058   2.979  13.207 -0.1804 -0.2250  0.0415
14649W        W31123   5.775   6.775   3.672 -0.0476 -0.0137  0.1674
14650W        W31124   8.040   3.215   0.180  0.0582  0.0794 -0.2014
14651W        W31125   9.306  12.481   3.477  0.1937 -0.1957  0.3563
14652W        W31126  14.719  16.755  15.192  0.1435  0.2716 -0.1356
14653W        W31127   7.112   5.502   4.557 -0.4301  0.3757 -0.1612
14654W        W31128  10.459   7.038   2.389  0.1439 -0.0014 -0.0590
14655W        W31129   6.468   0.556  11.790  0.1274 -0.0562 -0.1181
14656W        W31130   5.124  11.645   1.085  0.0585  0.3276 -0.0850
14657W        W31131   9.356  11.458   2.163  0.1211  0.1121 -0.3284
14658W        W31132  16.846  16.360  15.083  0.0701 -0.2137 -0.0989
14659W        W31133   1.942   9.412   3.733  0.0794  0.2708  0.0944
14660W        W31134  12.416   0.704   3.881  0.0951  0.1687  0.1428
14661W        W31135  10.241   0.952   1.669  0.0325 -0.2286 -0.0215
14662W        W31136   9.422   8.650  14.924 -0.0717 -0.1769 -0.1129
14663W        W31137   7.663   5.083  15.907 -0.2147  0.2783 -0.2567
14664W        W31138  15.674  17.628  13.316 -0.0992  0.1306 -0.0112
14665W        W31139   1.711   8.565   3.348  0.1634  0.3179 -0.1582
14666W        W31140  12.796  15.865  11.423 -0.0640 -0.1296  0.1966
14667W        W31141  16.914   0.451   0.982 -0.1001  0.0556  0.2120
14668W        W31142  16.452  17.140   4.254  0.2061  0.3608 -0.1012
14669W        W31143   4.904   0.748   5.614 -0.1150  0.0378 -0.0611
14670W        W31144   5.144  17.323  14.119  0.1256  0.2079  0.2074
14671W        W31145   4.244   3.898  13.028  0.2259  0.2083 -0.0268
14672W        W31146   2.963  10.996   1.735  0.2081 -0.0246 -0.1522
14673W        W31147   3.939  15.182  16.250 -0.0907 -0.0704  0.0425
14674W        W31148   3.905   6.408   1.236  0.2218 -0.4178 -0.1811
14675W        W31149   9.891  13.165  15.326 -0.0889  0.0237  0.0185
14676W        W31150   3.975  13.989   4.548  0.3008 -0.0881  0.1909
14677W        W31151  11.897   9.869  15.380  0.1043  0.1118 -0.3811
14678W        W31152   1.724   2.780   5.475  0.2461 -0.2235  0.0972
14679W        W31153   2.414   6.472  16.283  0.1858 -0.0950  0.0733
14680W        W31154  10.529   3.475   4.865  0.0780 -0.2785  0.0940
14681W        W31155   6.430  17.834   3.099  0.0356 -0.3585  0.1253
14682W        W31156  15.319  17.935   4.637 -0.5255  0.4876 -0.0964
14683W        W31157  14.223  10.792   1.336  0.1029  0.1384  0.3177
14684W        W31158  15.600  15.372  11.640 -0.1214 -0.2641 -0.1348
14685W        W31159   4.482  11.453  16.321 -0.1499 -0.3101 -0.3453
14686W        W31160   1.369   7.108   2.761 -0.0188 -0.1655  0.3756
14687W        W31161  15.805   0.156  15.809 -0.0481  0.0094 -0.2337
14688W        W31162   4.965  10.991  14.447 -0.1338 -0.0539  0.0292
14689W        W31163   0.381  13.948   3.666 -0.0223  0.0072  0.2620
14690W        W31164  13.891  10.240   0.192  0.1256  0.2220  0.1855
14691W        W31165   6.157   9.242   0.487 -0.0101 -0.1069  0.1813
14692W        W31166  16.784   2.235  14.446  0.2223  0.0223  0.0251
14693W        W31167   8.408  17.273  13.456 -0.0943  0.2254 -0.1863
14694W        W31168  18.141  16.635  11.474  0.1552  0.0973 -0.0266
14695W        W31169   3.906  12.364  12.776  0.1378  0.2023  0.0187
14696W        W31170   0.855   5.592  15.261  0.0063 -0.2424 -0.1453
14697W        W31171   3.995   8.736  15.893  0.0781 -0.1581  0.0700
14698W        W31172  15.479   2.090  11.191  0.3544 -0.1238 -0.3281
14699W        W31173   9.697   0.270  12.934  0.2400 -0.1283 -0.0293
14700W        W31174  18.151   0.884  12.184  0.0289  0.0618 -0.0759
14701W        W31175  16.532   9.108  11.750  0.3343 -0.1191 -0.0564
14702W        W31176  10.997  18.068  10.237 -0.0624 -0.0069 -0.0425
14703W        W31177   1.546  17.124  14.820 -0.3315 -0.4399 -0.0712
14704W        W31178  16.469  18.029  12.433  0.1632 -0.0206  0.1334
14705W        W31179   9.615   2.832  12.579 -0.0845 -0.0795  0.1681
14706W        W31180  15.059  12.933   2.727 -0.1566  0.0071  0.0441
14707W        W31181   4.972   4.747  14.415 -0.0005 -0.0230 -0.1208
14708W        W31182   0.108  15.417   2.554 -0.2255  0.0848  0.0432
14709W        W31183  18.049  11.419  15.918  0.1401  0.1696  0.1198
14710W        W31184   6.238  10.562  13.952 -0.0211  0.4229 -0.6635
14711W        W31185  14.461   3.934   2.729 -0.1308 -0.0178 -0.1663
14712W        W31186   9.599  12.888   4.084  0.2005  0.0233  0.2277
14713W        W31187  15.681  12.837  15.438 -0.0178  0.1683  0.0695
14714W        W31188   8.926   0.898  14.206  0.1231  0.3594 -0.1318
14715W        W31189  14.274  12.706  12.011 -0.2151  0.2999 -0.0364
14716W        W31190   2.727   7.799   3.799  0.0366 -0.0608  0.1342
14717W        W31191   0.762   3.917   4.399 -0.6430  0.0676 -0.5215
14718W        W31192  17.172  14.285   5.571  0.3027  0.0175  0.0304
14719W        W31193   0.952  18.140   2.389  0.1331 -0.0568  0.0267
14720W        W31194   4.018   9.758  15.708  0.1497 -0.0766  0.1161
14721W        W31195   9.915  15.041  15.402  0.2097 -0.1734  0.0170
14722W        W31196  15.457  13.755   3.250  0.0115  0.0349  0.0656
14723W        W31197   8.157   9.473   0.146  0.2703  0.3511  0.0031
14724W        W31198  12.818  12.021  15.673 -0.1253  0.0018 -0.0794
14725W        W31199  15.979   5.837  13.504 -0.0318  0.1324 -0.0756
14726W        W31200   1.861  12.358  14.029  0.1390 -0.3290  0.1899
14727W        W31201   3.322   0.767  13.557  0.1814  0.0101 -0.0462
14728W        W31202   3.183   3.107  13.633  0.2374  0.2327 -0.0070
14729W        W31203   7.888  15.101  11.327 -0.0078 -0.1709 -0.1299
14730W        W31204   6.850   0.705   2.850 -0.1030 -0.2503 -0.0950
14731W        W31205  17.912   8.491   1.293 -0.1279  0.2877 -0.2218
14732W        W31206  12.818  17.840   6.312  0.1695 -0.1451 -0.0501
14733W        W31207  12.538   2.269  14.207 -0.2586 -0.2317 -0.3634
14734W        W31208   0.313  12.811   3.491  0.1896 -0.4450 -0.0333
14735W        W31209   8.229   2.803   4.145 -0.0069  0.1019  0.1684
14736W        W31210  16.359   1.196   2.427  0.0547  0.1761  0.2436
14737W        W31211  17.240  10.064   2.390  0.1577 -0.3602  0.0068
14738W        W31212  17.662   5.770  11.903 -0.1332  0.0997 -0.0976
14739W        W31213  10.331   7.767   2.535  0.4142 -0.2144  0.1586
14740W        W31214  16.064   8.798  16.126 -0.3293 -0.1084  0.0020
14741W        W31215   7.786   6.405   5.368  0.0251  0.0197 -0.3527
14742W        W31216  17.004  17.597  12.431 -0.1788  0.1374 -0.3313
14743W        W31217  10.283  16.612   4.290 -0.0731  0.2061  0.0629
14744W        W31218  10.537   3.527   0.545  0.0563 -0.0839  0.3087
14745W        W31219   3.474  11.031  15.918  0.0363 -0.0635 -0.2176
14746W        W31220   7.561  11.199   5.689 -0.0700 -0.1975  0.3202
14747W        W31221   5.084   7.906   0.546  0.1024  0.0928  0.0084
14748W        W31222   7.694   5.675  12.258  0.0819  0.1277 -0.1321
14749W        W31223   8.047   6.194  11.265  0.1241 -0.1073  0.5159
14750W        W31224  10.805  14.640   0.554 -0.1531 -0.2308  0.0681
14751W        W31225   3.711   6.509  16.313 -0.2383  0.1927 -0.0608
14752W        W31226   4.981   9.299  12.994 -0.1023  0.0659  0.0788
14753W        W31227   3.199  11.373  16.311 -0.0992 -0.1126  0.1958
14754W        W31228   5.091   1.808  15.654 -0.0674 -0.0205 -0.2535
14755W        W31229   6.574  12.637  13.485 -0.2743  0.1530  0.1332
14756W        W31230   4.471   9.753   3.281  0.4225 -0.0649 -0.2398
14757W        W31231   5.473   1.975  10.992 -0.3272  0.0247 -0.1490
14758W        W31232   0.313  10.022  11.587 -0.1007 -0.2055 -0.0123
14759W        W31233   5.259   1.034  13.452  0.0961  0.1031 -0.0910
14760W        W31234   0.639   7.659  13.464  0.2610  0.1734  0.1460
14761W        W31235  14.366   6.479  14.983  0.2356  0.2760 -0.2675
14762W        W31236  11.338   9.350   0.619  0.1116 -0.0685  0.1922
14763W        W31237  10.512   0.847   4.983  0.1772  0.3477  0.0584
14764W        W31238  16.327  12.379   1.623  0.4237 -0.1073  0.1138
14765W        W31239  16.016   3.881   4.299  0.0560 -0.0784  0.2235
14766W        W31240  12.862   7.000   2.878 -0.0328 -0.0491  0.3956
14767W        W31241  14.494  17.617   4.833 -0.2206 -0.1789 -0.0649
14768W        W31242  12.428   5.082   0.807  0.3741  0.0500  0.0892
14769W        W31243  10.928  17.456  14.968  0.0099 -0.0997 -0.1971
14770W        W31244  12.042  13.863   0.521 -0.1053 -0.1672 -0.0024
14771W        W31245   7.438  13.719  15.739  0.1376  0.0102  0.0062
14772W        W31246  12.630  15.786  13.046  0.2006  0.0997  0.1526
14773W        W31247   4.100   0.603   2.448 -0.2024 -0.0690 -0.1007
14774W        W31248  13.516   4.968   5.464 -0.2598  0.0980  0.1311
14775W        W31249  11.087  12.144  16.288 -0.0026  0.0810 -0.1053
14776W        W31250   2.660  15.485   4.894  0.0676  0.0670 -0.2267
14777W        W31251   1.512   9.482  13.294 -0.0067  0.4965 -0.0864
14778W        W31252  10.416   2.029   5.482 -0.3242 -0.0293 -0.0263
14779W        W31253  11.007  12.841   1.781 -0.1571 -0.0574 -0.5441
14780W        W31254   0.067  13.053  10.675 -0.0060 -0.0380 -0.2605
14781W        W31255  16.362   1.901   1.433  0.0436 -0.2148  0.1850
14782W        W31256   6.721  13.244   5.340 -0.1916  0.3155 -0.1327
14783W        W31257   8.306   8.986   0.214 -0.2491  0.0803  0.1550
14784W        W31258  10.927   4.286   5.762  0.3638 -0.0149  0.0919
14785W        W31259   6.433   5.960  16.018 -0.1526 -0.2653  0.1130
14786W        W31260   5.384  15.681   4.540 -0.2557 -0.1464 -0.2137
14787W        W31261   9.977   8.180   5.216  0.2969  0.2347 -0.1608
14788W        W31262  10.630   5.012  15.031  0.1798 -0.2991 -0.1750
14789W        W31263   7.524  12.240  15.372  0.2201  0.2345  0.0052
14790W        W31264  11.429   1.389  15.562 -0.1256 -0.3223  0.2297
14791W        W31265   1.663  11.463  12.784 -0.0381  0.0576 -0.1810
14792W        W31266  17.318  10.339   5.841  0.0920 -0.2516 -0.1239
14793W        W31267   2.602   8.959  11.519 -0.0013 -0.2303  0.0047
14794W        W31268  13.769   9.860  14.510  0.2006 -0.1441  0.1159
14795W        W31269   2.892  16.360  14.148 -0.0065 -0.1409 -0.3606
14796W        W31270   2.255  16.855  16.052 -0.3941  0.1454  0.1666
14797W        W31271   4.731   1.305  14.183  0.3247  0.1061 -0.0988
14798W        W31272   5.405  12.981   0.754 -0.3043  0.1289  0.1807
14799W        W31273   3.705  13.582  15.962  0.0902 -0.0597 -0.1172
14800W        W31274  10.882  10.757   4.567 -0.0019  0.2305  0.0310
14801W        W31275   7.624   9.138   1.644  0.0177 -0.3185  0.0875
14802W        W31276   7.357   5.134  12.900 -0.1684  0.2228  0.0828
14803W        W31277   9.074  13.700   4.719  0.1799 -0.0797 -0.1428
14804W        W31278  10.534   6.891  12.126  0.0115  0.1287  0.3381
14805W        W31279   2.406   8.367   1.174 -0.0829 -0.0333 -0.2105
14806W        W31280  12.331  11.645  12.064 -0.2666  0.0534 -0.0137
14807W        W31281  12.006  13.288   5.470  0.1362  0.0081 -0.0752
14808W        W31282   7.462   6.746   5.868 -0.1355  0.0810  0.1265
14809W        W31283   0.925   7.180   3.599  0.0008 -0.1791  0.2048
14810W        W31284  11.940  14.990  13.264 -0.1240  0.1176 -0.0370
14811W        W31285  11.899   5.992  14.914 -0.0747  0.0885  0.0796
14812W        W31286  11.994   3.159  15.789 -0.1955 -0.1278 -0.2163
14813W        W31287  15.833   7.435  12.821 -0.0741 -0.1350 -0.1741
14814W        W31288  12.006   1.276   0.264  0.0288  0.0185 -0.2090
14815W        W31289   9.461  12.895  15.483  0.2240 -0.3519  0.2708
14816W        W31290   8.201   9.342  12.078  0.1432 -0.0113 -0.0946
14817W        W31291  11.012   0.953   3.784  0.1478  0.0740 -0.2330
14818W        W31292  10.202  17.809  15.506 -0.2534  0.3246  0.0514
14819W        W31293   9.916   5.397   4.272 -0.1325 -0.0679 -0.1258
14820W        W31294   5.883   0.470  15.016 -0.0275 -0.0862  0.2556
14821W        W31295  13.285  13.858   4.021 -0.0302 -0.0619  0.2613
14822W        W31296  11.718   9.829   0.714  0.0438 -0.0313 -0.2603
14823W        W31297  16.141   4.784   5.204 -0.1682 -0.0284 -0.0817
14824W        W31298   7.461   3.983   1.768 -0.1221  0.2838 -0.2577
14825W        W31299  12.463  16.458   0.081  0.0465  0.3057 -0.1562
14826W        W31300   8.022  13.374   3.636 -0.1397 -0.1766 -0.0454
14827W        W31301  13.395   1.568  15.580 -0.0244 -0.1200 -0.1695
14828W        W31302  10.701  17.050   2.541 -0.1314 -0.1239  0.0420
14829W        W31303   7.943   5.865   1.276 -0.0053 -0.3570 -0.0381
14830W        W31304   4.442  11.161   2.871 -0.0261  0.1038  0.1004
14831W        W31305   3.689   8.909   4.642 -0.0336  0.3350 -0.1544
14832W        W31306   2.178  16.974  11.732 -0.1237 -0.2107  0.0786
14833W        W31307  14.956   3.172   2.142  0.0251 -0.0104  0.0827
14834W        W31308   4.110  16.119  12.359 -0.0655  0.0336  0.1844
14835W        W31309   2.965   9.730  15.713 -0.0713 -0.0144  0.1530
14836W        W31310   6.894   8.314  11.165 -0.1513 -0.0832  0.0728
14837W        W31311   7.505   7.978   0.911 -0.0541  0.2328 -0.2302
14838W        W31312  12.456   5.884   2.166  0.0771  0.0941  0.2125
14839W        W31313  17.753   2.981  11.455  0.0620 -0.0421  0.1831
14840W        W31314   4.461   6.447   3.963 -0.1176  0.1221  0.0677
14841W        W31315   4.141   6.827  16.225  0.1076  0.1601 -0.1031
14842W        W31316   4.030  11.439  12.423  0.0095 -0.0062  0.1559
14843W        W31317   2.431   3.321   2.071  0.1142  0.0322 -0.0014
14844W        W31318   2.241   0.884  12.713 -0.0561 -0.0856  0.1494
14845W        W31319  13.549   3.227  15.252 -0.3400 -0.1183  0.0689
14846W        W31320  12.795  13.783  14.968 -0.0055 -0.0468  0.2762
14847W        W31321   6.278   9.434  12.199 -0.0976  0.1324  0.1563
14848W        W31322  12.244   5.490   3.946  0.0189  0.0638 -0.1319
14849W        W31323  13.114   3.803  15.019  0.2837  0.1147  0.0194
14850W        W31324   9.216  12.781  10.877 -0.1392 -0.0379 -0.1370
14851W        W31325   2.303   3.316   2.990  0.2349 -0.0447 -0.1274
14852W        W31326   1.957  17.274   1.982  0.1184 -0.2195  0.0953
14853W        W31327  13.891  17.863   3.433 -0.0315 -0.3217  0.0051
14854W        W31328  12.128   1.347   3.330 -0.3208 -0.1170  0.1399
14855W        W31329  16.060  15.993   2.270 -0.1399  0.0650 -0.5177
14856W        W31330   8.049  17.574  15.197  0.0379  0.1251 -0.2809
14857W        W31331  15.181   5.231   1.018 -0.1082 -0.1528 -0.0701
14858W        W31332   4.546   8.053   2.979 -0.0436 -0.0618  0.0729
14859W        W31333   9.383  16.201   4.781 -0.0276 -0.3002  0.0167
14860W        W31334  12.429  11.057  15.876 -0.0482 -0.0382  0.3186
14861W        W31335   6.836  16.194  13.682  0.0767  0.1668 -0.0291
14862W        W31336  16.467  14.724  15.775  0.2118  0.2283 -0.1127
14863W        W31337   1.013   7.190  11.177  0.1301 -0.1714  0.2290
14864W        W31338   0.532   2.015  16.215  0.1465 -0.0722 -0.0632
14865W        W31339  11.982   4.572   2.576  0.1867  0.2736  0.0856
14866W        W31340   3.550   9.287   6.045 -0.0230 -0.5923 -0.0571
14867W        W31341  16.961   8.997  12.045  0.2657  0.0079  0.2168
14868W        W31342  10.942  12.692  10.206 -0.0747 -0.0770 -0.1554
14869W        W31343   7.809  16.120   3.845 -0.1733 -0.0635 -0.0558
14870W        W31344  16.211  10.251   4.606 -0.0177 -0.1850 -0.2070
14871W        W31345   8.789  14.865  10.929  0.1669  0.3847 -0.1645
14872W        W31346   2.678   6.801   3.203 -0.0736  0.0564  0.2089
14873W        W31347   7.427   9.557  15.804  0.3415  0.0665  0.1182
14874W        W31348   7.313  16.638  14.160 -0.0568  0.0169 -0.0109
14875W        W31349   0.234   2.648   4.214 -0.1752 -0.1800 -0.3136
14876W        W31350   4.941   6.247  10.437  0.3740  0.3482 -0.0796
14877W        W31351   0.042   1.400  15.792  0.0821 -0.2541 -0.0671
14878W        W31352   0.105   1.695  10.908 -0.1506 -0.2073  0.1376
14879W        W31353  10.386  18.140  13.973  0.3958 -0.0481 -0.0232
14880W        W31354  15.714   0.951  11.894  0.2225 -0.0961 -0.1242
14881W        W31355   0.701  15.150  11.605  0.1361 -0.0623  0.0557
14882W        W31356   8.628   2.111   5.050  0.1217  0.0087 -0.0159
14883W        W31357   2.548  13.598  16.327 -0.1502 -0.0430  0.0388
14884W        W31358   9.317   0.568   5.772  0.1145  0.0001 -0.1645
14885W        W31359   3.733   7.732  11.288  0.0325  0.2182  0.1112
14886W        W31360  11.974  17.741  13.296 -0.3621 -0.1232  0.0692
14887W        W31361   3.584  12.937  15.824 -0.1585 -0.2153  0.0174
14888W        W31362   8.348  16.544  13.851 -0.0299 -0.0338 -0.0638
14889W        W31363  14.897   8.910   4.547  0.1638  0.2903  0.1912
14890W        W31364  13.652   9.207   2.700 -0.0319  0.0111 -0.0152
14891W        W31365   9.176  16.621   6.149 -0.1676  0.1068 -0.0255
14892W        W31366   1.241   8.533   0.827  0.1321 -0.2581 -0.2316
14893W        W31367   3.223   8.567   0.568  0.2213 -0.1586 -0.4138
14894W        W31368  15.956  16.943   4.942  0.3761  0.2809  0.1909
14895W        W31369   6.702   1.266   4.546  0.2252  0.3608  0.1022
14896W        W31370   2.082   0.018  16.011 -0.0630 -0.1049 -0.0303
14897W        W31371  13.477   1.736  14.570 -0.2101 -0.2125 -0.5215
14898W        W31372  14.187   3.756   1.543 -0.1959  0.0431  0.2784
14899W        W31373  15.803   8.205   5.205 -0.0867 -0.2766 -0.0386
14900W        W31374   3.465  13.805   0.039 -0.3541 -0.1708  0.2525
14901W        W31375  12.234   5.884  14.574  0.0889  0.0123  0.0025
14902W        W31376   8.556  11.254  11.511 -0.1032  0.2417  0.0521
14903W        W31377   8.893   5.630   0.159 -0.0273 -0.0726  0.3183
14904W        W31378   9.659  14.161   4.365 -0.0261 -0.2050  0.4065
14905W        W31379   3.261   8.394   2.645  0.2195  0.0732 -0.1660
14906W        W31380  16.863  10.344  11.838  0.0913  0.2291  0.0663
14907W        W31381  11.728  12.947   0.033 -0.2033  0.0589 -0.1344
14908W        W31382   0.767   0.815  12.588  0.2477  0.0019 -0.2356
14909W        W31383   4.789  17.648  12.335 -0.2205 -0.1816 -0.0473
14910W        W31384  10.203   6.737  13.449 -0.1087  0.4202 -0.0143
14911W        W31385   1.662  10.658  15.878 -0.1121  0.4521 -0.0824
14912W        W31386   7.224   6.936   4.850 -0.2653 -0.2503  0.1329
14913W        W31387   5.777  11.779  13.819  0.0596 -0.0444  0.0968
14914W        W31388  13.845  15.558  13.527 -0.0577 -0.0664 -0.0344
14915W        W31389  10.097   5.280   2.483  0.1796 -0.3353 -0.4355
14916W        W31390   6.010   9.663  15.851 -0.2460  0.2999  0.1825
14917W        W31391   1.356  15.234  15.610 -0.0040  0.0784 -0.2770
14918W        W31392  13.701   1.974   3.438  0.3300 -0.1366 -0.4453
14919W        W31393   0.047   2.681  11.463 -0.0473 -0.1809  0.0536
14920W        W31394  11.090   5.637  11.965  0.0799  0.0493  0.0569
14921W        W31395   8.172   9.044  11.654 -0.1189 -0.2735  0.0972
14922W        W31396  14.450   1.851   3.932  0.1879 -0.0981 -0.0578
14923W        W31397  12.168  17.997   4.430 -0.2232  0.2909 -0.0414
14924W        W31398   9.629  16.204  12.780 -0.2157  0.0693  0.1936
14925W        W31399   5.365   0.228  13.940  0.2477 -0.0851 -0.1716
14926W        W31400  16.200   1.621  10.972 -0.0853 -0.2135  0.3570
14927W        W31401  11.997   5.752   2.314 -0.0310  0.2582  0.2001
14928W        W31402  17.459   6.442   3.313  0.4440  0.2333  0.2271
14929W        W31403   5.779  16.806   0.529 -0.1156 -0.0941  0.0646
14930W        W31404  15.938   4.661   3.490  0.0208  0.2267 -0.0218
14931W        W31405  16.084  12.186   5.168 -0.0723 -0.1715 -0.0301
14932W        W31406  10.962   9.229  13.857 -0.1384 -0.1965 -0.1565
14933W        W31407  13.455  15.316   0.614  0.1448 -0.1492  0.1788
14934W        W31408  16.399   4.311   1.724 -0.1694 -0.1823  0.1157
14935W        W31409   8.547   2.196   3.093  0.1013  0.0977  0.2198
14936W        W31410   7.411   9.566   3.263 -0.2253 -0.2234  0.0697
14937W        W31411  11.716  11.103  14.654  0.0945  0.0583  0.1642
14938W        W31412  16.946   6.243  15.092  0.1324 -0.2288 -0.1032
14939W        W31413   3.723  17.824  13.196 -0.0481  0.1118 -0.0076
14940W        W31414  11.203  14.363  11.295 -0.0337  0.1353 -0.1661
14941W        W31415   3.377  10.652   1.041 -0.0056  0.1783 -0.0482
14942W        W31416   3.240  11.637  10.317 -0.0136 -0.3132 -0.0629
14943W        W31417  11.106   1.955   0.478 -0.0463  0.3006 -0.1605
14944W        W31418   1.082   5.230   5.659 -0.3924 -0.3324 -0.2470
14945W        W31419  11.875   0.498  15.644 -0.0282 -0.1346 -0.3899
14946W        W31420  10.785   9.362  11.685  0.3120 -0.2142  0.1733
14947W        W31421   8.448  14.375  16.261 -0.1824 -0.4226 -0.0044
14948W        W31422  16.219   1.537   0.532 -0.0695  0.1983 -0.1525
14949W        W31423   3.485   3.263   0.343 -0.1990 -0.0065  0.1343
14950W        W31424   8.610  11.981   1.007 -0.0302 -0.1367  0.3266
14951W        W31425  17.243  16.389  13.066  0.2550 -0.2433  0.2973
14952W        W31426  13.091   6.702   3.639 -0.2727 -0.2068  0.2848
14953W        W31427  13.272   9.391   3.081  0.1215 -0.0044  0.1325
14954W        W31428  11.995   1.132  11.561 -0.0923 -0.1811  0.0097
14955W        W31429  15.288  13.997  15.296 -0.1196 -0.2401 -0.2226
14956W        W31430   4.941   8.111   4.301  0.0760 -0.0235  0.0417
14957W        W31431   9.022   3.313  15.823 -0.0076 -0.2899 -0.0416
14958W        W31432  16.661   8.010  14.725  0.2143 -0.0732 -0.1269
14959W        W31433   7.301  13.305  11.784  0.1892  0.0855 -0.2687
14960W        W31434   0.692  15.225  14.647  0.0927 -0.0261 -0.2117
14961W        W31435  17.525   3.481  12.049 -0.0175 -0.0276  0.1265
14962W        W31436  14.074   6.744   3.571  0.0092  0.1465  0.0715
14963W        W31437  17.081   0.435  11.375  0.0961  0.1423  0.1739
14964W        W31438  17.034   7.725   3.787 -0.0245 -0.1079 -0.0156
14965W        W31439  15.052  18.151  14.212  0.0550  0.0232  0.2208
14966W        W31440   8.667  14.580  10.510  0.0312  0.1118 -0.1572
14967W        W31441  11.065   8.585  15.737 -0.3663  0.0163 -0.1844
14968W        W31442   3.856  11.491   2.915 -0.2526  0.1518 -0.1897
14969W        W31443   0.322  10.815   4.385  0.0224  0.2651 -0.0022
14970W        W31444   7.125   8.120   4.844 -0.1229 -0.2876  0.3038
14971W        W31445  10.616  10.756   1.326  0.0877 -0.2618  0.0688
14972W        W31446  15.044   5.570   3.515 -0.2000 -0.3386  0.0218
14973W        W31447   7.529  18.170  16.343  0.0434  0.1834 -0.2240
14974W        W31448  13.419   9.054  14.908 -0.2313 -0.1682 -0.0394
14975W        W31449  15.792   3.795  15.372  0.0046  0.1209 -0.0287
14976W        W31450   5.190   3.520  15.804 -0.2889 -0.0356  0.2965
14977W        W31451  13.090   5.628   4.600  0.0516  0.2740  0.1235
14978W        W31452   2.618   6.304   0.667  0.0153  0.2227  0.2405
14979W        W31453  13.376   6.723   3.159  0.1908 -0.0498  0.1123
14980W        W31454   7.048   4.186  11.930 -0.0278  0.0758 -0.0226
14981W        W31455  11.946   0.052  15.407  0.1777  0.0949  0.0776
14982W        W31456  14.066   3.189   3.141 -0.1372 -0.2596 -0.3745
14983W        W31457   0.481   1.776   1.208  0.2185 -0.1728  0.0607
14984W        W31458   9.741  13.838   0.073  0.1084 -0.3306 -0.1885
14985W        W31459   3.039  12.988   3.033 -0.2475 -0.0147  0.0786
14986W        W31460   5.915  17.172  12.672 -0.0404  0.3032 -0.0209
14987W        W31461  17.236   9.007   3.870  0.1414  0.0370 -0.0120
14988W        W31462   5.104   4.658  12.129 -0.0645  0.1713  0.0540
14989W        W31463  12.570   4.885   1.296 -0.0662 -0.3274 -0.0390
14990W        W31464   3.040  13.579  14.741  0.0481  0.2572  0.0709
14991W        W31465   7.244  18.038   2.925  0.0867  0.2424 -0.1811
14992W        W31466  15.418   3.854   5.176  0.0449  0.2053 -0.1563
14993W        W31467   4.845   1.796  14.328  0.2560 -0.2167 -0.1557
14994W        W31468  12.723  17.120   2.126  0.0913 -0.1777 -0.0253
14995W        W31469   3.211   5.697  12.145 -0.3248 -0.0681 -0.1153
14996W        W31470   5.813   6.361   4.151 -0.0483  0.1714 -0.4725
14997W        W31471   5.533   2.975   5.959  0.2042  0.1010 -0.0815
14998W        W31472   1.079   3.937   3.953  0.0756 -0.2435  0.2939
14999W        W31473   5.538   6.894   4.687 -0.3183 -0.0844 -0.0975
15000W        W31474   7.125   2.878  15.262 -0.0288 -0.1717 -0.0356
15001W        W31475   6.955   3.366  15.502 -0.1201 -0.0383  0.2180
15002W        W31476   0.636  13.661   3.357 -0.2140  0.1767 -0.1930
15003W        W31477   1.749  15.790   0.030  0.1068  0.2779 -0.1738
15004W        W31478   5.598   0.239   4.315 -0.0612 -0.0212 -0.0670
15005W        W31479  10.502   3.911   3.234 -0.0688  0.0509 -0.1440
15006W        W31480   0.412  15.429   2.127  0.1176 -0.0852 -0.0623
15007W        W31481  13.936  13.326  16.131 -0.1406  0.0768 -0.0123
15008W        W31482   1.196   6.790  13.340  0.3598  0.0951  0.0185
15009W        W31483  15.203   5.748  10.993 -0.1172 -0.0980  0.2904
15010W        W31484   1.143   5.808   5.247 -0.0298 -0.1129 -0.1975
15011W        W31485  10.254   8.348  12.618 -0.2362 -0.0788  0.2914
15012W        W31486  15.837   4.727   2.275 -0.2056  0.0230 -0.0252
15013W        W31487   1.171  16.399   0.049 -0.1201  0.3885  0.2077
15014W        W31488  16.340   0.704  13.779 -0.2272  0.0611  0.0534
15015W        W31489   7.696  13.464  11.524  0.0860  0.1220 -0.1140
15016W        W31490   4.392  15.655  15.918 -0.0887 -0.4016  0.0228
15017W        W31491   2.769  15.911   3.259 -0.1442  0.0476 -0.0685
15018W        W31492  13.224  14.046   2.649 -0.0755 -0.1519  0.0855
15019W        W31493   5.057  16.112  15.285  0.0433  0.3183  0.1876
15020W        W31494  15.614   6.469  13.064  0.0715 -0.1118 -0.0370
15021W        W31495  10.982   4.295   1.015  0.2767  0.0922  0.1722
15022W        W31496   0.344   8.613  15.915  0.0043  0.1059  0.2916
15023W        W31497   5.678   0.354  11.420  0.0064  0.0351 -0.2164
15024W        W31498   7.459   0.816   4.059  0.1217 -0.0804  0.2984
15025W        W31499   4.590   1.808   0.846  0.0855  0.0040 -0.0036
15026W        W31500   5.137  13.620   2.330 -0.2322 -0.0300 -0.0188
15027W        W31501  13.954  12.582   4.560 -0.2497  0.2649  0.0419
15028W        W31502  14.951  14.725   1.053  0.2181 -0.0118 -0.0024
15029W        W31503   2.860  14.359   1.586  0.4462  0.3759 -0.1074
15030W        W31504  15.424   5.284   2.104 -0.0333 -0.0171 -0.3234
15031W        W31505   0.519  17.289   5.693  0.2370  0.1427  0.0488
15032W        W31506  13.217  14.398   4.057 -0.3281  0.1770  0.1767
15033W        W31507   6.729  17.910  16.282 -0.0217 -0.1198  0.0680
15034W        W31508  14.860   2.172   5.395  0.1039  0.0846 -0.2781
15035W        W31509   2.209   4.271   1.207  0.0273  0.2890  0.2669
15036W        W31510   5.119  13.863  15.821 -0.0505  0.0145  0.3149
15037W        W31511  12.504  14.469   2.527  0.0578 -0.0490  0.0714
15038W        W31512  15.914  13.244  15.065  0.1012  0.0394  0.0812
15039W        W31513   9.198   2.756   1.549 -0.1143 -0.2717 -0.1273
15040W        W31514  12.901   9.117  15.181 -0.1534  0.1892 -0.0586
15041W        W31515   1.571   0.356  13.680 -0.0412  0.1709  0.3052
15042W        W31516  14.069   3.425  12.122  0.2947  0.2414  0.1964
15043W        W31517  14.654  14.347  14.360 -0.4426 -0.1066  0.1461
15044W        W31518   9.679   4.727  15.519  0.1226  0.0742 -0.0111
15045W        W31519  16.672   8.836   2.889 -0.0202  0.1561  0.2474
15046W        W31520  12.617  15.387  11.720 -0.0374 -0.1107 -0.0490
15047W        W31521  14.970   0.951  14.392 -0.0838 -0.0862 -0.2166
15048W        W31522  16.176  11.000   4.619 -0.1335 -0.2122 -0.2490
15049W        W31523  10.188   0.657  12.365  0.1000  0.3712  0.2034
15050W        W31524  12.219  10.261  16.354  0.0044 -0.0366  0.2288
15051W        W31525   6.686  14.549   1.269 -0.2322 -0.0519 -0.1247
15052W        W31526  14.403   3.323   1.134 -0.0070  0.1308  0.0260
15053W        W31527   4.277   0.378   0.538  0.1473  0.2541  0.0490
15054W        W31528   4.598  12.138   0.608 -0.0672  0.2753  0.2145
15055W        W31529   0.004  15.608   4.252  0.1567  0.0429  0.0587
15056W        W31530  17.873   5.259  13.628  0.0835  0.1728  0.1591
15057W        W31531  15.347  12.243  13.240  0.0777  0.0193 -0.1528
15058W        W31532   4.308  14.580  15.166 -0.1262 -0.3919 -0.0743
15059W        W31533   3.837   9.785   0.701  0.0108 -0.0555  0.1236
15060W        W31534   1.310   1.928   2.939 -0.0735  0.1272  0.1358
15061W        W31535   7.235  12.642   3.220  0.0347 -0.1552  0.0614
15062W        W31536  10.317   2.781   3.528 -0.2930  0.3452 -0.1526
15063W        W31537  10.711  17.326  12.022  0.0633 -0.3666 -0.0762
15064W        W31538  18.127   1.109  14.779 -0.3713  0.0821 -0.1666
15065W        W31539   1.169   7.216   4.026  0.0054  0.2461  0.3490
15066W        W31540   1.647   7.360   2.366 -0.1370 -0.1496 -0.5172
15067W        W31541   4.193  16.930   2.894  0.0162 -0.0358 -0.0440
15068W        W31542   4.694   2.317  12.306  0.0729  0.0119 -0.1533
15069W        W31543   8.899   0.389  14.309  0.1592  0.1392 -0.1478
15070W        W31544   3.191  10.614   4.393  0.1277 -0.1179  0.0648
15071W        W31545   4.035   3.864  12.107  0.2855  0.1063  0.1480
15072W        W31546   5.651   9.910  13.722 -0.1792  0.1174 -0.2099
15073W        W31547  16.539  10.840   5.701 -0.2524  0.0795 -0.1939
15074W        W31548   3.573  11.653  12.790  0.0163 -0.0169 -0.3332
15075W        W31549   2.216   6.992   0.377 -0.0117  0.0424 -0.3117
15076W        W31550   0.375  10.233   1.526 -0.3017 -0.1554 -0.1562
15077W        W31551   0.183  10.045   3.543 -0.1595  0.1262  0.3030
15078W        W31552   1.106   5.315   4.539  0.0588  0.1291  0.1250
15079W        W31553  13.535   3.083   0.981  0.1473 -0.2367  0.3032
15080W        W31554  13.443   6.675   4.088 -0.2297  0.0270  0.0457
15081W        W31555   2.814   2.683   1.245 -0.0208 -0.0179 -0.2758
15082W        W31556  16.381   4.527  12.353  0.3930 -0.0368 -0.1885
15083W        W31557  11.312  10.742   4.947 -0.1258 -0.0157  0.0406
15084W        W31558   8.737   0.211  12.108  0.0201  0.0036  0.0461
15085W        W31559  11.764   6.415  16.335 -0.0693 -0.4761 -0.1696
15086W        W31560   4.864  16.490  12.994  0.3021  0.1189 -0.2142
15087W        W31561   2.576   4.443  11.664  0.0880  0.0496  0.0467
15088W        W31562   6.483  16.907   0.228  0.0598 -0.2326 -0.0695
15089W        W31563   3.418  12.045  15.138 -0.1340  0.1937 -0.4744
15090W        W31564  16.192   0.243  11.652  0.3107 -0.1491 -0.3233
15091W        W31565  16.634   8.970  12.489 -0.0308 -0.0719  0.3741
15092W        W31566   1.660   4.736   4.102  0.1411 -0.2837  0.0020
15093W        W31567  18.144   8.728  11.256  0.0172 -0.1526  0.1021
15094W        W31568   8.429   0.536   2.712 -0.0352  0.0833  0.3735
15095W        W31569   5.123   8.348  13.439  0.0964  0.1043 -0.1189
15096W        W31570  10.818   2.994   3.422  0.1594 -0.0943  0.0984
15097W        W31571  10.890   3.290   6.225 -0.0549  0.1620 -0.1165
15098W        W31572   4.134   3.113  11.427 -0.0756  0.1854  0.1106
15099W        W31573  14.550   5.819  15.636 -0.0849 -0.0362  0.4947
15100W        W31574   3.796  13.157   1.889  0.0573  0.1955  0.1842
15101W        W31575   3.713  16.568   5.454  0.0275 -0.0066  0.4363
15102W        W31576   2.128   4.590   5.435 -0.0833  0.0659 -0.1706
15103W        W31577   2.804   3.205   1.698  0.2143  0.0310  0.2257
15104W        W31578  14.485  16.431  13.170  0.1832 -0.1363  0.2595
15105W        W31579   1.552   6.607  14.744 -0.1316  0.1975 -0.0257
15106W        W31580  10.924   9.036  15.596  0.2106  0.0511 -0.0191
15107W        W31581  11.996   1.739  11.463  0.0453  0.1144 -0.0673
15108W        W31582  16.209   1.471   3.898  0.0810  0.3498 -0.0436
15109W        W31583  17.412  15.780   5.535  0.0283  0.0000 -0.2146
15110W        W31584   7.308   5.907   0.843  0.0059 -0.0291 -0.0867
15111W        W31585   2.372   4.147  12.400 -0.2263 -0.0105  0.0150
15112W        W31586   5.316   7.541   3.194  0.1492  0.2670 -0.0358
15113W        W31587   4.522   0.753   2.239  0.2108  0.0774 -0.0788
15114W        W31588  16.894  16.022   5.566  0.0634  0.2471 -0.2065
15115W        W31589   2.449   1.002   0.401  0.1712 -0.1507  0.2325
15116W        W31590   0.889   0.937  14.777  0.2556 -0.2572  0.2074
15117W        W31591   1.054  10.154   5.391 -0.0666 -0.1131  0.1310
15118W        W31592   5.396   0.375  12.804  0.0642  0.3107 -0.3161
15119W        W31593  14.132  15.658  11.853 -0.0648 -0.2828  0.0346
15120W        W31594  16.370  16.229   1.339  0.0428 -0.1047  0.1418
15121W        W31595  17.244   3.729   1.566 -0.0760  0.0583 -0.1259
15122W        W31596   5.037   5.130  12.305  0.0806  0.1226 -0.3131
15123W        W31597  17.963  16.536   2.203  0.2391  0.0830  0.0458
15124W        W31598   3.276   6.275   5.782  0.0375  0.0150  0.0720
15125W        W31599  16.659  14.109  13.414  0.2946 -0.0348 -0.0141
15126W        W31600  16.096  12.251   0.958 -0.0805 -0.1108  0.1446
15127W        W31601   0.890   6.172  16.358 -0.0240 -0.1170 -0.1488
15128W        W31602  11.258   7.057  15.750  0.1989 -0.0691 -0.2507
15129W        W31603  17.718   3.296  13.533  0.2719 -0.0160  0.1683
15130W        W31604   8.392  10.594  15.922  0.1363 -0.1786 -0.0469
15131W        W31605  16.021   4.213  11.250 -0.1158 -0.0983  0.0608
15132W        W31606   6.174  17.970   5.554  0.0286 -0.0697 -0.0019
15133W        W31607   3.126   0.619  11.884 -0.0237 -0.0013  0.2398
15134W        W31608   4.410   5.568  15.554 -0.1328 -0.1561  0.2096
15135W        W31609  18.147  15.227  13.345  0.2152  0.2394 -0.1122
15136W        W31610  15.737   1.429   0.391  0.3285  0.1418  0.1294
15137W        W31611   8.526   5.575   4.679 -0.0448 -0.3320 -0.1420
15138W        W31612  16.870   8.409  15.673  0.2405  0.2153  0.0985
15139W        W31613   3.127   2.461  11.634  0.0888  0.1450  0.2068
15140W        W31614   8.677   3.347   5.040  0.0373 -0.1455  0.2859
15141W        W31615  12.842  13.083   5.145  0.1197  0.0743 -0.1135
15142W        W31616   9.179  12.611   1.503  0.3280  0.0823  0.1214
15143W        W31617   5.579  11.972   5.015  0.2572 -0.0514 -0.0191
15144W        W31618   6.214  16.509   0.427  0.0114 -0.1446  0.1524
15145W        W31619  10.878   2.472   4.209  0.2356  0.2456 -0.0458
15146W        W31620   2.225   0.219   3.201  0.1543 -0.2599  0.2792
15147W        W31621   2.225   1.863   0.900  0.2642 -0.3600 -0.2334
15148W        W31622   4.043   2.625  11.533 -0.0684 -0.3419 -0.0500
15149W        W31623  18.072   5.902   3.742  0.1315  0.0405  0.0433
15150W        W31624   7.824   5.957  14.317 -0.0417 -0.2651  0.2454
15151W        W31625   0.857   4.273  13.599 -0.0409  0.2506 -0.1103
15152W        W31626   9.954   4.678   4.702 -0.1766  0.1147  0.0178
15153W        W31627   5.765  16.556   5.082 -0.0539 -0.0472 -0.0220
15154W        W31628  10.906   0.828  12.364 -0.0457  0.0603 -0.0288
15155W        W31629   4.380  16.606  13.213 -0.1101  0.0384 -0.1082
15156W        W31630   6.603   2.716  11.211 -0.1801 -0.2435  0.3247
15157W        W31631   0.120  17.073  11.717  0.1084 -0.1482 -0.0213
15158W        W31632   0.256  15.988   0.663 -0.0304 -0.0292  0.3196
15159W        W31633  17.073  14.431   2.230 -0.1244  0.1346  0.1508
15160W        W31634   0.267   6.482  15.418  0.1711 -0.0646  0.0617
15161W        W31635  16.931   1.317  14.404  0.1889 -0.0337  0.1987
15162W        W31636   3.657  17.391   2.627  0.2653  0.1803 -0.0413
15163W        W31637   3.564   8.662  14.070  0.1104  0.0940  0.1025
15164W        W31638  14.184   7.895   1.220  0.2156  0.0313  0.2060
15165W        W31639   6.964   6.299  14.014  0.3476 -0.3436  0.1881
15166W        W31640   1.286   0.663  12.449  0.1610  0.1290  0.2527
15167W        W31641   8.323   7.985  14.184  0.2159  0.1788  0.0303
15168W        W31642   9.598   4.273  14.181 -0.3131  0.0592  0.1017
15169W        W31643   3.622  14.339  13.982  0.2130  0.0419  0.0337
15170W        W31644   6.435   6.351  14.109 -0.1899 -0.2959 -0.1145
15171W        W31645  17.973   8.164   1.797 -0.1339 -0.0255 -0.0568
15172W        W31646  17.976   1.651   3.878 -0.0045 -0.2041  0.2704
15173W        W31647   3.231   7.756   0.166 -0.2531  0.0053 -0.0131
15174W        W31648  12.304  15.229   1.931 -0.0625  0.1231 -0.0812
15175W        W31649   0.303   1.353   5.583  0.1582  0.3552  0.0622
15176W        W31650  11.367   8.507  10.407  0.1591 -0.0498  0.0767
15177W        W31651   2.142   2.779  12.422  0.1460 -0.1930  0.2658
15178W        W31652  14.378   5.121   0.250 -0.2376 -0.0915  0.0223
15179W        W31653  14.887  18.056  13.670  0.2725  0.3120  0.1556
15180W        W31654  14.661   2.030  15.246 -0.0316 -0.4440  0.2845
15181W        W31655  10.709  15.830   1.716 -0.2543  0.0954  0.1090
15182W        W31656  12.534  17.445  11.124 -0.1141 -0.2012  0.0006
15183W        W31657  16.635   3.460   3.029 -0.0880 -0.2754  0.0444
15184W        W31658  13.999   0.105   1.527  0.1561 -0.2480 -0.1283
15185W        W31659  12.686  11.758   3.153 -0.0893  0.0452  0.2587
15186W        W31660  10.876   8.505   4.362 -0.0271  0.1874 -0.2363
15187W        W31661   9.567  18.003   1.427  0.0628 -0.2720  0.2443
15188W        W31662  13.143   2.526  11.565 -0.1022  0.1565 -0.3031
15189W        W31663  15.597  11.879  13.502 -0.2256  0.1344 -0.2030
15190W        W31664  14.196   5.143   4.344 -0.1499  0.2253  0.1379
15191W        W31665   4.489   5.027   4.774  0.0737 -0.1875  0.1283
15192W        W31666  14.379  15.519   2.293 -0.0333  0.4084 -0.1035
15193W        W31667  16.842   2.004   2.577 -0.0082  0.1077  0.2876
15194W        W31668   8.771   4.253  11.594 -0.0144  0.1632  0.2124
15195W        W31669   6.489   6.347   5.450 -0.1416 -0.1287 -0.2027
15196W        W31670   5.724  17.057   1.585  0.0492 -0.0502 -0.2994
15197W        W31671  11.056   2.610   3.137  0.0486  0.0979  0.2934
15198W        W31672  16.211  11.785   0.024  0.0405 -0.0796  0.2470
15199W        W31673   8.045   6.700  12.404 -0.0198  0.2933 -0.1338
15200W        W31674   1.620  11.348   1.895 -0.0317 -0.2080  0.1129
15201W        W31675   6.161   2.315   3.994  0.2706  0.1344  0.0252
15202W        W31676  17.851  10.637  14.213  0.1203  0.3270  0.0526
15203W        W31677  18.007   6.955   6.051 -0.3031 -0.1631 -0.0383
15204W        W31678   7.197   8.607   4.424  0.2324 -0.0381 -0.1857
15205W        W31679  15.136   4.385  11.120  0.0737 -0.1736 -0.2734
15206W        W31680  12.805  10.120  13.049  0.0643 -0.1009 -0.1506
15207W        W31681  17.329  15.204  13.038 -0.0175  0.3533 -0.1932
15208W        W31682  14.561   2.668  12.617  0.0981 -0.2109 -0.0525
15209W        W31683   2.164   1.822  13.789 -0.5139 -0.4140  0.0465
15210W        W31684   2.244  10.876   2.926 -0.1596  0.0230 -0.1947
15211W        W31685  11.283   3.848   2.577 -0.1689  0.0466  0.1556
15212W        W31686   9.279  14.649  11.561  0.2751 -0.3668  0.2012
15213W        W31687   1.274   3.521   5.177  0.0910 -0.1579  0.1510
15214W        W31688  16.486   8.989   3.285 -0.1461 -0.2177 -0.4878
15215W        W31689   7.457  18.000  13.488 -0.0294 -0.2340 -0.1900
15216W        W31690   8.589   8.025   5.279 -0.0152 -0.1862 -0.0259
15217W        W31691   6.966  16.228   0.535  0.0356  0.2312  0.3429
15218W        W31692  11.881   4.159   5.110  0.0208 -0.0349 -0.3553
15219W        W31693  10.440   7.885   0.713  0.2365 -0.1764 -0.3397
15220W        W31694  13.041  14.734   5.661  0.1494 -0.2408 -0.1287
15221W        W31695  12.417   4.136  14.682 -0.0056 -0.1923 -0.1616
15222W        W31696  16.799   4.678   1.547  0.0557  0.1160 -0.0904
15223W        W31697  16.793  11.596   4.045  0.1721  0.0271  0.1308
15224W        W31698  11.959  13.534   4.204  0.1999  0.0819 -0.1572
15225W        W31699   4.292  14.395   4.576 -0.0190  0.2539 -0.0775
15226W        W31700   2.385  18.040   3.605 -0.0524 -0.0464  0.0533
15227W        W31701  11.518  15.132  11.721  0.0629 -0.1540  0.1111
15228W        W31702  13.807  16.868   1.706 -0.0281 -0.0970 -0.2021
15229W        W31703  14.086   0.483  15.672 -0.1295  0.2210 -0.0543
15230W        W31704  16.474  16.451  14.232 -0.1944  0.0906  0.3249
15231W        W31705  10.299  12.945  12.312 -0.0005  0.0066 -0.0954
15232W        W31706   1.813   6.567   5.048 -0.0531 -0.1931  0.0663
15233W        W31707   0.906   3.036   2.037 -0.0671  0.0630 -0.2473
15234W        W31708  15.588   7.517  11.470 -0.1751  0.2680  0.1835
15235W        W31709   6.134   1.281   0.133 -0.2080 -0.2794 -0.0634
15236W        W31710  14.667   0.226  12.035 -0.0761  0.0660 -0.0264
15237W        W31711   3.946  11.202  15.848  0.1004 -0.3620 -0.0208
15238W        W31712   6.683  13.706  11.446 -0.2783  0.0933  0.1365
15239W        W31713  18.077   0.145  13.587  0.4644  0.1506 -0.1900
15240W        W31714   7.750  16.427   4.974 -0.0693 -0.1931 -0.1100
15241W        W31715  16.974  11.606   4.792 -0.4093  0.0896 -0.1443
15242W        W31716   5.467   2.553   4.656  0.1288 -0.0143  0.0680
15243W        W31717  13.301  10.828   5.152  0.3551  0.3820  0.0212
15244W        W31718   0.493  10.598  13.924  0.0650  0.1846 -0.0907
15245W        W31719  16.351  12.696   2.003  0.0327  0.1154 -0.1940
15246W        W31720  16.178  15.687   1.365 -0.1390 -0.0427  0.2312
15247W        W31721  11.500  17.997  13.177 -0.1439 -0.1354  0.1455
15248W        W31722  15.935  18.127   3.292  0.1788  0.2287 -0.2361
15249W        W31723   6.583   8.493  13.798  0.1467 -0.0360  0.2940
15250W        W31724   2.697  14.895  13.302 -0.1177  0.1538 -0.1762
15251W        W31725   3.257   0.942  15.145 -0.0510  0.4716  0.0685
15252W        W31726   6.254  15.157  13.877  0.0023 -0.0672  0.2469
15253W        W31727   9.106   0.109   3.126 -0.0855  0.0308 -0.0122
15254W        W31728  10.583  13.430  13.966 -0.2004 -0.0289 -0.0846
15255W        W31729   6.977   7.850  11.486 -0.0697  0.1277  0.0571
15256W        W31730  14.042  11.964   0.383 -0.1378 -0.0328 -0.2155
15257W        W31731  17.008  16.878  12.888  0.4547 -0.1572  0.0011
15258W        W31732   5.634   7.911  12.052 -0.0741 -0.0193  0.0945
15259W        W31733  10.194  13.047  14.089  0.3440 -0.1713  0.2662
15260W        W31734   6.512  11.854  11.720 -0.0039 -0.0574 -0.1109
15261W        W31735   5.738   8.030   3.935 -0.0287 -0.0318 -0.2628
15262W        W31736  13.099  15.428  11.521  0.4665  0.0815 -0.0735
15263W        W31737   9.127   4.068  13.862  0.2943  0.2352 -0.2265
15264W        W31738   8.220   3.922  14.065 -0.0564 -0.0232 -0.5446
15265W        W31739  16.823   1.207  15.869  0.2583  0.3463  0.0787
15266W        W31740  17.639   1.862  13.397  0.0077  0.2658  0.0618
15267W        W31741  10.963   2.122  14.946  0.0370 -0.0420 -0.2631
15268W        W31742  16.843   4.275   0.920  0.0131  0.1580 -0.1909
15269W        W31743   2.858   6.257  14.487 -0.0675 -0.0432 -0.2439
15270W        W31744   5.289   0.758  11.498  0.1607 -0.4561 -0.0832
15271W        W31745   5.270   0.014  13.205  0.2029 -0.3733 -0.1322
15272W        W31746  15.225   9.932   0.209  0.0936 -0.3584 -0.1241
15273W        W31747   7.428  12.401   0.712  0.3383 -0.1150 -0.2297
15274W        W31748  16.234   5.093   1.088  0.0013  0.2481 -0.0533
15275W        W31749   1.013  14.577  14.855  0.0874 -0.1391  0.1263
15276W        W31750  15.129  16.717   0.349  0.0144  0.1422 -0.3173
15277W        W31751  17.188  12.834   0.264 -0.1347  0.4633  0.0817
15278W        W31752   3.197  11.638   3.878 -0.2752  0.1720  0.5440
15279W        W31753  15.704   3.284   3.942  0.3211  0.1511  0.1786
15280W        W31754  16.060   1.562  15.072 -0.0851  0.2264  0.1511
15281W        W31755   0.538   3.951  12.801 -0.0728 -0.0319  0.1558
15282W        W31756  17.840   8.566   0.214 -0.1060 -0.2068  0.2195
15283W        W31757   1.728   9.088  13.620  0.2478 -0.0703 -0.0814
15284W        W31758  14.652  13.101   1.888  0.0189  0.1838 -0.1369
15285W        W31759  17.481   0.817  11.441 -0.1112  0.2060  0.0368
15286W        W31760   4.040  15.626   2.270 -0.1980  0.0563 -0.1759
15287W        W31761   7.232   5.605   5.523  0.1155  0.0413 -0.0226
15288W        W31762   7.394  11.588   0.267 -0.1041 -0.1119 -0.3147
15289W        W31763   5.571   7.720   3.552 -0.0336 -0.3424  0.0602
15290W        W31764   5.536   1.437   0.540  0.1130 -0.1461  0.0823
15291W        W31765  12.147  15.266   5.331  0.2887  0.0461  0.0469
15292W        W31766   3.245   3.422   3.156  0.0504  0.1447  0.0764
15293W        W31767   5.338  17.783   5.073  0.1891  0.0305  0.1365
15294W        W31768  16.277  14.759   4.667  0.0747  0.0270 -0.2634
15295W        W31769   8.002  14.138  16.165 -0.4689  0.2721  0.1508
15296W        W31770  13.026   1.926  11.699  0.1814 -0.0142  0.1290
15297W        W31771  11.134   5.067  13.099  0.2243  0.0648 -0.0897
15298W        W31772   4.023   6.650  12.900 -0.4315  0.0754 -0.2052
15299W        W31773   0.850   7.998  13.193  0.2892  0.0392  0.0540
15300W        W31774  17.832   0.865  12.949 -0.0924 -0.3027 -0.0277
15301W        W31775  11.856   9.848   4.327 -0.2407  0.1219 -0.3092
15302W        W31776  11.790  17.488  12.860 -0.1309  0.2729 -0.0021
15303W        W31777   5.460   9.339   2.066  0.0887  0.1644  0.2740
15304W        W31778   2.171   5.822   4.427 -0.2690 -0.0166 -0.4212
15305W        W31779  16.075  12.575  14.493 -0.0737 -0.0797 -0.1005
15306W        W31780   4.188  11.749  14.102  0.3034  0.0188  0.1226
15307W        W31781   7.824   5.707   2.545  0.0249  0.4490 -0.2077
15308W        W31782   1.798   4.439  13.298 -0.0768 -0.0544  0.2771
15309W        W31783  12.105  12.143   5.153 -0.2041 -0.0925  0.0775
15310W        W31784  11.264   6.563   1.139  0.1955  0.0696  0.2670
15311W        W31785  13.078  10.245   1.998  0.1325 -0.0521  0.3703
15312W        W31786   2.227  10.098   4.457  0.0638  0.0720 -0.0290
15313W        W31787   8.277   3.814   2.842 -0.3482 -0.0790  0.2539
15314W        W31788  16.927   4.439  12.883  0.1364  0.0185  0.0251
15315W        W31789   3.397  12.730  16.333  0.1322 -0.2721  0.0120
15316W        W31790   7.421   0.224   4.685  0.0118 -0.0038  0.1023
15317W        W31791  17.996   7.372  14.086  0.4140  0.0527 -0.0640
15318W        W31792   5.857   1.621  15.771  0.4516 -0.0101 -0.0040
15319W        W31793   6.403   0.757   5.578 -0.2207  0.0760 -0.1905
15320W        W31794   6.742  13.835   2.553  0.1962 -0.1730  0.1911
15321W        W31795   6.163   1.190   1.822  0.0692 -0.0335 -0.0361
15322W        W31796  12.281   9.724  11.714 -0.1561  0.1526 -0.1872
15323W        W31797   8.379   9.509  11.675 -0.0419 -0.1484 -0.1813
15324W        W31798  17.514  12.632   3.467  0.1075  0.0537 -0.1444
15325W        W31799   7.174   8.845  12.204  0.0787  0.1563 -0.0337
15326W        W31800  13.447  17.706  15.747  0.2114 -0.1270 -0.1562
15327W        W31801  16.423  17.657  11.059  0.0362  0.1365 -0.4758
15328W        W31802   4.076  17.833  13.591  0.0788 -0.1226 -0.3631
15329W        W31803  12.425   6.707   0.779 -0.0674 -0.0789  0.1759
15330W        W31804   2.522  10.668  12.289 -0.1115 -0.0952  0.0204
15331W        W31805  15.375   7.870  10.705  0.1157 -0.1714  0.1001
15332W        W31806   7.819   0.213  15.109 -0.0450 -0.3682 -0.1016
15333W        W31807  13.676   6.170   2.683 -0.0807 -0.1584  0.0080
15334W        W31808   1.479  13.991   2.701 -0.1439  0.1168  0.0992
15335W        W31809  13.958   9.501  14.207  0.0480  0.0458  0.0106
15336W        W31810   7.677  17.653  11.258 -0.0883 -0.0839  0.2809
15337W        W31811   0.254   9.368   2.013 -0.1239  0.3425  0.2471
15338W        W31812  13.660   2.493   3.479 -0.2423  0.2127 -0.2842
15339W        W31813  12.324   4.277   4.003 -0.2528 -0.2218 -0.0077
15340W        W31814   0.069  10.524  12.536  0.2652 -0.1458 -0.1696
15341W        W31815   0.866  14.820  11.273 -0.0257  0.1258 -0.0841
15342W        W31816   7.575  11.276  11.355  0.1000 -0.2254 -0.2989
15343W        W31817  12.368  12.365   4.804  0.0128  0.2372  0.0230
15344W        W31818  11.035  16.333   1.404  0.1150  0.2071 -0.2427
15345W        W31819   4.928   7.374   1.933 -0.0291 -0.2938  0.4425
15346W        W31820   2.362  14.665  13.724 -0.1731  0.0122  0.2643
15347W        W31821   9.312  16.669  13.195 -0.0423 -0.0229 -0.1824
15348W        W31822  15.892  12.555  12.866 -0.2977 -0.1716  0.1516
15349W        W31823  15.646  14.272  10.302 -0.1697 -0.1055 -0.0518
15350W        W31824  15.963   1.727   2.986  0.3896  0.1415  0.3198
15351W        W31825   9.095   5.459  15.092  0.2751  0.1252  0.1375
15352W        W31826  14.797   8.668  10.609  0.2437 -0.0744 -0.3399
15353W        W31827  15.164  16.414   5.306  0.1930  0.0054 -0.0495
15354W        W31828   4.274   5.931   0.365 -0.0089 -0.0841  0.0688
15355W        W31829   1.884   9.906   2.861  0.0950 -0.0150  0.0911
15356W        W31830  10.746  13.297   1.929  0.1760  0.2680  0.4247
15357W        W31831  15.193  11.577  15.384 -0.3853 -0.3524  0.1164
15358W        W31832   8.243   5.518  15.105  0.1123  0.3465 -0.0485
15359W        W31833   4.392   9.671  14.347  0.1081  0.0054  0.1288
15360W        W31834   7.782   0.712   2.053 -0.1526  0.1896  0.2603
15361W        W31835   0.234  16.729   2.977  0.0062 -0.0074 -0.0790
15362W        W31836   7.346  16.456   0.340 -0.2425 -0.0481  0.4890
15363W        W31837   6.403  14.568  11.613 -0.4596 -0.3000 -0.1263
15364W        W31838  11.758   4.537   3.015  0.0331 -0.0957 -0.1332
15365W        W31839   8.237   8.323   3.235  0.1696  0.4612 -0.1650
15366W        W31840  11.741  13.084   2.369  0.0616 -0.2183 -0.1723
15367W        W31841   8.978  13.299   3.525 -0.0638 -0.3855 -0.0310
15368W        W31842   2.918   9.348  11.647  0.2412  0.1482 -0.0059
15369W        W31843   4.686  15.304  14.892 -0.2000 -0.2627 -0.2098
15370W        W31844   6.358   0.962  14.624 -0.2583 -0.1738 -0.1688
15371W        W31845  10.643   2.704   2.296  0.0021 -0.1549  0.1078
15372W        W31846   5.591   4.124  16.161  0.0137  0.0463 -0.1946
15373W        W31847  11.409   9.130  12.076  0.3442  0.2094 -0.0041
15374W        W31848  10.192  14.861  13.551  0.0186 -0.2921 -0.2685
15375W        W31849   1.639   4.465   5.329  0.0568  0.0628 -0.1488
15376W        W31850  10.287   3.653  13.962  0.2995 -0.0108  0.2996
15377W        W31851   6.340  11.445  14.513 -0.0513  0.0110  0.1150
15378W        W31852   4.791  11.024  15.010  0.0334  0.1040 -0.0817
15379W        W31853   9.902   1.731  11.806 -0.1067  0.2795 -0.0162
15380W        W31854  17.190   0.269  13.468 -0.0848  0.0720  0.2209
15381W        W31855   4.017   1.487   3.203  0.0506 -0.1203  0.1467
15382W        W31856   4.633   3.524  13.028  0.0927 -0.0312 -0.2593
15383W        W31857   7.642  10.656  13.938 -0.0410  0.1026 -0.1696
15384W        W31858  15.074  10.441   0.385 -0.2194  0.2745  0.2155
15385W        W31859  12.868   0.279   3.697 -0.1223 -0.3693 -0.0600
15386W        W31860  14.120   8.025  12.105 -0.1936  0.2710  0.1323
15387W        W31861   1.781   0.756   3.913 -0.2283 -0.1031 -0.1712
15388W        W31862  17.997  10.133   1.404  0.1077 -0.3064 -0.0862
15389W        W31863  11.580  10.272  15.447 -0.0352 -0.0520  0.0478
15390W        W31864   3.533   1.906   1.176 -0.5551  0.0137 -0.0124
15391W        W31865   1.911   1.356  12.012 -0.4137  0.5091 -0.2163
15392W        W31866   0.588   6.582   1.850  0.1295  0.0943  0.0813
15393W        W31867   6.662   1.497  11.750  0.0142  0.0736  0.2073
15394W        W31868   5.477  15.725   1.215 -0.2240 -0.1414  0.0060
15395W        W31869  14.470   4.811  16.244 -0.3861  0.0129  0.2488
15396W        W31870   7.730  11.349   5.256 -0.2035  0.0231  0.0229
15397W        W31871   5.700  11.566   2.777  0.0952  0.2806 -0.0855
15398W        W31872  12.876  14.113  11.190  0.2885  0.0439 -0.0346
15399W        W31873  17.920  11.711  14.646 -0.2987  0.3221 -0.3405
15400W        W31874  15.689   4.664  14.972 -0.0334  0.1403  0.0176
15401W        W31875  14.040  10.775  15.841  0.2493  0.0646 -0.2451
15402W        W31876  11.913   3.355   3.331 -0.0261 -0.0703 -0.1350
15403W        W31877   5.015  14.031  13.985 -0.0114  0.1741  0.1089
15404W        W31878   4.314  12.931  14.483 -0.2819  0.1682 -0.0240
15405W        W31879   8.744   4.864  11.532 -0.0712  0.2656 -0.1601
15406W        W31880  14.501   1.218  14.295  0.0178 -0.0409 -0.2846
15407W        W31881   5.454  12.503  13.775 -0.1267  0.0625 -0.0949
15408W        W31882  17.886  15.255  12.799  0.1729 -0.1372  0.3253
15409W        W31883   7.908   6.644  15.622 -0.2146 -0.1842  0.1454
15410W        W31884   8.295   2.851   6.155  0.1979 -0.5585 -0.1196
15411W        W31885  11.801   9.474  14.337 -0.1101 -0.0426 -0.0277
15412W        W31886  15.805  12.410  11.099  0.1158 -0.0896  0.0808
15413W        W31887  14.254  12.957  14.340  0.1305 -0.0012 -0.1575
15414W        W31888  11.688   5.997  11.449 -0.0555  0.1767  0.0037
15415W        W31889   2.742  10.401   3.171  0.0174 -0.2794  0.1347
15416W        W31890  10.154  10.066   1.274 -0.1483  0.0782 -0.0219
15417W        W31891  17.470  16.606   2.390 -0.2013  0.1329  0.3509
15418W        W31892   7.463  11.327  13.604 -0.1419  0.1755 -0.2423
15419W        W31893   9.207   0.980  13.372 -0.1878 -0.3685 -0.1394
15420W        W31894  18.134   4.735  12.470 -0.2968 -0.2930  0.1595
15421W        W31895   1.579   1.675   4.936 -0.0934 -0.2789 -0.0270
15422W        W31896  10.796   7.082   2.830 -0.3921 -0.0353  0.0697
15423W        W31897   2.498  11.389  11.363 -0.2206  0.3183  0.3843
15424W        W31898  14.028  12.320   0.027  0.0553 -0.1236 -0.0133
15425W        W31899  14.987   2.392  15.345 -0.3312 -0.0695 -0.1272
15426W        W31900  13.783   0.320   0.168  0.0529  0.0340 -0.3440
15427W        W31901  13.745   5.170   4.607  0.1976 -0.1012  0.0161
15428W        W31902   4.942   9.310   2.055 -0.2834 -0.0642  0.1598
15429W        W31903   8.101  10.886  15.126  0.4271  0.4394  0.0205
15430W        W31904   5.968   6.025   4.675  0.0421  0.0961 -0.1825
15431W        W31905   4.889   6.110  15.816  0.1204 -0.1693  0.1154
15432W        W31906  11.545  10.264  13.109 -0.1340  0.0299 -0.1926
15433W        W31907   8.155  10.452   1.055  0.1561 -0.1275 -0.0574
15434W        W31908   5.227  13.583  13.813 -0.4090  0.1344  0.2648
15435W        W31909   0.357   5.236   1.754  0.1380  0.4318 -0.2366
15436W        W31910   3.383   0.227   1.162  0.1813  0.0189  0.1677
15437W        W31911  11.897  13.097   0.844  0.1108 -0.0714 -0.0317
15438W        W31912   8.438  16.030  15.710  0.1849  0.0437 -0.0756
15439W        W31913   4.865   9.703  14.661  0.0587  0.0137  0.0227
15440W        W31914   1.190  14.451  16.223 -0.2017 -0.1856 -0.1014
15441W        W31915  10.605  16.299   4.587  0.0187 -0.0104  0.1377
15442W        W31916   3.776   4.544  12.402  0.2467 -0.2056 -0.1903
15443W        W31917  10.161  17.302  12.288  0.0880 -0.0044 -0.0628
15444W        W31918   1.374   7.666   2.760 -0.0709 -0.0322  0.1193
15445W        W31919   3.998   9.573  13.386  0.2863  0.0640  0.0546
15446W        W31920  10.437   0.048   1.173  0.0331 -0.2052 -0.0562
15447W        W31921   5.432   4.338   4.749  0.0124 -0.0043  0.0443
15448W        W31922   3.678  15.878  12.303  0.1270 -0.2716  0.2584
15449W        W31923   3.755   2.277   4.862 -0.1291 -0.2823 -0.0180
15450W        W31924   2.450  15.773  11.350  0.0613 -0.3530 -0.0177
15451W        W31925   0.281   4.634  13.239 -0.0359  0.1779  0.1077
15452W        W31926  12.034  13.315   1.377  0.1525  0.1714  0.1301
15453W        W31927  14.000  10.249  15.752  0.1194  0.1207  0.0019
15454W        W31928  14.452   6.703   0.711 -0.0904 -0.0079  0.1677
15455W        W31929   8.962  11.112   4.313 -0.1052  0.1513 -0.0156
15456W        W31930   2.553   2.537   5.942  0.1199 -0.3545  0.0453
15457W        W31931   3.226   9.269   4.931 -0.0340 -0.1481 -0.0426
15458W        W31932   2.628   4.473   1.303  0.1632 -0.0629 -0.1803
15459W        W31933   7.236  16.021   5.587  0.0102  0.1860  0.0764
15460W        W31934  12.798   8.440   3.965  0.1315 -0.0242 -0.0614
15461W        W31935  13.518  12.653   0.030  0.1056 -0.0485 -0.0567
15462W        W31936   8.509   9.187  15.678  0.1817 -0.0217 -0.2618
15463W        W31937  16.926   5.357  13.469 -0.0288 -0.0202  0.0166
15464W        W31938  16.472  12.470   3.699  0.1535 -0.2618 -0.0328
15465W        W31939   8.528   1.255  14.392 -0.0109 -0.1822  0.0245
15466W        W31940  12.348   3.425  13.452 -0.3439  0.0792  0.0203
15467W        W31941   8.853   1.007   6.330  0.0279 -0.0761 -0.1532
15468W        W31942  11.101   5.284   3.555 -0.0611  0.0908 -0.0683
15469W        W31943  13.605   2.289   3.953 -0.1536  0.1966 -0.2702
15470W        W31944  14.450   2.359  15.573  0.2322 -0.1546  0.1186
15471W        W31945  17.975  12.650  14.548 -0.3028  0.2956 -0.0477
15472W        W31946  16.984   6.629   2.004 -0.1611 -0.1450  0.0757
15473W        W31947  14.983   4.769  16.058  0.0906 -0.0816  0.0032
15474W        W31948   7.092  16.369   5.216 -0.1481 -0.0389 -0.2415
15475W        W31949   8.065   0.338  14.167 -0.1742  0.0904  0.2119
15476W        W31950   2.516   9.280   3.434 -0.4476 -0.1100  0.1174
15477W        W31951   7.959  15.902  12.139  0.1729  0.2877  0.1446
15478W        W31952  15.601   0.024  14.160 -0.0346  0.0342  0.2163
15479W        W31953   2.977  12.636  15.084  0.1024 -0.0027 -0.1510
15480W        W31954  11.822  11.711  13.104 -0.1021  0.1116 -0.0728
15481W        W31955  14.510  16.040  14.135  0.0571  0.0792  0.1267
15482W        W31956   2.753  16.607  14.598  0.1961 -0.0883  0.0194
15483W        W31957   3.132  17.799   4.795 -0.0898 -0.0444  0.2211
15484W        W31958   5.172   1.760  11.760  0.4077  0.1004 -0.1551
15485W        W31959  14.851  14.163  11.581 -0.0346  0.0945 -0.0047
15486W        W31960   1.334   6.468  12.115 -0.0056 -0.0099 -0.0852
15487W        W31961  12.721   1.231   4.536 -0.4183  0.0702  0.0014
15488W        W31962   3.434  15.089   2.000 -0.3014 -0.0599 -0.0037
15489W        W31963   8.736   8.406  14.720  0.0608 -0.0691 -0.1743
15490W        W31964   4.298   1.333   5.599  0.1051  0.2556 -0.0354
15491W        W31965   0.727   5.331   3.871  0.0347  0.0328 -0.0930
15492W        W31966   2.490  13.988   2.929  0.1896  0.0774 -0.0297
15493W        W31967   5.412   9.105  12.840 -0.0455  0.1152  0.0911
15494W        W31968  12.373   2.377   0.041 -0.2029 -0.0652  0.1830
15495W        W31969  10.034  15.888  14.934 -0.2266 -0.0402  0.0110
15496W        W31970  14.173   9.932   5.638 -0.0273  0.1061 -0.2704
15497W        W31971   0.384  13.138  12.924 -0.3151  0.2255 -0.1664
15498W        W31972   2.054   0.294   3.736 -0.0362  0.3411 -0.0029
15499W        W31973  15.555   9.191  11.884  0.0248 -0.3168 -0.0569
15500W        W31974   9.367   6.544   0.363  0.1642 -0.2175 -0.0262
15501W        W31975   8.387  14.001   3.547 -0.1169 -0.0891 -0.3089
15502W        W31976  17.835   8.995   5.020  0.2062  0.0905 -0.1360
15503W        W31977  15.161  16.671  12.635 -0.1481  0.4044  0.0763
15504W        W31978   8.697   3.554   2.998  0.0473 -0.1681  0.0169
15505W        W31979   6.456  13.036  15.286  0.1270  0.0430  0.1318
15506W        W31980   4.181  15.899   5.859  0.1275 -0.0582 -0.0262
15507W        W31981   7.249  13.031   2.903 -0.1823  0.1899 -0.3434
15508W        W31982  16.567  14.612   2.358 -0.2516  0.0408 -0.0795
15509W        W31983  13.890  11.983   0.885  0.0296  0.0687 -0.0082
15510W        W31984  17.620   9.553  13.471 -0.2847  0.1908 -0.0064
15511W        W31985  12.742   2.644   0.616  0.2722 -0.1583 -0.0280
15512W        W31986   9.316  16.678  15.862 -0.1607 -0.1552  0.1421
15513W        W31987  15.330   6.620  14.839 -0.2408  0.3925 -0.1514
15514W        W31988  15.526  14.491   5.304  0.5461 -0.0392  0.3446
15515W        W31989   5.107  13.212   3.267 -0.1634 -0.0542  0.0549
15516W        W31990  15.698   5.152   1.132  0.3484 -0.0274  0.0892
15517W        W31991   1.095   2.833   5.338  0.0726  0.1485 -0.0569
15518W        W31992   9.041  14.287   1.612 -0.2269  0.0215 -0.1115
15519W        W31993   8.908   4.421  14.200 -0.0764 -0.3032 -0.0828
15520W        W31994  14.491   9.205   4.764 -0.0448  0.3285  0.2273
15521W        W31995  11.104  14.437   4.428 -0.0042  0.2301 -0.0951
15522W        W31996  10.791   3.037   0.526  0.0857  0.0163 -0.0216
15523W        W31997   1.225   5.887  11.465  0.3250  0.0267 -0.0325
15524W        W31998  17.564  13.950  13.099 -0.0387 -0.1047 -0.1858
15525W        W31999  17.692  13.079   2.001  0.1460 -0.0433 -0.0081
15526W        W32000  14.665   0.640  16.349  0.1833  0.2591  0.1832
15527W        W32001  15.217   5.457   0.174 -0.0610 -0.1006  0.1882
15528W        W32002  12.962   3.527   1.564  0.0548  0.1698 -0.2342
15529W        W32003   4.090  11.903   5.081 -0.3727  0.1378  0.0369
15530W        W32004   5.226   2.736  15.084  0.0584 -0.0617 -0.0607
15531W        W32005   2.061  16.086   0.216 -0.4088 -0.0312 -0.2776
15532W        W32006  17.074   2.511  10.703 -0.0535  0.3075  0.1440
15533W        W32007  17.372   2.949  16.002 -0.3774  0.2349 -0.1336
15534W        W32008   8.109   5.354  16.003  0.2827  0.1125  0.4330
15535W        W32009  15.260  14.291   3.197  0.1872  0.0901 -0.1300
15536W        W32010  14.862  12.410   3.501  0.0505  0.0731 -0.1643
15537W        W32011  14.125   4.155   2.485  0.1532 -0.1790 -0.2610
15538W        W32012  12.494  16.837   0.473  0.1292 -0.0198 -0.0347
15539W        W32013  14.392  11.922  13.113 -0.0627  0.3856 -0.0931
15540W        W32014  16.533  16.824   0.343 -0.1835  0.1074 -0.0342
15541W        W32015   0.209   4.201   3.763  0.2114 -0.2087 -0.1631
15542W        W32016   0.526   9.605   0.885  0.4476 -0.1932  0.0794
15543W        W32017   6.330  12.400   1.469  0.3786  0.1032 -0.1501
15544W        W32018   9.651   7.604   3.225  0.2434  0.2034 -0.0915
15545W        W32019   0.600   4.982   2.110 -0.2530  0.0815  0.1251
15546W        W32020  16.369   2.675  15.844  0.0007 -0.2512 -0.2107
15547W        W32021   7.154  13.610   0.494  0.1272 -0.1274  0.0896
15548W        W32022  10.627   2.379   2.664  0.0596  0.0104 -0.1766
15549W        W32023   0.305   4.073  10.380 -0.0128 -0.0852  0.1272
15550W        W32024   5.790  16.570   1.359  0.0925  0.0427  0.0386
15551W        W32025   6.420  12.221  13.185 -0.1005 -0.1102  0.1484
15552W        W32026   1.424   3.015  16.061  0.0397 -0.1904 -0.0504
15553W        W32027  12.873   5.917   3.800 -0.0448  0.1643 -0.1698
15554W        W32028   7.235   8.137  12.967 -0.0841  0.0943  0.1732
15555W        W32029   2.250   2.220   5.751 -0.0861 -0.1444 -0.0347
15556W        W32030   2.912  12.763   1.278 -0.2131 -0.1992  0.5168
15557W        W32031  11.683  17.943   4.831 -0.0898  0.0367 -0.2640
15558W        W32032   8.460  12.620  11.428 -0.0987  0.2276 -0.0650
15559W        W32033   8.457  14.464   2.699 -0.0907 -0.5503  0.1728
15560W        W32034  14.652   4.219   4.957  0.0565  0.3250  0.0517
15561W        W32035  16.551  16.478  11.730 -0.0169 -0.2027 -0.0199
15562W        W32036  16.849  15.832  14.425  0.0975  0.0084 -0.0997
15563W        W32037   7.499   6.813  15.310 -0.2086 -0.1094  0.0183
15564W        W32038   7.975   1.397   4.071  0.1436  0.0061 -0.0277
15565W        W32039   8.332  17.826   4.202  0.1297 -0.1040  0.0162
15566W        W32040  10.775  15.014  12.377 -0.0672  0.0103  0.0200
15567W        W32041   7.774  17.407   5.239 -0.2480 -0.1394 -0.2256
15568W        W32042   4.497  17.678   1.419 -0.0787 -0.0489  0.1247
15569W        W32043  16.711  16.491   1.722  0.4803 -0.3055  0.1272
15570W        W32044  11.818  11.727  12.534  0.1425 -0.0255 -0.4249
15571W        W32045  10.533   4.159  14.150 -0.0228  0.2472  0.1782
15572W        W32046  15.392  13.695  11.697  0.2457 -0.0163  0.2657
15573W        W32047  13.420  13.147  11.848 -0.5396  0.0083  0.1023
15574W        W32048  13.643  16.680  13.772 -0.2229  0.0437 -0.1808
15575W        W32049   7.355   1.479   2.550 -0.1880  0.2625 -0.1423
15576W        W32050   0.091   6.450   4.794 -0.0830 -0.2433 -0.0837
15577W        W32051   7.383   7.249   5.361  0.0599  0.0229 -0.1922
15578W        W32052   0.073  10.232   4.969 -0.0321  0.1570  0.0591
15579W        W32053   7.738  16.160  14.016  0.0776  0.0130  0.2329
15580W        W32054  15.673  10.318  11.876  0.0092  0.1987  0.0650
15581W        W32055  11.696  16.155  13.110 -0.0633  0.1853  0.0984
15582W        W32056  11.991   7.715  15.414 -0.0333 -0.0640  0.1354
15583W        W32057   7.298  10.110   2.593 -0.0005 -0.1466 -0.2869
15584W        W32058  10.919  16.878  11.796  0.0495  0.1266 -0.0458
15585W        W32059  12.897   8.431  14.623  0.1763  0.0677 -0.0592
15586W        W32060  16.632  12.214  11.442 -0.3120 -0.1737 -0.0350
15587W        W32061   0.740   1.113  12.994 -0.0232 -0.2659 -0.0688
15588W        W32062   7.503  17.992   4.348 -0.2400  0.1334  0.0742
15589W        W32063   1.238  14.743  15.297 -0.1733  0.3319 -0.0976
15590W        W32064   2.218  12.266   0.632  0.5546  0.2779 -0.0960
15591W        W32065   1.115   8.115   0.594 -0.0541  0.1583  0.1978
15592W        W32066   0.245  10.149  13.927  0.1056 -0.0686  0.0473
15593W        W32067  18.149  18.031  14.864  0.1275 -0.0740 -0.0421
15594W        W32068   0.624  17.317  13.372 -0.1099 -0.0771  0.0599
15595W        W32069  17.801   3.805  15.991 -0.1478 -0.2372 -0.2524
15596W        W32070  13.861  12.633   2.388 -0.0081 -0.1234  0.1369
15597W        W32071   3.096   4.366  14.578 -0.1188  0.1019 -0.2183
15598W        W32072   0.165   8.931  13.424 -0.2370  0.1221 -0.1512
15599W        W32073   0.124   7.943   3.904  0.3534 -0.1642  0.0004
15600W        W32074  16.141  10.303  12.469 -0.3589 -0.0248 -0.2397
15601W        W32075  10.796  17.777  15.729 -0.1622 -0.0831  0.0772
15602W        W32076   1.857   2.543   4.259 -0.0494  0.0423  0.0970
15603W        W32077   0.575   2.317   6.404 -0.0936 -0.2497  0.0200
15604W        W32078   6.930  10.040  15.185  0.0803 -0.0903  0.0008
15605W        W32079   1.397  11.501   1.461  0.1764 -0.0436  0.0805
15606W        W32080  11.751   5.727  14.273 -0.0672  0.0584 -0.2342
15607W        W32081   8.437   5.750   4.236 -0.2989 -0.2729 -0.0806
15608W        W32082   7.410  15.824   0.363 -0.3477 -0.0252  0.3483
15609W        W32083  13.505   6.722  11.070  0.0156 -0.3981  0.2698
15610W        W32084   3.265   5.263   4.725  0.0301 -0.0839  0.3367
15611W        W32085   8.745   2.174   4.525 -0.0037 -0.2487  0.0361
15612W        W32086  17.068  15.956  15.268 -0.0273 -0.0712  0.2719
15613W        W32087   6.409  14.330  14.407 -0.1174 -0.0802 -0.0013
15614W        W32088  17.549   5.104   3.389  0.1282  0.2246 -0.0042
15615W        W32089   0.730  13.607   1.012 -0.1510  0.1947 -0.0949
15616W        W32090   3.966  11.992  13.736  0.2021  0.2445 -0.2813
15617W        W32091   3.201   7.666   3.186 -0.0840 -0.0709 -0.0736
15618W        W32092  12.036   1.210  12.170 -0.0552 -0.1072 -0.0745
15619W        W32093  10.980   1.574  15.684  0.0565  0.0386  0.1444
15620W        W32094   3.477  16.575  14.086 -0.0479  0.4255 -0.3700
15621W        W32095   6.992   9.156  13.550  0.3349 -0.2184  0.2548
15622W        W32096  10.745   7.851  13.736 -0.1214 -0.1594 -0.0281
15623W        W32097   2.815   5.594  13.767  0.0018  0.0932  0.0558
15624W        W32098  14.436   6.937   2.821 -0.0770 -0.0820  0.1343
15625W        W32099   0.568   4.475  14.332 -0.2035 -0.0422  0.2234
15626W        W32100  14.261   4.298   0.807 -0.1164 -0.2171  0.2152
15627W        W32101   8.274   5.000   2.139  0.0512  0.1112  0.2951
15628W        W32102  16.273   3.475  14.573  0.0386 -0.0579  0.0969
15629W        W32103   7.620   1.808  14.659 -0.0776 -0.0078  0.0633
15630W        W32104   6.756  14.455  14.751  0.3266  0.1557  0.1009
15631W        W32105  10.880   7.702  15.250 -0.1078  0.0395 -0.0053
15632W        W32106   0.426   2.424  11.846 -0.1633 -0.0708 -0.0275
15633W        W32107   5.468  10.164   4.315 -0.1246  0.1522 -0.1788
15634W        W32108  17.296  12.599  13.650  0.2455  0.1806  0.2698
15635W        W32109   3.196   4.262   2.128 -0.1171 -0.0427 -0.1598
15636W        W32110  11.798  12.402   5.837 -0.0224 -0.0999 -0.1419
15637W        W32111   0.093   6.302  15.963 -0.2905 -0.1217 -0.0180
15638W        W32112   3.679   9.662   1.620  0.1451  0.2031  0.3943
15639W        W32113  13.604   1.085   5.144 -0.0391  0.3905 -0.0225
15640W        W32114  11.157  17.291   4.265 -0.3299 -0.0609 -0.3463
15641W        W32115  11.660  13.386  14.764 -0.2293  0.1963 -0.0903
15642W        W32116  11.186  14.983  14.540 -0.0689 -0.1512  0.1678
15643W        W32117   9.643   9.298  11.725 -0.1999  0.1928 -0.2337
15644W        W32118   1.752   9.744  12.910 -0.2887  0.0066  0.3485
15645W        W32119  11.680  15.700  12.591  0.1622  0.0679  0.1883
15646W        W32120   9.441   8.203   1.488  0.4688 -0.0319  0.3368
15647W        W32121  16.384   6.227   4.070  0.3587  0.0740  0.2713
15648W        W32122  17.242  18.002  13.161  0.0034  0.2815 -0.1159
15649W        W32123  13.153  14.502  11.331 -0.0134 -0.1009 -0.1873
15650W        W32124   8.790  17.349   5.239 -0.0379  0.3822 -0.0774
15651W        W32125   5.796  17.494   3.954 -0.1887 -0.2223 -0.0490
15652W        W32126  17.460   5.286  14.086 -0.1604  0.1089 -0.2522
15653W        W32127   8.759   9.694   4.893 -0.0570  0.1205 -0.1650
15654W        W32128  11.637  13.601   4.648  0.1293 -0.2494  0.0302
15655W        W32129   2.721  14.748   4.238 -0.0724  0.0175  0.1833
15656W        W32130  10.387  10.500   3.757 -0.1405 -0.0362  0.3952
15657W        W32131  15.230  16.501   4.304 -0.2235 -0.2396 -0.1307
15658W        W32132   4.840  12.520   5.016 -0.2245  0.0032  0.0154
15659W        W32133  17.347   2.716  11.517 -0.0796  0.2143 -0.1848
15660W        W32134  16.967   6.728  14.818  0.2415 -0.0675  0.1620
15661W        W32135  14.236   8.803   3.350 -0.2566  0.2399  0.0446
15662W        W32136  16.375  15.681  13.182 -0.0151  0.1725  0.0223
15663W        W32137   4.792   1.226   3.252 -0.1790 -0.0380  0.1804
15664W        W32138  13.925  16.478   4.694  0.2615 -0.1614  0.1591
15665W        W32139  10.057   1.245   1.159  0.0155 -0.0536  0.0484
15666W        W32140   3.656  10.146  13.841 -0.2061  0.0174 -0.0186
15667W        W32141   0.824  16.080  16.154 -0.3713  0.0465  0.0496
15668W        W32142  17.463   0.787   3.404  0.1776 -0.2969 -0.1626
15669W        W32143   9.530  11.097  16.330  0.0010 -0.0298 -0.1175
15670W        W32144  16.846  12.447  15.590 -0.0186  0.1355  0.4191
15671W        W32145  16.836  18.103  14.753 -0.1585  0.2533 -0.1763
15672W        W32146   2.109  13.070   1.886 -0.1283  0.1116  0.1802
15673W        W32147   9.599   8.302   3.938  0.1912 -0.2964  0.0118
15674W        W32148   6.647  17.426  15.955  0.1114 -0.2852 -0.5166
15675W        W32149  17.923  14.561   5.489  0.2220 -0.1734 -0.0887
15676W        W32150   9.595  14.317  14.392  0.1018  0.0973 -0.0768
15677W        W32151  16.567   2.911   4.206  0.1379  0.0479  0.1880
15678W        W32152  17.153   9.862   1.878  0.0826  0.0307  0.4876
15679W        W32153  12.755   2.110   1.755 -0.0218  0.1101 -0.2100
15680W        W32154   6.087   7.480  12.225  0.1977  0.2683 -0.0205
15681W        W32155  13.042  16.731  12.989  0.1315 -0.1379 -0.1822
15682W        W32156  18.033   0.180   4.319  0.1759  0.1909  0.0618
15683W        W32157   3.027   8.651  13.210 -0.2053 -0.0385 -0.1489
15684W        W32158  17.863   1.539  16.347  0.3497  0.2562  0.0138
15685W        W32159  11.780   6.745  15.341  0.0287 -0.1578  0.3987
15686W        W32160  13.401   7.536  14.430  0.2151 -0.0588  0.0273
15687W        W32161   5.894  14.578  11.517 -0.2332  0.0857  0.1699
15688W        W32162  14.706  13.699   3.887  0.0772 -0.1141 -0.1317
15689W        W32163   9.332  13.641   5.637  0.1637 -0.2580  0.0357
15690W        W32164   0.989  17.083  13.602  0.0939  0.2828  0.1892
15691W        W32165  14.002   6.321  13.586 -0.2734 -0.3366 -0.0348
15692W        W32166  15.152   3.041  12.259  0.0954 -0.2676 -0.1683
15693W        W32167  12.051  10.319   0.861 -0.0962  0.0293 -0.1775
15694W        W32168  10.780   0.110   3.334 -0.0208 -0.1945 -0.0504
15695W        W32169  13.852   9.975   4.179  0.1556  0.2590 -0.1314
15696W        W32170   6.445  11.409   1.547  0.3253 -0.4070 -0.0295
15697W        W32171  13.783   4.003  14.304 -0.0585  0.1032 -0.5260
15698W        W32172   9.122   7.040   2.461  0.1063 -0.0116  0.0039
15699W        W32173  17.582  11.085  16.310 -0.0930 -0.0941 -0.3125
15700W        W32174   3.156  15.626   2.474  0.0372  0.0042 -0.1080
15701W        W32175   2.609  12.125  12.623  0.0629 -0.0340 -0.0409
15702W        W32176   8.262  10.653   2.632 -0.0922  0.0510 -0.0754
15703W        W32177   2.227  16.038  11.752  0.0921 -0.0745  0.2040
15704W        W32178   1.219  10.638  12.798 -0.0393 -0.0714 -0.0910
15705W        W32179  10.205   0.852   3.190  0.0266 -0.0051 -0.0657
15706W        W32180  16.255  14.121  13.882  0.1386 -0.2479  0.0156
15707W        W32181   8.191   1.639   5.097  0.0443 -0.0415  0.1843
15708W        W32182   8.239  11.058   1.191 -0.0198 -0.0470  0.1419
15709W        W32183  14.394  11.272  12.565 -0.1137 -0.2045 -0.2004
15710W        W32184  14.282   8.613  12.844 -0.0444  0.1882 -0.3779
15711W        W32185  14.872   2.922   3.395 -0.1048 -0.2595  0.0006
15712W        W32186  12.969  13.112   1.822  0.2570  0.1982  0.6263
15713W        W32187   7.607   4.012   2.291 -0.0594  0.0288  0.1759
15714W        W32188   2.048   0.300  11.845 -0.2432  0.2510  0.1271
15715W        W32189  11.292  17.939  11.524 -0.1157  0.0120  0.1272
15716W        W32190   1.661   5.690   4.472 -0.0831 -0.0021  0.1940
15717W        W32191   3.174   6.785  12.547 -0.5264  0.3354  0.1345
15718W        W32192  17.943   4.333  11.842  0.0557 -0.2880 -0.0609
15719W        W32193  18.042  17.746   0.476  0.0494  0.1301 -0.3969
15720W        W32194   8.311   0.772   3.469  0.0500  0.0228  0.0736
15721W        W32195   4.475   4.511   4.903 -0.0301  0.0978  0.0417
15722W        W32196   3.936   1.586  10.559 -0.1914  0.1287 -0.0649
15723W        W32197   8.131  17.135   0.138  0.4090 -0.0840 -0.5274
15724W        W32198  13.333  13.455  15.814 -0.2465  0.1488  0.3193
15725W        W32199   9.568  15.425   4.097  0.1938  0.0689 -0.0636
15726W        W32200  15.641   5.660  14.484 -0.0726  0.0122 -0.0603
15727W        W32201  11.353   7.680   4.706  0.1292 -0.1993 -0.0091
15728W        W32202  10.091  12.350   3.425 -0.5021  0.0174 -0.0141
15729W        W32203   3.940   0.975  16.064 -0.2388  0.0673 -0.0857
15730W        W32204  16.604   1.526   4.241  0.1321 -0.0723 -0.1179
15731W        W32205  15.850   2.007   5.241  0.0242  0.2491  0.1717
15732W        W32206   8.263  16.076  15.062 -0.0155  0.0773  0.1527
15733W        W32207  11.023  16.793   2.209  0.0195 -0.3063 -0.0857
15734W        W32208  17.843   5.932  15.807 -0.2631  0.0841  0.1506
15735W        W32209   1.544  17.745  11.873 -0.1955 -0.1944  0.0076
15736W        W32210  16.286  14.191   3.935 -0.0926  0.0036  0.0272
15737W        W32211   0.285   3.706   5.123  0.0036 -0.0340 -0.0228
15738W        W32212   8.003   8.755  12.803 -0.3620 -0.0617 -0.0968
15739W        W32213   5.370   5.797  15.900  0.1369  0.1339 -0.2164
15740W        W32214   7.392   3.183   5.130 -0.0664 -0.1261 -0.1179
15741W        W32215  10.046   6.840  12.051 -0.1427  0.1525 -0.2825
15742W        W32216   7.672  17.487   3.939 -0.3335  0.0620 -0.2989
15743W        W32217  10.531  12.356   0.033  0.1528  0.0279  0.1095
15744W        W32218  10.533  11.078  15.947  0.1950  0.0823 -0.2226
15745W        W32219  12.625  10.284   4.198  0.0647 -0.0513  0.1246
15746W        W32220  17.709   2.957  15.559  0.0178  0.0989  0.2216
15747W        W32221   3.650   0.387  13.150  0.0284 -0.1446 -0.1319
15748W        W32222  12.637   5.214   3.852 -0.4393  0.2221 -0.1016
15749W        W32223  16.529  11.069  15.587 -0.1044  0.1391 -0.0575
15750W        W32224   2.830   1.609  13.007 -0.1404 -0.1400 -0.0157
15751W        W32225   0.613  14.197   5.320 -0.0756 -0.0738  0.3544
15752W        W32226   8.119   9.264  12.652  0.0374  0.0935  0.3495
15753W        W32227  14.848  15.054   3.184 -0.2592 -0.0717  0.0317
15754W        W32228   8.233   5.186  15.529 -0.0889  0.1664  0.2705
15755W        W32229  11.354  15.955   0.588 -0.2687  0.1447  0.3325
15756W        W32230   4.526   9.688   0.146  0.1922 -0.1942  0.0401
15757W        W32231   7.531   3.322   4.043  0.1168  0.0890 -0.0128
15758W        W32232   1.980  12.883  13.846  0.0739  0.1257 -0.1939
15759W        W32233   6.581   4.420   4.026 -0.0612  0.0625 -0.2282
15760W        W32234  17.640  16.494  11.511  0.1335  0.2422  0.0998
15761W        W32235   5.029   5.829  16.290  0.1614  0.0020 -0.1964
15762W        W32236  12.017   6.508   5.299 -0.1471  0.0795 -0.2065
15763W        W32237   3.188  13.941  13.156 -0.2930 -0.0996 -0.1018
15764W        W32238   8.915   6.656  15.251 -0.0120 -0.0750  0.4486
15765W        W32239   3.938   8.603  11.160 -0.0082  0.0298 -0.1191
15766W        W32240   7.557   7.129   1.373 -0.2622 -0.0458 -0.3282
15767W        W32241   1.793  15.051  12.836  0.0324  0.1677  0.0831
15768W        W32242  10.508   7.499  16.115  0.0510  0.0654  0.1733
15769W        W32243  11.595  16.581  16.345  0.0023 -0.1470  0.0147
15770W        W32244   8.732   2.893   0.649 -0.1951  0.0120 -0.0866
15771W        W32245  14.899   6.790  15.683 -0.1123  0.2023 -0.1055
15772W        W32246  11.334   0.029   1.413 -0.1375  0.0773  0.1045
15773W        W32247  18.077  13.194   2.965  0.0293  0.0544  0.1131
15774W        W32248  14.068   2.321   2.524 -0.0030  0.1851  0.0440
15775W        W32249  14.062   3.921   3.020 -0.0869  0.2872 -0.0064
15776W        W32250  16.183   9.503   3.317 -0.3378  0.6159  0.1295
15777W        W32251  13.813  13.723   2.054  0.1522 -0.0639 -0.1867
15778W        W32252  13.520  13.139   4.955 -0.0649  0.0994 -0.0842
15779W        W32253   1.665  14.045  13.759  0.1648  0.1068  0.0866
15780W        W32254   3.448   0.090   3.079 -0.0090  0.0492 -0.0452
15781W        W32255   6.914   1.264  14.518 -0.0713  0.0392 -0.2488
15782W        W32256   4.927  16.668   6.046  0.2699 -0.0939  0.0903
15783W        W32257   8.468  17.178   2.914  0.0214 -0.2864 -0.0620
15784W        W32258   3.821   9.543   5.233  0.0028  0.0392  0.1085
15785W        W32259   6.550  18.093   5.148  0.0112 -0.1564  0.1214
15786W        W32260   7.887  13.459   0.872 -0.1025 -0.0412 -0.0430
15787W        W32261  12.033  16.222   2.863 -0.1054  0.1882 -0.2283
15788W        W32262  10.364   2.805   2.938 -0.1239 -0.0860  0.0306
15789W        W32263   4.660  11.407  15.376  0.0236  0.3013 -0.1328
15790W        W32264   4.957   4.212   2.485  0.1096  0.2302 -0.2182
15791W        W32265   3.012  10.576  14.666  0.1581 -0.1528  0.2475
15792W        W32266   9.638   8.306  12.454 -0.4310  0.2978 -0.2746
15793W        W32267  16.439  11.312   3.718 -0.0319 -0.1983  0.1709
15794W        W32268   3.509  13.833   2.543  0.0933  0.0500 -0.0230
15795W        W32269   6.749  17.927  11.679 -0.2494 -0.1638  0.1768
15796W        W32270   1.164   7.937   4.933 -0.1230  0.0108  0.1739
15797W        W32271  14.169   6.911   4.991  0.0165  0.1985 -0.3092
15798W        W32272  16.306   1.896   1.910  0.1973  0.0493  0.0038
15799W        W32273  12.796   0.247  13.399 -0.1105 -0.1034 -0.0529
15800W        W32274  11.117  11.924   2.738  0.0385 -0.1182 -0.2536
15801W        W32275  14.754  12.167   4.451  0.2044 -0.0967 -0.0065
15802W        W32276   9.847  15.096   2.325  0.3423  0.0627 -0.0488
15803W        W32277   9.453  14.730  16.316 -0.1563  0.3476  0.2071
15804W        W32278  10.320  16.010  11.791 -0.1212  0.2697  0.1183
15805W        W32279   5.378   9.156  13.338 -0.0337 -0.1437  0.0692
15806W        W32280  15.668   7.454   3.480 -0.0104 -0.0651  0.1427
15807W        W32281  15.864  14.450   4.916 -0.3772 -0.0974  0.2557
15808W        W32282  10.866  13.841  15.852  0.0570  0.0185  0.1314
15809W        W32283   9.230   0.995   0.779  0.2412  0.1848  0.1477
15810W        W32284  15.537  16.843   2.241  0.1811  0.1863 -0.0160
15811W        W32285  17.556  11.322  13.262 -0.0072  0.1000 -0.0815
15812W        W32286  13.926   6.978   3.024 -0.0300 -0.0681 -0.0686
15813W        W32287  15.871   0.097  11.286  0.3780 -0.1904  0.0437
15814W        W32288   8.635  15.879  11.195  0.0578 -0.1925 -0.0253
15815W        W32289  16.535   9.005   2.293 -0.0299 -0.2028  0.0741
15816W        W32290   4.013   6.643  11.183  0.0966  0.1384  0.1782
15817W        W32291   9.391   0.017  14.087 -0.1736 -0.1635  0.1722
15818W        W32292   4.096  15.419   3.286 -0.1640  0.2694  0.1866
15819W        W32293  16.858  16.817  11.562 -0.2533  0.1610  0.0483
15820W        W32294   4.749  14.292   2.501  0.0319  0.1453  0.1452
15821W        W32295   9.916  16.857   3.944 -0.2645  0.0398 -0.2315
15822W        W32296   2.984  11.262  12.878  0.3203 -0.2436  0.0520
15823W        W32297  10.708  11.386   1.943  0.2369 -0.0494  0.1709
15824W        W32298   6.989   9.585  14.843 -0.2107  0.0684  0.2024
15825W        W32299   6.349   6.563   4.779  0.2115 -0.1315 -0.2688
15826W        W32300   3.038  15.898  14.296  0.1338 -0.3937 -0.0412
15827W        W32301  11.008  11.525  11.467  0.0283  0.0680  0.0790
15828W        W32302   7.904   4.141  16.276 -0.0759  0.1151 -0.0506
15829W        W32303   6.535   2.441   1.028  0.1247 -0.0498 -0.1949
15830W        W32304  11.276  15.561  11.704 -0.1765 -0.0882 -0.1327
15831W        W32305   1.363   1.313   5.191  0.1590  0.1488 -0.1808
15832W        W32306   1.313   5.912  10.911 -0.4152 -0.0949  0.0359
15833W        W32307   9.936  12.720   4.484 -0.3005  0.1673 -0.0806
15834W        W32308   2.354  15.965  14.791 -0.0386  0.0604  0.2831
15835W        W32309   0.040   3.158  11.358  0.4915 -0.2765  0.1350
15836W        W32310  16.216   4.716   3.904  0.0346 -0.2152 -0.0517
15837W        W32311   7.543   9.952   0.587 -0.1972  0.0354 -0.0956
15838W        W32312  16.991   4.548  15.118 -0.3441  0.1728 -0.2405
15839W        W32313   6.779   7.376  15.490  0.2578  0.1110 -0.1282
15840W        W32314  11.465   3.114  14.289 -0.3780 -0.2102  0.0329
15841W        W32315   8.169   6.242  16.059 -0.1175 -0.1237 -0.1621
15842W        W32316  11.143  14.490  13.538  0.0486  0.3398  0.1941
15843W        W32317   1.998   2.613   2.608  0.1791  0.0203 -0.3216
15844W        W32318   4.294  18.039   3.473 -0.1714  0.0179  0.0821
15845W        W32319  10.140  16.375  13.580 -0.1104  0.0501 -0.0302
15846W        W32320   7.493   6.339  13.866 -0.2009 -0.1078  0.1013
15847W        W32321   6.064  17.494   2.010  0.1376  0.0808 -0.0235
15848W        W32322  18.063  13.940   3.504 -0.1998 -0.0287  0.0705
15849W        W32323  11.763  11.266  11.288  0.1747  0.0608 -0.1608
15850W        W32324   3.366  13.455   3.287  0.3015  0.1085 -0.1436
15851W        W32325   9.753   0.866   3.645  0.1507 -0.1220 -0.1541
15852W        W32326   6.526  13.910   3.511 -0.2517  0.3262 -0.1488
15853W        W32327  14.205  17.813  10.951  0.0110  0.1051 -0.1546
15854W        W32328  16.403   3.554  15.134  0.0885 -0.1851  0.0955
15855W        W32329   6.839   7.021  12.335  0.0361  0.2450 -0.0295
15856W        W32330  17.149  13.258  13.269  0.1774 -0.1158  0.0885
15857W        W32331   1.164   9.497   3.229  0.0937 -0.0298 -0.1476
15858W        W32332  17.460   2.216  10.809  0.2174  0.1638  0.0793
15859W        W32333   6.692  17.852   0.462 -0.0663 -0.2551 -0.1615
15860W        W32334  16.278   5.761  13.020 -0.0434  0.0970 -0.2268
15861W        W32335   2.905   6.310  15.325 -0.2183 -0.2996 -0.0973
15862W        W32336   7.350   4.011   3.298 -0.0423  0.2311 -0.2725
15863W        W32337   2.257   7.894   1.183  0.3579 -0.1035  0.0464
15864W        W32338  12.876   8.438   4.508  0.0478 -0.0466  0.1392
15865W        W32339   3.190  11.047   0.385 -0.0628  0.0076 -0.0031
15866W        W32340   3.664  14.214   1.094 -0.1576 -0.0142 -0.2851
15867W        W32341   2.314   1.914   1.959 -0.1219  0.1836 -0.0079
15868W        W32342  12.035   3.509  13.910  0.0171  0.0158 -0.0212
15869W        W32343   7.797  13.221  13.874 -0.0158  0.1454 -0.0852
15870W        W32344   3.639   6.981   1.973  0.3260  0.2149 -0.0233
15871W        W32345  16.475  11.124   1.471 -0.1301 -0.2241  0.3018
15872W        W32346   3.741   9.649  13.837 -0.1323  0.1930 -0.0207
15873W        W32347   4.841   0.589  15.895  0.0489 -0.1467  0.0018
15874W        W32348   4.000   2.670   4.504 -0.2048  0.0334  0.0190
15875W        W32349   3.199  11.331   5.087 -0.0910 -0.0017 -0.0615
15876W        W32350   7.464  13.482   4.325 -0.4434 -0.2041 -0.0754
15877W        W32351  15.821  10.372   3.439 -0.0040  0.2409  0.2269
15878W        W32352  14.475  11.282   0.689 -0.1500 -0.0690  0.1335
15879W        W32353   1.967   9.106  14.811 -0.2091 -0.0196 -0.1521
15880W        W32354   2.335   4.406   1.893  0.1070 -0.1218  0.3416
15881W        W32355   8.762   3.519   3.534 -0.2637 -0.1159  0.0414
15882W        W32356  17.701  10.160   2.312  0.2292  0.3413  0.2218
15883W        W32357   3.408  16.226  15.522 -0.0190  0.0974 -0.0965
15884W        W32358  10.378   0.562   2.003  0.1860  0.1667  0.2901
15885W        W32359   4.236  15.017  11.572 -0.1977  0.0781  0.3726
15886W        W32360  16.162   0.086   2.849  0.0690 -0.2212 -0.0212
15887W        W32361   0.265  12.823   3.010  0.1060  0.1095  0.2443
15888W        W32362   3.568   6.985  16.027  0.0286 -0.2315  0.0757
15889W        W32363   9.929   7.777  14.617  0.0544  0.0725 -0.1737
15890W        W32364   2.570   2.777   5.079 -0.3057  0.0798  0.0385
15891W        W32365   4.242   0.039  12.389 -0.2660  0.1540 -0.1113
15892W        W32366  14.530   1.417   4.150  0.0898 -0.2244  0.0946
15893W        W32367  10.783  15.219   5.293 -0.1786 -0.1251 -0.0869
15894W        W32368  16.078  11.895  12.404  0.0017  0.2702 -0.1277
15895W        W32369   9.094   4.920  13.216 -0.0196 -0.0292  0.0675
15896W        W32370   8.777   7.805  12.015 -0.1717 -0.3143  0.1166
15897W        W32371   9.476  12.173  15.889  0.0379  0.2091 -0.1621
15898W        W32372  17.645   9.647   3.144 -0.0727 -0.1535 -0.1142
15899W        W32373  12.010   7.233  13.227 -0.1578 -0.0576  0.2222
15900W        W32374  14.519   8.281   6.229 -0.0884 -0.2092 -0.2619
15901W        W32375   6.781  12.212  11.144  0.0572 -0.1108 -0.1528
15902W        W32376  12.330   0.210  13.604 -0.2027 -0.0251  0.1803
15903W        W32377  12.977  12.451   3.564  0.1820  0.1346 -0.2228
15904W        W32378  13.363   7.172  13.427  0.0921 -0.1961  0.2174
15905W        W32379   8.915   2.530   5.000 -0.1411 -0.2338  0.2983
15906W        W32380   6.802   0.332  11.545  0.0201  0.2602 -0.2318
15907W        W32381   1.073   8.822  15.874 -0.3123  0.1641  0.1390
15908W        W32382  10.281   6.741   4.457  0.2475 -0.0053  0.0211
15909W        W32383  13.547   3.929  13.270 -0.3613  0.1457 -0.1173
15910W        W32384  17.641   1.260   2.854  0.0542 -0.1632 -0.1515
15911W        W32385  14.412   4.409   2.854 -0.2358  0.2282 -0.2166
15912W        W32386  11.490   7.887  15.150  0.2799 -0.1580  0.5259
15913W        W32387  16.749  15.038   3.978 -0.1882 -0.0763 -0.1229
15914W        W32388   4.827  14.943  13.868 -0.3576 -0.1228  0.3224
15915W        W32389  10.013   2.980  12.235 -0.1556 -0.1719 -0.1556
15916W        W32390  17.770   4.201   3.822 -0.1603  0.2939 -0.0137
15917W        W32391  12.834   9.428  12.312 -0.4032  0.0513 -0.0422
15918W        W32392   6.698   9.288  13.141 -0.1993 -0.0388 -0.2506
15919W        W32393   7.807  11.321   1.398 -0.2917  0.0722 -0.1260
15920W        W32394   2.698   5.337   1.708 -0.1742  0.1251 -0.1549
15921W        W32395   0.964   9.398   0.758 -0.3689  0.0183  0.1960
15922W        W32396   5.251   4.468  14.781 -0.0029 -0.0477  0.1854
15923W        W32397  11.812   2.210  12.324  0.2434 -0.0094  0.3218
15924W        W32398   4.577  15.258   0.157 -0.0092 -0.1215 -0.1556
15925W        W32399  17.730  16.920  15.280 -0.0642  0.1336 -0.1932
15926W        W32400  10.297  16.361  11.435  0.0361  0.3898 -0.1681
15927W        W32401  10.961   3.626  15.353  0.1268  0.1316  0.3938
15928W        W32402   7.464  17.681   2.179 -0.1533  0.0113  0.1717
15929W        W32403   9.209   9.128   5.594  0.0217 -0.0387  0.2452
15930W        W32404   2.936   0.029   1.303  0.1219  0.0421 -0.2299
15931W        W32405  14.744   0.933   0.894 -0.0629 -0.0446 -0.0075
15932W        W32406   6.937  11.205   4.105 -0.1318 -0.3428 -0.0238
15933W        W32407  11.529   6.369  12.256 -0.0543 -0.0589 -0.5110
15934W        W32408   3.520   5.472  12.805 -0.0864  0.1201 -0.2324
15935W        W32409  12.327  15.191   1.333 -0.1535  0.3315 -0.0713
15936W        W32410   8.022   1.283  13.587  0.1725  0.1643  0.0600
15937W        W32411   3.924   3.545   0.664 -0.1762  0.0722  0.0313
15938W        W32412   7.601  15.991   4.676 -0.0768  0.0204 -0.2445
15939W        W32413  11.074  16.044  11.734 -0.2933 -0.0345  0.0110
15940W        W32414  10.233  12.738  13.560 -0.2586 -0.0708 -0.0145
15941W        W32415   5.685   3.789  14.534 -0.2915  0.0614 -0.1278
15942W        W32416  13.353   1.026  15.513 -0.0988 -0.2208  0.2984
15943W        W32417   4.393   8.670   5.293 -0.1710 -0.1123 -0.1441
15944W        W32418  10.100  12.170  15.443  0.2319 -0.1409 -0.0191
15945W        W32419   4.337   2.934   3.723 -0.3088 -0.0177 -0.0287
15946W        W32420   6.462  11.461   0.448  0.0333 -0.1349  0.0418
15947W        W32421   1.020  15.435  14.292 -0.0129  0.0637  0.0050
15948W        W32422  12.921   0.015   5.420  0.0691  0.1868 -0.0616
15949W        W32423  14.866  12.541  15.497  0.1861 -0.4079  0.0365
15950W        W32424  11.599   7.364   1.610  0.0790  0.1775  0.0786
15951W        W32425  13.524  14.751   4.279  0.1256 -0.4518 -0.0411
15952W        W32426   6.178  16.160   2.003 -0.1286 -0.1415 -0.1068
15953W        W32427   0.743  15.235   1.631 -0.3986  0.1157 -0.0741
15954W        W32428   2.819   4.770  13.535  0.1316  0.1806 -0.0063
15955W        W32429   8.165  16.826  12.208 -0.1672  0.0722  0.2376
15956W        W32430   2.679   9.360  13.981 -0.0234 -0.0697  0.2258
15957W        W32431  11.431   7.350   2.084  0.1019  0.1509 -0.0750
15958W        W32432  11.361  13.548   3.189 -0.1476  0.0561  0.0505
15959W        W32433  16.129  13.281  12.828 -0.3442  0.2512 -0.2478
15960W        W32434   0.798   0.313  13.555  0.0327  0.0971 -0.0031
15961W        W32435  14.063  15.918  15.647  0.2217  0.1125  0.2788
15962W        W32436   9.738  16.190   5.738 -0.0583 -0.0964  0.0348
15963W        W32437   9.212  10.021  12.833  0.0612  0.0887  0.0388
15964W        W32438  17.400   2.288   3.353 -0.0504 -0.1053  0.2142
15965W        W32439  12.303   4.300   2.798  0.1892  0.1901  0.1445
15966W        W32440   0.031   3.699   5.543  0.3521  0.0267 -0.1209
15967W        W32441   7.037   6.367  11.524 -0.3993  0.1569 -0.3513
15968W        W32442   5.791   2.885   3.482  0.1434  0.2750 -0.3712
15969W        W32443   4.685   0.764   4.585 -0.0690 -0.1134  0.3939
15970W        W32444   5.025  14.401  15.090 -0.0983  0.2327  0.2326
15971W        W32445   9.741   4.493  11.055 -0.0346  0.1973 -0.0751
15972W        W32446   4.326   9.548  13.762 -0.0728 -0.1869  0.0639
15973W        W32447  10.602   5.779  14.103 -0.1412  0.2790  0.0797
15974W        W32448  17.911  14.694  11.638 -0.2877 -0.0731 -0.0695
15975W        W32449  16.468   7.904   4.467  0.2407  0.3319  0.1797
15976W        W32450   3.740  12.047   2.909 -0.3373  0.2186 -0.0534
15977W        W32451   7.540   0.609   3.558  0.1219 -0.2352  0.0203
15978W        W32452  11.912   9.939   1.201  0.0689 -0.1813  0.1531
15979W        W32453  16.858   7.345  13.155  0.0255 -0.0438  0.3785
15980W        W32454   1.248  15.313   4.767 -0.0791  0.0730 -0.1617
15981W        W32455   7.204   6.433  13.018 -0.1250  0.1107 -0.1430
15982W        W32456   2.222  10.051  10.946 -0.1150  0.1954  0.2705
15983W        W32457   8.237   9.559   4.789  0.3028  0.1121  0.0083
15984W        W32458   9.214  13.350  13.002 -0.0977  0.1884  0.1423
15985W        W32459  10.460  12.129   1.743  0.2175  0.1345  0.0447
15986W        W32460   0.069   2.047  12.608 -0.2724  0.2159 -0.1606
15987W        W32461   3.069  10.812   3.250 -0.0316  0.1116  0.1053
15988W        W32462   0.833   7.509   1.998 -0.0827 -0.0375 -0.0583
15989W        W32463  13.704   3.370   5.806  0.1103  0.1307  0.1996
15990W        W32464  10.576   0.905   4.050 -0.2885 -0.0619  0.1736
15991W        W32465   7.467   8.379  13.789 -0.2439 -0.1675  0.0670
15992W        W32466   8.949   8.492   0.665  0.3743 -0.1113 -0.1372
15993W        W32467  16.490  12.610   5.942 -0.0092 -0.2368  0.1192
15994W        W32468   5.677  14.046   0.384 -0.2739 -0.0502  0.0064
15995W        W32469   9.203  17.447   5.562  0.0965  0.0647 -0.0714
15996W        W32470  15.694   7.036  12.196 -0.1457 -0.0490 -0.0585
15997W        W32471   5.326  15.110   3.402 -0.1466  0.1207 -0.0804
15998W        W32472   0.913   9.089  15.482  0.1531 -0.0022  0.1517
15999W        W32473   0.350   6.638   4.238 -0.2312  0.0141  0.1752
16000W        W32474   8.599  12.409  13.383 -0.0708  0.1928  0.0882
16001W        W32475   5.558  17.004   5.284 -0.1621 -0.1075  0.0283
16002W        W32476   9.433   9.285  16.153 -0.3087  0.2833  0.2246
16003W        W32477  17.183  14.182   3.672  0.0015 -0.1461 -0.1640
16004W        W32478   7.897   0.307   0.729  0.0345 -0.0142 -0.1141
16005W        W32479  12.451  17.985  13.245 -0.0461 -0.0432 -0.0646
16006W        W32480   3.307   4.667  15.587  0.1765 -0.3018 -0.2482
16007W        W32481   2.858   4.792  14.981 -0.0890 -0.1460  0.3373
16008W        W32482  10.513  12.648  14.034 -0.2659  0.0290  0.1626
16009W        W32483   6.054   9.042   3.436 -0.0334 -0.1975  0.1187
16010W        W32484   3.844   9.944   4.972  0.0170  0.0824 -0.1497
16011W        W32485   6.352  16.011   5.432  0.4226 -0.1773 -0.0869
16012W        W32486   6.811   5.690  13.460 -0.0819  0.1477 -0.1399
16013W        W32487  17.406   4.564  14.640  0.1771  0.2220  0.3337
16014W        W32488   0.278   6.711   2.257 -0.1322 -0.0886 -0.0071
16015W        W32489  11.420   5.848   0.535  0.0954  0.1050  0.1416
16016W        W32490   8.183  17.932   3.259 -0.1353  0.0788  0.0520
16017W        W32491   9.993   0.242   0.820 -0.4400  0.0473  0.0265
16018W        W32492  10.607  12.433   0.603 -0.2474  0.1431 -0.0060
16019W        W32493  14.725   9.699  12.196 -0.3295 -0.0651  0.0967
16020W        W32494   8.848   9.207  15.306  0.2868 -0.0923  0.1965
16021W        W32495  13.632  17.042  14.551 -0.0916  0.0388  0.0549
16022W        W32496  11.817   1.154  10.979 -0.2790  0.2926  0.1833
16023W        W32497   9.824   2.453  13.814  0.2068 -0.1132  0.1801
16024W        W32498  14.031   1.312   3.963  0.0807  0.1676 -0.2787
16025W        W32499  15.552   2.466  11.759  0.2003  0.1956  0.0970
16026W        W32500  17.454  11.764   4.601  0.1509 -0.1659 -0.0633
16027W        W32501  18.120   6.127  13.881  0.2393 -0.2293 -0.1364
16028W        W32502  13.438  12.881  13.354  0.1330 -0.1644 -0.0173
16029W        W32503   6.536  11.978  15.066 -0.0456 -0.0922 -0.3165
16030W        W32504   1.673   3.602   0.431 -0.1253  0.1799  0.1149
16031W        W32505  16.997   7.551   1.882  0.2739  0.3147 -0.0410
16032W        W32506   3.741   3.559  15.003 -0.0328 -0.2191 -0.2165
16033W        W32507   2.116   4.875  11.777  0.2043  0.0250 -0.3178
16034W        W32508  13.808   5.452  11.613 -0.2048  0.0312  0.2340
16035W        W32509   7.898  12.362   3.905 -0.0879 -0.1334 -0.1412
16036W        W32510  16.744  10.236   3.637 -0.1582 -0.3472 -0.3213
16037W        W32511  12.888   8.416  11.780  0.0967 -0.3115  0.2169
16038W        W32512  10.829   8.503  12.102  0.3938 -0.1604 -0.1843
16039W        W32513   3.458   9.614  11.922 -0.0140  0.0554 -0.0768
16040W        W32514  15.263   2.921   3.800 -0.2535  0.0688 -0.0851
16041W        W32515   9.625  13.684   4.600  0.0574 -0.1077 -0.1504
16042W        W32516  13.317  17.148  15.443 -0.1642 -0.4802 -0.2300
16043W        W32517   7.988   4.536  13.991  0.1411 -0.3211  0.2561
16044W        W32518  17.841  11.921   3.383 -0.0466 -0.1830 -0.2340
16045W        W32519   6.590  16.975  11.634 -0.2539  0.1138  0.0881
16046W        W32520   6.187  17.024  13.078 -0.0509 -0.0638  0.0571
16047W        W32521   1.124  11.976  16.137  0.1600  0.0344 -0.0099
16048W        W32522   1.256  13.954  12.225 -0.3202  0.1403 -0.0214
16049W        W32523  10.128  10.279  15.525 -0.1938  0.0598  0.1694
16050W        W32524  11.542  13.861   2.772  0.2342 -0.0503 -0.0521
16051W        W32525  16.633  17.107   1.461  0.1716  0.0581  0.2150
16052W        W32526  16.795   9.428  14.039  0.5389  0.0356  0.0236
16053W        W32527  15.000  13.895  13.737  0.4975 -0.1708 -0.2018
16054W        W32528   5.206   2.815  12.875  0.1973 -0.2022  0.3615
16055W        W32529  15.700  10.624   0.133 -0.1895  0.3235 -0.0156
16056W        W32530  14.651   1.123  15.453  0.0073  0.0050  0.5439
16057W        W32531  17.703   3.647   2.447  0.1534 -0.0747  0.0688
16058W        W32532  11.942  13.915   1.985  0.3830 -0.0559 -0.1138
16059W        W32533   2.280  11.498   0.310 -0.1943 -0.2891 -0.0440
16060W        W32534   2.475   9.027  10.439 -0.0626  0.0244 -0.0562
16061W        W32535  12.533  11.015   4.598  0.0983  0.2501  0.0845
16062W        W32536   2.409   4.058   1.610  0.0149  0.0151 -0.1212
16063W        W32537  10.445   2.754   4.171  0.0464 -0.0551 -0.0281
16064W        W32538   6.005  13.738  13.941 -0.0506 -0.0809  0.2910
16065W        W32539   6.267  14.215   3.226  0.0485  0.0796 -0.0303
16066W        W32540   3.039   3.786   0.861  0.0333 -0.2267 -0.0060
16067W        W32541  13.244   5.295  13.439  0.0533  0.1088  0.0719
16068W        W32542  17.009  17.745  11.052  0.2369 -0.0258 -0.1475
16069W        W32543   1.993   3.806  12.234  0.1483  0.0038 -0.0344
16070W        W32544   4.204   9.335   3.389 -0.1361 -0.2770 -0.0989
16071W        W32545   4.221  14.653   1.813 -0.1510 -0.0337  0.2443
16072W        W32546   1.628  16.011  13.070  0.1740 -0.0249 -0.0248
16073W        W32547   6.191   6.394  15.092 -0.1178 -0.1388 -0.0169
16074W        W32548   3.065  12.543   3.495  0.0063 -0.0075  0.0461
16075W        W32549   9.718   0.818   5.784 -0.0738 -0.0366  0.2755
16076W        W32550   7.713   7.590   2.840 -0.3564 -0.0606 -0.1788
16077W        W32551   8.596  12.033   4.300 -0.2422  0.2320  0.2482
16078W        W32552   0.087  16.673   0.206 -0.2435 -0.3114  0.0513
16079W        W32553  12.293  11.352  12.483 -0.0137  0.0999 -0.3147
16080W        W32554   4.395  11.262  15.767 -0.1643 -0.2321  0.2441
16081W        W32555   0.361  13.196  11.841  0.1925 -0.1366 -0.1592
16082W        W32556   4.247   3.996   4.865  0.1815  0.1079 -0.1187
16083W        W32557  15.594   1.271   0.932  0.1738 -0.2918  0.0012
16084W        W32558   8.743   7.075  11.716  0.0784 -0.1882  0.4237
16085W        W32559  16.149  11.048   0.781  0.0632  0.0297  0.1331
16086W        W32560   3.806  13.321  12.192 -0.0614 -0.1842  0.0002
16087W        W32561   4.947  11.086  12.926  0.1480  0.0824  0.3302
16088W        W32562  16.773   8.299  11.951 -0.3154 -0.0590 -0.2122
16089W        W32563  18.096  16.573   1.177  0.0220  0.1238  0.0526
16090W        W32564   0.419  14.716   0.676 -0.2189  0.0127 -0.1716
16091W        W32565   7.141  11.596  14.246 -0.2815 -0.2294  0.0478
16092W        W32566  10.682  15.371   0.986  0.2030 -0.0314  0.2199
16093W        W32567   8.966   4.397   0.589 -0.0173 -0.3353  0.0122
16094W        W32568   2.747  10.210  11.868 -0.1696  0.0608 -0.1964
16095W        W32569   7.852  10.252   0.368 -0.1103  0.0407 -0.4173
16096W        W32570  12.738  12.294  16.102 -0.3260  0.0174  0.0231
16097W        W32571   8.276  17.941   0.111 -0.1593 -0.1929 -0.1388
16098W        W32572  11.347   2.464   4.101 -0.0552  0.1661 -0.3611
16099W        W32573  12.099  18.064  14.457  0.0564  0.1847 -0.0336
16100W        W32574  14.132  17.721  11.513 -0.0412 -0.1675  0.0304
16101W        W32575  14.556  17.117  16.058  0.0506  0.1769  0.0075
16102W        W32576  17.540   0.376   0.815  0.0647 -0.2523 -0.1749
16103W        W32577  10.137  17.356  13.286  0.0594  0.1554 -0.0845
16104W        W32578   9.069  10.788  12.787  0.1119  0.0335  0.3383
16105W        W32579   5.303  14.406   5.685 -0.3799 -0.3662 -0.2208
16106W        W32580   1.016   0.887   5.098  0.1124  0.0680 -0.0932
16107W        W32581   9.452  10.691   2.476  0.3630  0.0265 -0.1351
16108W        W32582   2.347   2.940   1.608 -0.0396  0.1073 -0.1323
16109W        W32583   6.081   6.042  14.740  0.0327  0.0985  0.1712
16110W        W32584  10.411  12.146  13.166  0.1014 -0.2354  0.0189
16111W        W32585   3.834  11.638   6.226  0.3407 -0.0594 -0.1460
16112W        W32586   4.012  17.005   2.447 -0.1537  0.0008 -0.3141
16113W        W32587  14.256  15.572  14.750  0.0247 -0.1842  0.1560
16114W        W32588  11.438   1.811   4.918  0.0416  0.1617 -0.4198
16115W        W32589   7.249   7.454   4.937 -0.0086  0.4054  0.1199
16116W        W32590  17.586  17.686   3.375 -0.0322 -0.2331  0.2572
16117W        W32591   0.618   6.607   5.793  0.0476  0.0066 -0.0899
16118W        W32592   5.426   7.617   2.719 -0.0890  0.1207 -0.1350
16119W        W32593   1.749  17.037   1.248  0.0832  0.0809  0.2785
16120W        W32594   0.795  10.446   1.718  0.0114 -0.0376 -0.2909
16121W        W32595   5.085  14.375   1.666  0.0951  0.0718  0.0322
16122W        W32596   6.242  14.368  15.487  0.1437  0.0725  0.3299
16123W        W32597   4.846  13.271   3.759  0.2043  0.1406  0.0076
16124W        W32598  11.928  10.716   3.959  0.0235 -0.2199 -0.0772
16125W        W32599   5.017   0.736  12.744 -0.3173  0.3034  0.0470
16126W        W32600   2.561   0.078   5.880  0.2820  0.3289  0.1724
16127W        W32601   6.343  13.708  11.821  0.3022  0.1693  0.1108
16128W        W32602  12.290   7.643   3.123 -0.0811 -0.0484  0.0398
16129W        W32603   0.736   8.582  16.297  0.2463 -0.1273  0.1001
16130W        W32604  12.605   3.465   1.151 -0.1370  0.2326 -0.3314
16131W        W32605   8.125   5.971   5.499 -0.0064  0.1049 -0.0776
16132W        W32606   5.926   1.696   0.364 -0.2643  0.5569  0.3171
16133W        W32607   1.381   9.884   5.627 -0.1358 -0.1838 -0.0991
16134W        W32608  14.360   1.840  15.591 -0.0510  0.0219  0.2813
16135W        W32609  14.106  10.871  12.465  0.2980  0.0766 -0.0710
16136W        W32610   8.253  10.266  11.622  0.0580  0.3132 -0.1169
16137W        W32611  12.050  16.213  15.595 -0.3120 -0.0628 -0.0808
16138W        W32612  12.676   1.464   3.217  0.1277 -0.1081  0.0812
16139W        W32613  11.486   2.833   1.531 -0.1102  0.1605  0.1102
16140W        W32614  10.953   8.888   2.915 -0.2323  0.0923 -0.1244
16141W        W32615  15.668  11.886   1.154  0.1024  0.2156 -0.0507
16142W        W32616   8.383   7.244  13.828 -0.5032 -0.0103  0.5046
16143W        W32617   6.746  12.631  14.364 -0.0939  0.2355  0.3139
16144W        W32618  12.946   6.110  12.766 -0.1515  0.1755 -0.1822
16145W        W32619   0.362  10.651   0.823 -0.1454 -0.0411 -0.3582
16146W        W32620  13.982  15.986  14.427  0.2704  0.1268  0.0073
16147W        W32621   6.518   0.852  13.664 -0.0882  0.0094 -0.3460
16148W        W32622  17.758   0.981  11.853 -0.0072 -0.3969  0.0910
16149W        W32623   8.696   8.705  11.454  0.3423  0.1230 -0.2150
16150W        W32624  15.209   9.523   0.520  0.0150  0.1445 -0.0663
16151W        W32625  10.882  11.746   1.611  0.1241  0.2388  0.0383
16152W        W32626   7.174   4.176   1.247  0.2062  0.1136 -0.4029
16153W        W32627  11.240  13.631  12.102 -0.0296  0.0880 -0.0076
16154W        W32628   1.394  16.904   5.461  0.1392  0.1021 -0.1482
16155W        W32629   1.012  14.577   2.186  0.2085  0.0917  0.2143
16156W        W32630   2.751   9.573   1.752  0.1796 -0.0605 -0.0507
16157W        W32631  13.795  16.176   2.490  0.2513  0.0367  0.2340
16158W        W32632  15.243   6.179   2.174 -0.0586 -0.1179  0.0566
16159W        W32633   6.187   5.047  15.159  0.2258  0.2460 -0.0051
16160W        W32634   1.552  12.562  11.811  0.1862 -0.1616  0.3226
16161W        W32635  10.972  11.512  13.298 -0.0423  0.1770  0.2351
16162W        W32636  11.505   0.983   4.724 -0.2898 -0.0324  0.1120
16163W        W32637  17.330  10.211  12.788 -0.1891 -0.2663 -0.3345
16164W        W32638   1.572  14.564   2.440 -0.0412  0.0295  0.1331
16165W        W32639   4.736   5.809   3.004 -0.2304  0.0616  0.2773
16166W        W32640   7.971   2.922  14.618 -0.1310  0.0024  0.0581
16167W        W32641   2.742   1.117   5.688  0.2020  0.2153  0.0284
16168W        W32642   1.114   5.078   2.139 -0.0644 -0.0809  0.3145
16169W        W32643   5.045   3.277   1.556 -0.2084 -0.3280  0.1922
16170W        W32644  12.998  12.283  13.206 -0.0695  0.1100 -0.0842
16171W        W32645   2.047   7.081  11.924 -0.0549 -0.0383  0.2443
16172W        W32646  12.553  10.230   0.872 -0.0635  0.1901 -0.2043
16173W        W32647   8.760   4.720   2.260 -0.1388 -0.3051 -0.1853
16174W        W32648  16.324   1.034   4.440  0.1317 -0.0500 -0.0867
16175W        W32649   7.983   1.291  14.133  0.1980  0.2986  0.0400
16176W        W32650   3.851   5.062   1.166 -0.0887 -0.0366  0.1955
16177W        W32651   5.643  15.643   5.022  0.1571 -0.1571 -0.2041
16178W        W32652   2.350   2.400   4.258 -0.0586  0.0727  0.0648
16179W        W32653  17.071  15.230   1.803  0.1550 -0.0445  0.0710
16180W        W32654   1.005  16.906   4.872 -0.1821 -0.0894  0.0156
16181W        W32655   6.584  15.512  13.755  0.3295 -0.1803  0.0358
16182W        W32656   1.319  17.057   3.097  0.1830  0.3596 -0.0023
16183W        W32657  15.101  11.634   1.172 -0.1900  0.1473 -0.1210
16184W        W32658   9.560  14.460  10.561  0.0488 -0.1364  0.0438
16185W        W32659   0.963   9.073   3.543 -0.0487 -0.1487  0.0495
16186W        W32660   2.635   0.306   2.852  0.1828 -0.1548 -0.2842
16187W        W32661   9.529   1.208   2.077 -0.0216  0.1611 -0.0740
16188W        W32662  14.402   0.703  13.750 -0.0860 -0.0682 -0.0918
16189W        W32663   1.649   1.685  13.901 -0.1130 -0.0558  0.1509
16190W        W32664  10.641  18.036   2.081 -0.1819 -0.1666  0.0092
16191W        W32665  10.387  13.970  15.651 -0.1450  0.2620 -0.1061
16192W        W32666   3.364  10.575   0.568 -0.3595  0.1249 -0.0570
16193W        W32667  13.276   2.474  16.146  0.0536 -0.1009  0.2147
16194W        W32668  14.269   5.500  13.485  0.0267  0.0861 -0.1449
16195W        W32669  10.876   0.856  15.882  0.1011 -0.0605  0.0460
16196W        W32670   7.871   0.495  14.608 -0.0441 -0.1279  0.0364
16197W        W32671  13.823  12.465   3.328 -0.1513  0.1420 -0.1860
16198W        W32672  16.138  12.352   3.336  0.0339  0.2493  0.2583
16199W        W32673  10.750  16.039   5.849  0.2509 -0.0852  0.1477
16200W        W32674  15.146  15.859  15.269  0.0673  0.0296  0.2750
16201W        W32675  15.046  17.787  16.035  0.0314  0.0574  0.2509
16202W        W32676  11.759   0.985   5.313 -0.2375 -0.0416  0.0839
16203W        W32677  13.189  12.933  15.162  0.0308  0.0125  0.0605
16204W        W32678   8.545  16.979  12.615 -0.1678 -0.3839  0.2611
16205W        W32679   0.108  14.173   4.003  0.0966  0.1441  0.0529
16206W        W32680   4.311   6.080  15.314  0.2365 -0.1538 -0.0695
16207W        W32681  17.063   9.016  13.851  0.0446 -0.1587  0.0392
16208W        W32682  11.029  13.397  16.296  0.2382 -0.3637 -0.3059
16209W        W32683   4.929  12.772   4.382  0.1082 -0.2975 -0.0803
16210W        W32684  16.129  10.472  16.360 -0.0427  0.0044  0.0740
16211W        W32685   1.265  11.472   5.191 -0.2450  0.0251  0.1134
16212W        W32686  11.200  11.875   3.258 -0.1469  0.3553 -0.0745
16213W        W32687  14.329  14.027   2.705 -0.1803 -0.1266 -0.1288
16214W        W32688  17.244   0.095  11.713 -0.0466  0.0746 -0.1039
16215W        W32689   1.584  16.010  13.855  0.0747  0.1906 -0.1767
16216W        W32690  15.139   5.798  12.303  0.1412 -0.4818 -0.0355
16217W        W32691   1.656  16.722   2.216  0.0060 -0.2239 -0.1835
16218W        W32692   7.114  14.199  16.038  0.1378 -0.4846 -0.0445
16219W        W32693   8.570   7.648  16.293 -0.1006 -0.1422  0.1018
16220W        W32694   6.793  17.185   6.062 -0.3226  0.1232  0.0095
16221W        W32695   5.274  17.926   1.919 -0.2144  0.3089  0.0649
16222W        W32696  15.921   2.821  11.543  0.0315 -0.1538 -0.1019
16223W        W32697   0.553  10.220  14.421  0.2339 -0.0599  0.0028
16224W        W32698  12.315   9.544   5.301  0.1343  0.1040  0.1187
16225W        W32699   0.872   1.504   5.202  0.1799  0.0908 -0.1105
16226W        W32700   8.843  16.637   0.358 -0.3673  0.0734 -0.0324
16227W        W32701  11.320   9.451   3.188  0.3336 -0.3302  0.1537
16228W        W32702  15.916   6.135   3.813  0.1011 -0.1177 -0.0246
16229W        W32703  17.052   4.167  11.851  0.0458 -0.1008  0.1374
16230W        W32704   2.973   6.542  16.234  0.0407 -0.0382  0.1871
16231W        W32705   6.548  13.984  16.304  0.0870  0.1808  0.2183
16232W        W32706   9.564   2.905  13.603 -0.2641 -0.1070  0.0246
16233W        W32707  16.230  15.720  12.259  0.1063 -0.0156 -0.0596
16234W        W32708   4.398  11.295  13.999  0.1505  0.0579  0.0625
16235W        W32709  17.491   8.729  13.889  0.0408 -0.1640  0.0949
16236W        W32710  17.415  18.081  15.376 -0.1411 -0.0616 -0.0218
16237W        W32711  17.554   2.113  15.780 -0.0717 -0.1510 -0.1909
16238W        W32712  15.455   2.529   0.480 -0.1206 -0.1724  0.4003
16239W        W32713  17.533  12.730  16.239  0.0203  0.0751 -0.1921
16240W        W32714  17.579  14.684  14.995 -0.0846  0.2027  0.1909
16241W        W32715  13.103  10.718  15.921 -0.0257  0.0853 -0.0189
16242W        W32716   8.278   9.308   3.962 -0.0950 -0.0918 -0.1993
16243W        W32717  10.646   9.650   2.619 -0.1195  0.2773  0.1638
16244W        W32718  14.596   9.187   3.338  0.0789 -0.0677  0.1379
16245W        W32719  11.296  11.235  14.047 -0.0276 -0.1393  0.1130
16246W        W32720   4.326  10.237  14.342 -0.0786 -0.0791  0.1938
16247W        W32721   2.947  13.450  13.264  0.2564  0.1419  0.1221
16248W        W32722   3.112   1.609   5.780 -0.0613 -0.2177 -0.0562
16249W        W32723  10.693   3.896  15.694  0.2263 -0.0567  0.0576
16250W        W32724   6.197  11.173  14.066 -0.1460 -0.0587 -0.0792
16251W        W32725   4.207  13.979   4.044 -0.1221  0.0503  0.2217
16252W        W32726  13.994  16.775  14.801  0.0237 -0.0273 -0.1500
16253W        W32727  10.393   4.559   3.471  0.0731 -0.4528  0.3616
16254W        W32728  12.545   4.239   4.442 -0.1318  0.0132 -0.0415
16255W        W32729   4.893  11.067   5.077 -0.1621 -0.1731 -0.1191
16256W        W32730   7.700   7.182   0.864 -0.1201 -0.0895  0.1118
16257W        W32731  11.946  13.634  15.154 -0.0287 -0.2071  0.0145
16258W        W32732   3.762  12.503  13.351  0.4194  0.1761 -0.1364
16259W        W32733   6.566  15.489  14.741 -0.0554  0.2815  0.1328
16260W        W32734   7.427  13.436   3.119  0.0814  0.1256  0.1433
16261W        W32735   3.816   9.238   2.635 -0.1002  0.0525  0.0209
16262W        W32736   0.447  11.531  13.646  0.1008 -0.0434  0.0945
16263W        W32737   8.135  13.354  15.617 -0.0168 -0.1868  0.1097
16264W        W32738   0.817   7.801   1.602 -0.0218 -0.1712 -0.4099
16265W        W32739  16.239   1.968   4.205 -0.0833 -0.0860  0.0368
16266W        W32740   2.394   0.552   0.778  0.1657 -0.1878  0.2911
16267W        W32741   6.397  14.291  13.475  0.3644  0.0930 -0.0812
16268W        W32742   9.613  17.033   1.758 -0.2274  0.1505  0.1620
16269W        W32743  14.751   4.737  15.608 -0.1332 -0.2085  0.3027
16270W        W32744  15.912   2.531   0.257 -0.0059 -0.0185  0.1368
16271W        W32745   1.832   4.871   5.099  0.2712  0.1531 -0.2770
16272W        W32746  15.293  17.269   3.652 -0.2490 -0.3693  0.2733
16273W        W32747  12.091   4.243   4.591 -0.0435  0.0846 -0.2960
16274W        W32748   1.867   9.914  14.363  0.3450 -0.0794  0.1258
16275W        W32749  13.544   3.823   4.837 -0.1462  0.0676  0.0741
16276W        W32750   1.238   1.881   4.277  0.0506 -0.3236  0.0074
16277W        W32751   5.518   3.050   2.388  0.1500  0.1922 -0.1387
16278W        W32752  14.731   0.495  12.862 -0.0100 -0.2893  0.0003
16279W        W32753   7.632   0.721  11.519  0.1808 -0.0678 -0.2466
16280W        W32754  11.219  11.450   1.201  0.1049  0.1790 -0.1675
16281W        W32755  10.561  13.719   0.637 -0.0016  0.2102  0.0309
16282W        W32756  11.600  14.469   4.223 -0.0827  0.0013 -0.1141
16283W        W32757  14.317   6.883  16.098  0.0825 -0.3202 -0.2105
16284W        W32758   9.906  17.361   1.113 -0.0834 -0.4003  0.1204
16285W        W32759   7.885   8.383  15.797 -0.3167 -0.1620 -0.0411
16286W        W32760  15.974   7.905   3.250 -0.2687  0.1663 -0.0863
16287W        W32761   1.457  13.375  16.239 -0.0863  0.1575 -0.1541
16288W        W32762  17.497  14.559   4.698 -0.2561 -0.0845  0.0769
16289W        W32763   7.098   1.233   5.789  0.2351  0.0131 -0.2528
16290W        W32764   2.360  18.033  12.650  0.0947  0.1811  0.1537
16291W        W32765   2.934  15.809   1.273 -0.2609  0.3771  0.0985
16292W        W32766  10.102   5.286   1.710  0.0706 -0.0051  0.3148
16293W        W32767  14.406  17.328   0.134  0.1677 -0.3702 -0.0338
16294W        W32768  17.829  16.386  13.597 -0.1811  0.1066  0.1625
16295W        W32769   2.489   2.923  12.042 -0.2270  0.2410 -0.0760
16296W        W32770   2.687   3.589  12.203  0.1969  0.0736 -0.0708
16297W        W32771  17.577  11.034   0.499  0.0934  0.1372  0.0630
16298W        W32772   4.091   8.092  16.190 -0.1532 -0.3257  0.0789
16299W        W32773   2.587  13.721   0.475  0.0992 -0.3613 -0.1334
16300W        W32774   1.059  15.044   0.067 -0.3481 -0.2850  0.0528
16301W        W32775  12.343  16.962  13.458  0.1008  0.1195 -0.0625
16302W        W32776   6.616  15.608   1.859 -0.1160 -0.2251  0.0820
16303W        W32777  11.939  16.880   1.507  0.3019 -0.1462  0.0206
16304W        W32778   3.844  11.021  12.203 -0.2200 -0.0349  0.0956
16305W        W32779  12.526  16.355  14.884 -0.0826 -0.0373 -0.2613
16306W        W32780  11.401   6.031   4.953  0.3839 -0.0173  0.0746
16307W        W32781  14.394  14.754  13.940 -0.0268  0.4640  0.1874
16308W        W32782  10.678   1.314   5.021 -0.0685  0.4285 -0.3265
16309W        W32783  10.119   2.312  14.927  0.1705 -0.2346  0.1971
16310W        W32784  17.523  12.157  11.089  0.0847  0.2006  0.0977
16311W        W32785   0.732   3.471  12.812  0.0300  0.0024 -0.1057
16312W        W32786  16.344  13.655  13.080 -0.3150  0.1926 -0.2192
16313W        W32787  10.670  13.535  13.484  0.3985  0.1898  0.0785
16314W        W32788   1.149   3.520  15.147  0.1927  0.4151  0.0060
16315W        W32789   0.757   6.151  12.820  0.0891  0.4263  0.2824
16316W        W32790   3.731   1.987   0.751  0.0779  0.0283  0.0868
16317W        W32791  17.982  17.840   4.247  0.1780  0.1056  0.1047
16318W        W32792   2.695  10.239  13.770 -0.2185  0.0606  0.1070
16319W        W32793  10.260  11.412  12.096  0.0938 -0.0398  0.3521
16320W        W32794   9.359   2.334   4.741  0.1861  0.2270 -0.0717
16321W        W32795   1.251   7.358  13.340 -0.1029  0.2378 -0.2611
16322W        W32796   1.166   6.298  13.067  0.2099 -0.1008  0.0077
16323W        W32797   6.520   0.105  11.954  0.0664 -0.1027  0.3225
16324W        W32798  12.791   9.864   1.975  0.0467 -0.0175  0.0909
16325W        W32799   3.599   9.425  14.350 -0.0365  0.0805  0.0342
16326W        W32800  10.038   7.666   1.650 -0.0943  0.2941  0.1454
16327W        W32801  10.517  15.496  14.167  0.0787 -0.1697  0.0415
16328W        W32802   5.422   4.863  11.740 -0.1947  0.2997 -0.5493
16329W        W32803   0.118  11.075   3.432 -0.1793  0.1784  0.3781
16330W        W32804  17.685  17.337   6.123 -0.1542 -0.0247  0.1835
16331W        W32805  12.096  15.468  12.451  0.0358 -0.2645  0.1968
16332W        W32806   4.272   6.944  15.644 -0.2314  0.3727  0.0686
16333W        W32807  16.304   9.269   0.946  0.0526 -0.2623  0.0805
16334W        W32808   8.654   6.472   1.411  0.3669 -0.0125 -0.2342
16335W        W32809  17.365  14.238  14.277 -0.2117  0.1531 -0.1000
16336W        W32810   6.174  17.832   1.252  0.0010 -0.0446  0.2699
16337W        W32811   7.001   0.233   2.656  0.0941 -0.0529 -0.0953
16338W        W32812   7.448  15.629  12.518  0.1398 -0.0650 -0.2284
16339W        W32813   8.336   5.232   3.046 -0.1845  0.0328 -0.1589
16340W        W32814  15.033   4.669   1.743  0.2062 -0.0592  0.3240
16341W        W32815   8.888   9.746   1.060 -0.0577  0.0436  0.0219
16342W        W32816   6.620   6.291   2.582 -0.0971 -0.2752 -0.1694
16343W        W32817   4.603   2.889  12.278  0.1811  0.0809 -0.2384
16344W        W32818  10.062  14.300  13.467  0.0355 -0.0539  0.0458
16345W        W32819   1.101  14.666   1.079  0.2215  0.1950  0.0193
16346W        W32820  11.903  13.222   3.260  0.2674  0.2583 -0.5360
16347W        W32821  14.689   5.146   4.114 -0.1251 -0.1546  0.2212
16348W        W32822  17.659   9.514   0.579  0.0256  0.2932  0.1446
16349W        W32823   7.444   5.940   2.361 -0.1048  0.2091 -0.3314
16350W        W32824  17.096   3.684  11.104  0.3497  0.0320 -0.1392
16351W        W32825  17.446   5.631  16.300 -0.0620  0.1862  0.1467
16352W        W32826   9.598   3.465   3.776  0.0223  0.0133 -0.0360
16353W        W32827  14.713   7.579  13.391  0.3791  0.3335  0.2820
16354W        W32828   7.793   2.487  14.778  0.2310 -0.1954 -0.0800
16355W        W32829   9.062  10.024  15.600 -0.0123 -0.1391  0.0682
16356W        W32830   2.919  14.301   2.979  0.0731  0.2160  0.0396
16357W        W32831  17.903  13.247  13.576 -0.2522  0.1445  0.0365
16358W        W32832  11.737   3.816  12.527 -0.2373  0.0063 -0.2660
16359W        W32833   0.007   4.883  12.935 -0.2153 -0.1223 -0.1793
16360W        W32834   4.583   7.802   5.308 -0.0949 -0.2195 -0.0748
16361W        W32835   6.583   5.061   1.197  0.1558 -0.2358 -0.0949
16362W        W32836   1.690  10.079   4.359 -0.0614  0.4722 -0.0451
16363W        W32837   5.274   7.930   4.720  0.0531  0.3390 -0.0177
16364W        W32838   7.328   6.648   2.917 -0.1998 -0.1176 -0.1029
16365W        W32839  12.086  12.075   4.560  0.3233 -0.1548 -0.1896
16366W        W32840   9.659  12.536   2.648  0.1228 -0.1870 -0.2135
16367W        W32841  17.524   8.360   1.677  0.1052  0.0884  0.3500
16368W        W32842  15.660   8.862  14.348 -0.1430 -0.0051  0.2810
16369W        W32843  15.025   0.996   4.778 -0.1719  0.0157  0.0226
16370W        W32844  16.135  16.902  11.878  0.2673 -0.3952 -0.1611
16371W        W32845   9.245   6.972  13.571  0.1506  0.0506  0.2210
16372W        W32846   8.248  14.620  14.954  0.1028 -0.3434  0.0682
16373W        W32847   7.959   9.465  11.348 -0.0518 -0.0393 -0.0654
16374W        W32848  16.780   1.659  16.048  0.1003 -0.0741  0.0738
16375W        W32849   2.874   8.386   1.006  0.1282 -0.1502  0.3257
16376W        W32850  14.559   9.301   0.613  0.1184  0.0440  0.0061
16377W        W32851  11.071   5.612   2.006  0.2734 -0.1124 -0.0624
16378W        W32852  14.636   9.630   3.596 -0.0406  0.1275 -0.0453
16379W        W32853   4.680   5.594  16.035  0.1023  0.0029 -0.0097
16380W        W32854  11.307  14.186  14.243 -0.0856 -0.1234  0.0296
16381W        W32855  10.401   3.137   6.393 -0.0374 -0.1101 -0.1386
16382W        W32856   6.741  16.874  14.880 -0.0093 -0.1631  0.3687
16383W        W32857  17.769   7.920  12.590  0.2077  0.0197 -0.0070
16384W        W32858  10.083   8.022   3.850 -0.2143 -0.1234 -0.1150
16385W        W32859  12.276  11.908  12.454  0.3413 -0.0507 -0.2209
16386W        W32860   5.189  16.430  11.636  0.1061 -0.0805 -0.3582
16387W        W32861   0.445   8.281  13.313 -0.0415 -0.3861 -0.1308
16388W        W32862   8.585   0.534  15.766  0.1298  0.2173  0.1455
16389W        W32863   5.172   3.957   4.530  0.1642 -0.0478  0.0977
16390W        W32864   6.172   5.427   3.453  0.1886  0.4437 -0.0085
16391W        W32865  17.434  11.512   5.064  0.2639 -0.0697 -0.1420
16392W        W32866   5.621   5.592   3.344  0.1081 -0.0780 -0.2633
16393W        W32867   6.011  14.450   2.856  0.1339  0.2203  0.1118
16394W        W32868  17.819   7.182  15.988  0.0280 -0.3107 -0.0837
16395W        W32869  12.740   7.696   2.795 -0.0436  0.0509 -0.2705
16396W        W32870  15.381   4.431   4.532  0.1703 -0.1307  0.0013
16397W        W32871  13.902   1.853   1.257 -0.0327 -0.0465  0.2563
16398W        W32872   9.492  11.313  11.385 -0.1677 -0.1194 -0.0205
16399W        W32873   7.003  10.411  15.594 -0.1055 -0.0992  0.1594
16400W        W32874   3.719   4.737  11.609  0.1710  0.0088  0.2363
16401W        W32875   1.514   1.304   2.865 -0.1778  0.0340 -0.2480
16402W        W32876   3.676   4.909   4.438 -0.0773 -0.0723 -0.3241
16403W        W32877  14.654   0.522  11.135  0.0548  0.2466  0.0989
16404W        W32878   1.998  13.618  15.500  0.1453  0.1032 -0.1279
16405W        W32879   3.137   4.159   2.667 -0.3397  0.0038 -0.1251
16406W        W32880   9.774  14.588   4.709 -0.0379 -0.0830 -0.1548
16407W        W32881   4.631  12.943   2.614  0.1432  0.1450  0.2298
16408W        W32882   5.897   6.386  16.340 -0.1317 -0.1594 -0.0184
16409W        W32883  16.947   0.617  12.544  0.1289 -0.0855 -0.0880
16410W        W32884  11.255   5.331   5.050  0.1639  0.0706  0.0825
16411W        W32885  17.826   9.294  15.283  0.0309 -0.3227 -0.2908
16412W        W32886  12.785   0.443  15.344  0.1256 -0.0157 -0.1262
16413W        W32887  11.039   9.819  16.032 -0.1125  0.0787  0.0645
16414W        W32888  17.752  16.603   3.693 -0.2371 -0.0550  0.3116
16415W        W32889  14.893   8.174  11.741 -0.0092  0.2689 -0.5303
16416W        W32890  15.725   5.812   1.515 -0.2691  0.1915  0.0016
16417W        W32891   9.633  18.117   2.354 -0.0024  0.3900  0.1028
16418W        W32892   3.903   8.472   5.253 -0.1411 -0.4314 -0.1401
16419W        W32893  14.915   1.796   1.031  0.0218 -0.1265  0.0780
16420W        W32894  13.916   0.903  13.471  0.0450 -0.1473  0.1200
16421W        W32895  16.656  10.805  14.589  0.0094 -0.1644 -0.3274
16422W        W32896   9.756  12.981  14.655 -0.2958 -0.0625  0.0426
16423W        W32897  13.015  13.139   2.771 -0.0242  0.0819  0.2666
16424W        W32898   2.910  11.697   2.859  0.1353 -0.1403  0.1166
16425W        W32899  13.592  13.600  13.854 -0.0991 -0.2264  0.0625
16426W        W32900  13.739  17.247  13.444 -0.0223 -0.2267 -0.0124
16427W        W32901   7.830   9.994   4.575  0.1626 -0.1659  0.1670
16428W        W32902   0.788  12.914  16.065 -0.0132 -0.0669 -0.1702
16429W        W32903   2.345   9.220   1.062 -0.0210 -0.0415  0.1196
16430W        W32904   8.021   5.046   0.041 -0.1472 -0.1886 -0.0260
16431W        W32905  12.220  14.026   5.584 -0.2316 -0.1415 -0.1158
16432W        W32906   0.450  15.580   0.356  0.2220 -0.1817  0.1278
16433W        W32907   3.743   1.361  15.825  0.1655  0.2768  0.1558
16434W        W32908  10.090   0.686   5.480 -0.1224  0.0368 -0.0591
16435W        W32909  13.627   6.964  14.611 -0.0008  0.0963  0.0927
16436W        W32910  16.259  12.476  11.838 -0.2629  0.3342  0.2587
16437W        W32911   3.622   3.218   1.397  0.1920  0.1625  0.0553
16438W        W32912   3.870   2.373  13.030 -0.2703  0.0767 -0.3062
16439W        W32913  10.376   8.760  12.040 -0.0931  0.4423  0.0893
16440W        W32914  10.722  16.062   3.839 -0.1691  0.1318 -0.1272
16441W        W32915   8.168   8.918   5.319 -0.2048  0.1882  0.2095
16442W        W32916   7.873   3.354  15.076 -0.0057 -0.2863 -0.0803
16443W        W32917  18.070   0.258   0.707 -0.0418 -0.4764  0.2218
16444W        W32918   0.010  10.779   4.000  0.3186 -0.0103 -0.0753
16445W        W32919  17.277   6.439   3.765  0.1129  0.3539  0.1960
16446W        W32920  10.296  13.946   3.353  0.0858  0.0683 -0.1945
16447W        W32921   7.611   0.328  15.583 -0.2001 -0.0212 -0.1395
16448W        W32922  15.711   5.042   5.172  0.2407  0.0794 -0.0708
16449W        W32923   5.405  14.108  11.608 -0.0816  0.0406  0.1065
16450W        W32924  14.751  18.121  14.663 -0.0277  0.0326 -0.1675
16451W        W32925   7.963   5.674  14.718 -0.3656 -0.0844 -0.0250
16452W        W32926  13.832   1.709  11.581  0.0834 -0.0801 -0.0354
16453W        W32927   7.742   2.043  13.874  0.1014 -0.1106 -0.3452
16454W        W32928   9.382  13.864  14.809 -0.2888  0.1300 -0.2832
16455W        W32929   0.631   5.908   1.181 -0.0701  0.1677  0.2671
16456W        W32930   6.654   9.401   0.592  0.2008  0.2135  0.0922
16457W        W32931  16.453   7.257   0.246  0.1151  0.0454  0.0069
16458W        W32932  17.633  14.077   5.561 -0.1828 -0.2770  0.4029
16459W        W32933  14.486   5.551   2.480  0.1012  0.2075  0.0405
16460W        W32934  10.184  13.202   4.756 -0.4530  0.0987  0.1003
16461W        W32935   6.932   9.432  11.798  0.0827  0.1174  0.0572
16462W        W32936   9.724  10.086   0.900  0.0225 -0.0051  0.0611
16463W        W32937   6.901   8.703  11.839  0.2165 -0.1033  0.1891
16464W        W32938  12.279   7.660   1.978  0.1784  0.0694  0.2833
16465W        W32939   3.846   7.801  15.902 -0.1516  0.0569 -0.0675
16466W        W32940   8.990   3.325   0.900  0.0492 -0.2089  0.0755
16467W        W32941  14.298   9.331   4.302  0.0917  0.0935  0.0490
16468W        W32942  14.507  13.953  13.436 -0.0185  0.2623  0.1755
16469W        W32943   7.585   5.592   4.648  0.1354  0.2945 -0.0340
16470W        W32944   9.053   2.325   3.520  0.0614 -0.4381 -0.3231
16471W        W32945  17.827  12.392  11.357 -0.0963 -0.2615  0.0817
16472W        W32946   8.130   6.838  13.963  0.5013  0.0069 -0.1440
16473W        W32947  10.014   2.210  14.446 -0.4007  0.0504 -0.2850
16474W        W32948   8.593   7.875  13.268  0.2487 -0.1127  0.2451
16475W        W32949   6.788   5.872  11.489 -0.2385 -0.2496  0.0090
16476W        W32950   3.538   7.474  15.471 -0.4090  0.3828  0.0474
16477W        W32951  10.621   8.339   0.866 -0.0658  0.2772 -0.1062
16478W        W32952  10.690   5.525   0.398  0.2538 -0.1388  0.1483
16479W        W32953   2.336   8.096  15.571 -0.0658 -0.2813 -0.2862
16480W        W32954  16.526   8.815   4.262 -0.0572  0.3313 -0.1538
16481W        W32955   8.365  10.800  11.519 -0.1549  0.2159  0.1244
16482W        W32956   4.066  16.912   0.036 -0.0496  0.0752  0.0913
16483W        W32957   3.532  14.470  15.768  0.3251 -0.1341  0.1614
16484W        W32958   8.147  13.823   3.095 -0.1515  0.1122  0.0325
16485W        W32959  14.188   7.080  11.713 -0.2536 -0.0395  0.1048
16486W        W32960   3.849  17.921   0.192 -0.0028  0.0652 -0.0546
16487W        W32961   3.733   3.928  13.189  0.0614  0.1884  0.3055
16488W        W32962   0.853  10.502  16.341 -0.0805 -0.0881 -0.0655
16489W        W32963   1.108   7.584   4.478 -0.1500 -0.1218  0.0662
16490W        W32964   5.691  14.802   3.131 -0.0126 -0.1451  0.1161
16491W        W32965   4.023   5.498  12.545 -0.1172 -0.2718  0.2871
16492W        W32966   3.875  16.402   4.545  0.1525  0.0738 -0.1156
16493W        W32967  14.462   3.337   1.725  0.0719  0.0347 -0.0740
16494W        W32968  13.996  16.048   4.371  0.1344 -0.0283 -0.0717
16495W        W32969   2.240  15.134   4.875 -0.2374 -0.4539 -0.4506
16496W        W32970   1.511   0.998  11.803 -0.0304 -0.1934 -0.1094
16497W        W32971  14.322   5.383   1.191 -0.1595 -0.2327 -0.0034
16498W        W32972  10.228  17.398  15.224  0.1470 -0.0893 -0.0775
16499W        W32973  13.925   9.827   4.692 -0.4277 -0.0888  0.0978
16500W        W32974  16.421  13.662  13.713 -0.2027  0.0033  0.3310
16501W        W32975   5.231  10.259  11.830 -0.1229  0.1420  0.0704
16502W        W32976   5.723   6.643   1.183 -0.0361  0.0975 -0.1675
16503W        W32977  17.963  17.781   5.942 -0.2256  0.3064 -0.1020
16504W        W32978  12.972  10.680   4.246 -0.1484  0.2648 -0.1395
16505W        W32979  12.589   8.188  12.929  0.3295  0.0950 -0.0012
16506W        W32980   1.957   4.701  16.286  0.0516  0.2529 -0.0629
16507W        W32981  17.239   6.796  13.836 -0.1196  0.0654 -0.1627
16508W        W32982   3.120  10.102  13.198  0.0679 -0.0343 -0.1518
16509W        W32983   6.949  10.802  11.951  0.1210  0.3003 -0.2332
16510W        W32984  14.291   4.532  13.637 -0.0433 -0.0508 -0.2282
16511W        W32985  11.491  14.526   5.365 -0.2459  0.1474  0.0601
16512W        W32986   0.695  12.559   2.823  0.1390  0.1033  0.0943
16513W        W32987   5.664  16.317   0.581  0.1096  0.2397 -0.1251
16514W        W32988   2.534   9.445  13.439  0.0261 -0.1865 -0.1808
16515W        W32989   4.360   1.092   3.086 -0.0816 -0.1165 -0.0935
16516W        W32990  12.314  15.775  14.841  0.2014 -0.4984 -0.3354
16517W        W32991   8.198  15.937   2.671 -0.3585  0.1813  0.1744
16518W        W32992  16.441   1.586  12.005  0.1029  0.0533 -0.0838
16519W        W32993   1.586  11.110   0.942 -0.1586 -0.0606  0.1819
16520W        W32994  12.173   8.320  12.215 -0.0669 -0.0183 -0.0141
16521W        W32995   2.151   5.879  14.953  0.2755  0.0305  0.0652
16522W        W32996   9.612   4.858   5.790 -0.0781  0.3349 -0.3442
16523W        W32997  14.856  15.752  13.838  0.3559 -0.4042  0.0135
16524W        W32998  12.981  13.620   0.632 -0.3123  0.0106  0.2009
16525W        W32999   1.001   7.305  16.243  0.1480 -0.0105 -0.1725
16526W        W33000  10.433  16.521   3.811  0.0129  0.0792  0.0507
16527W        W33001  10.913  17.583  12.380  0.2306  0.1154 -0.1881
16528W        W33002   9.699  11.763   3.023 -0.2292 -0.0155 -0.2208
16529W        W33003   7.131  16.857  12.300 -0.0013  0.1568 -0.1073
16530W        W33004  12.152  15.826   2.439  0.1386  0.0822 -0.1063
16531W        W33005   9.745   7.445   4.722 -0.1254 -0.1728 -0.1639
16532W        W33006   7.470  11.208   3.307  0.0068  0.0907 -0.2623
16533W        W33007   5.719   9.943  14.209 -0.0119 -0.2158 -0.0017
16534W        W33008  13.275  17.771  11.202  0.0179 -0.0216  0.0447
16535W        W33009   4.310   4.001  14.053  0.1619  0.0838  0.1626
16536W        W33010   6.229  11.515  16.339 -0.0493  0.1838  0.1734
16537W        W33011   2.139  13.970   5.606  0.2786  0.0248 -0.0871
16538W        W33012   1.239   0.266  15.191  0.1048  0.1345  0.0564
16539W        W33013  17.551   2.772  13.544  0.0465  0.0655 -0.0073
16540W        W33014  14.695  10.630   5.465  0.2192  0.1378 -0.0177
16541W        W33015   1.656  13.661  12.429  0.0395  0.0362  0.2141
16542W        W33016  15.336   8.444   5.222 -0.0591  0.0060 -0.0900
16543W        W33017   9.105   7.191   5.068 -0.2317  0.0667 -0.3430
16544W        W33018  10.007   3.198   2.797  0.4648 -0.0065  0.2598
16545W        W33019   7.786   8.825   5.693 -0.0242 -0.0102 -0.1232
16546W        W33020   8.421   5.126   5.446  0.2123  0.2677 -0.3353
16547W        W33021  17.890  13.440   3.492  0.0547 -0.0440  0.1159
16548W        W33022  14.905  14.618  11.437 -0.0802  0.4507  0.1911
16549W        W33023   7.840   7.332  13.047  0.1612 -0.1147  0.0341
16550W        W33024   1.477   1.339  12.244  0.2428  0.1090  0.0585
16551W        W33025  10.883  14.196  12.554  0.2051  0.1362  0.0205
16552W        W33026   7.891   7.989  11.586  0.0881 -0.0738  0.2356
16553W        W33027  11.539   2.603  12.446  0.2555  0.2500  0.1273
16554W        W33028  13.331   0.994   1.566  0.1904 -0.1747 -0.3975
16555W        W33029   1.121  11.602   0.175  0.1163 -0.1595  0.0482
16556W        W33030  17.273   0.886  16.135 -0.0414  0.1621  0.0300
16557W        W33031  16.509  10.799   3.892 -0.0159  0.2542  0.1208
16558W        W33032   1.894   9.969  11.599  0.2604 -0.2275 -0.0058
16559W        W33033  17.649  17.428  16.027  0.0596  0.5690  0.0399
16560W        W33034  18.080  16.216   2.906  0.2566 -0.1121  0.0094
16561W        W33035   5.473  11.053  12.858 -0.0655 -0.1752  0.0955
16562W        W33036   0.513  15.434   1.231  0.1369 -0.1603 -0.0475
16563W        W33037   3.488  17.665   3.164 -0.3781  0.0001 -0.1147
16564W        W33038   6.509   3.441  13.989 -0.0709  0.0300 -0.0048
16565W        W33039   0.593  17.580  13.780 -0.1386  0.3917 -0.0055
16566W        W33040   7.209  11.968  12.292  0.0073  0.2786  0.2137
16567W        W33041  16.650  16.185  15.504  0.0326  0.3033 -0.3585
16568W        W33042  12.630  11.207   6.040  0.4236  0.3095 -0.0038
16569W        W33043  14.342  12.044  16.238 -0.2527 -0.2663  0.1340
16570W        W33044   1.809   9.962   4.825 -0.3571  0.0396  0.2069
16571W        W33045  12.202  14.096   1.604  0.1985  0.1263 -0.0675
16572W        W33046  13.252  11.619   3.740  0.1564 -0.1890 -0.2963
16573W        W33047  15.394  17.596  16.311  0.1757  0.0493 -0.1928
16574W        W33048  17.550   6.308  12.735  0.1742 -0.0170  0.1045
16575W        W33049   3.303   4.789  13.360  0.2924  0.0640 -0.3677
16576W        W33050  16.943   2.310  14.930  0.0191  0.1256 -0.2555
16577W        W33051   8.199  10.487  11.146 -0.1347  0.0449  0.2078
16578W        W33052   5.969  12.019  13.431  0.3699 -0.2832  0.0660
16579W        W33053   1.132   3.813  13.707  0.2799 -0.0460 -0.0154
16580W        W33054  15.212   7.348   3.754 -0.1692 -0.1207 -0.3705
16581W        W33055  12.321  11.491  14.175 -0.0924 -0.0930 -0.1121
16582W        W33056  12.322   1.460  11.099  0.4252 -0.2607  0.1138
16583W        W33057  12.227  16.903  12.061 -0.2088 -0.0276  0.0120
16584W        W33058   1.831  13.404   4.337  0.0434 -0.0573 -0.1619
16585W        W33059  10.264  10.170  14.197 -0.0812  0.2336  0.2217
16586W        W33060  11.849  17.058  15.935 -0.0694 -0.3137  0.0075
16587W        W33061  10.517  16.506  16.223  0.1883  0.0163  0.1469
16588W        W33062  16.490   5.212  13.813 -0.0821  0.0313 -0.2508
16589W        W33063   3.233  15.365   1.527  0.2120 -0.0024  0.0292
16590W        W33064  12.124   3.545   4.150  0.3367 -0.0023  0.2444
16591W        W33065  12.789  13.613  12.325  0.0404  0.1226  0.0454
16592W        W33066   9.458   4.859   3.624  0.1499  0.2467 -0.2965
16593W        W33067   1.252   2.840   2.334  0.1411  0.1047 -0.0205
16594W        W33068   4.432  17.032   3.920 -0.5497 -0.1927  0.0361
16595W        W33069   5.902  17.020   3.818 -0.2400  0.0117 -0.1030
16596W        W33070   6.203   4.435   5.243  0.2260 -0.1883 -0.1464
16597W        W33071   9.751   0.316   4.468  0.0038  0.1355  0.0084
16598W        W33072   3.883   5.122   3.030 -0.0499 -0.2553  0.0238
16599W        W33073   4.276   4.546  13.666 -0.2629  0.1782 -0.0462
16600W        W33074  13.560  12.478   1.758  0.0127  0.2681  0.0830
16601W        W33075   6.729   8.587  12.405 -0.1376  0.1841 -0.0033
16602W        W33076  12.937  15.804  11.905  0.1644  0.1947 -0.1368
16603W        W33077  11.973  11.130  15.625  0.1814  0.1479 -0.1027
16604W        W33078   1.524   1.129  15.244  0.2399 -0.0877 -0.0582
16605W        W33079  10.474  12.794   5.437 -0.0869 -0.0008  0.4169
16606W        W33080  13.230   7.925   5.090  0.0361 -0.1937 -0.1175
16607W        W33081  11.082  10.950   1.316 -0.1606 -0.1811  0.3549
16608W        W33082   6.729  10.236   1.061 -0.1015 -0.1995  0.0439
16609W        W33083   6.794   2.611  12.432  0.0471  0.2608 -0.0521
16610W        W33084   2.082   7.791  13.937  0.0464  0.1066 -0.0029
16611W        W33085  15.508   1.759   3.201  0.2370  0.0357 -0.2637
16612W        W33086   5.455  13.460   1.502  0.1074  0.1508  0.0662
16613W        W33087   8.953  12.857  15.657  0.0145 -0.2074  0.0739
16614W        W33088   6.459   4.750   4.864 -0.0528 -0.0941 -0.1847
16615W        W33089   3.076  11.170  13.883  0.2253 -0.3415 -0.1169
16616W        W33090   4.844   3.338  13.569 -0.1255 -0.1949 -0.0762
16617W        W33091   6.290  17.161   4.153  0.0551  0.0359  0.0187
16618W        W33092   4.930   7.897  14.540  0.2906 -0.3154 -0.1059
16619W        W33093   2.174   3.287  15.859  0.1055 -0.1961 -0.1238
16620W        W33094   2.380   0.298  13.710 -0.4541  0.2870 -0.1857
16621W        W33095  10.929  14.338   5.621 -0.0564  0.2321 -0.1130
16622W        W33096   7.641  12.478   4.648 -0.0787 -0.0105 -0.3009
16623W        W33097   3.684   0.888  14.030 -0.2323  0.3780  0.1193
16624W        W33098  12.444  17.958  15.831 -0.0823  0.0064 -0.1126
16625W        W33099  11.913   3.756  15.726  0.2335  0.0698 -0.2665
16626W        W33100   0.722   3.637  15.499 -0.2610  0.0562  0.0137
16627W        W33101  13.837   7.170  13.616  0.1469 -0.1967  0.1757
16628W        W33102  16.231  15.855   3.634  0.1805 -0.2647  0.0336
16629W        W33103   8.430   4.847  13.942 -0.2267  0.0309 -0.0941
16630W        W33104   9.823  11.446  12.325  0.0800 -0.0869 -0.0398
16631W        W33105  13.090   6.583  12.625  0.2066  0.2043  0.3294
16632W        W33106   0.467  16.463   0.544 -0.4845 -0.3412 -0.2168
16633W        W33107   8.722   7.943   4.294  0.1138  0.1539 -0.2273
16634W        W33108   9.774  15.126  14.132 -0.2122 -0.0831  0.0047
16635W        W33109   6.598   9.758   5.727  0.0392  0.3801  0.1571
16636W        W33110   5.093  16.351  14.384 -0.0245 -0.0827 -0.1090
16637W        W33111  11.153   6.158  12.006  0.4607  0.0229 -0.0023
16638W        W33112   2.471  16.486  15.554  0.3303 -0.2080 -0.0159
16639W        W33113   8.726  14.159   4.476 -0.0024 -0.0232 -0.4010
16640W        W33114  17.250   0.894   1.088 -0.3954 -0.3147 -0.1659
16641W        W33115  13.872  15.441   4.973  0.1191 -0.1224  0.3505
16642W        W33116   2.718   9.988   3.538 -0.0182  0.2645  0.2127
16643W        W33117   5.451  14.742  15.222  0.1060  0.0737  0.0872
16644W        W33118  10.487   4.881   0.384 -0.0538 -0.0754 -0.0902
16645W        W33119   2.969  16.065   0.136  0.0648  0.0163 -0.0146
16646W        W33120  16.425   4.390   4.234 -0.3242 -0.1690  0.1562
16647W        W33121  13.543  13.582   5.131  0.0562 -0.1251  0.2128
16648W        W33122   4.365   8.104  13.845 -0.5640  0.3340  0.2258
16649W        W33123   7.075   7.801  15.331  0.0919 -0.0168  0.0333
16650W        W33124  13.546   1.603   4.242 -0.1193  0.0458  0.0892
16651W        W33125   1.212   1.768  12.155  0.0260 -0.0912 -0.2117
16652W        W33126  11.551  14.704   2.358 -0.1402  0.0858 -0.0017
16653W        W33127   9.883   2.509   4.767 -0.0895  0.0118  0.0528
16654W        W33128  12.771   1.076   1.183  0.2442  0.0951  0.0020
16655W        W33129   7.028  17.474  14.287  0.0239 -0.2566  0.0100
16656W        W33130  18.085  10.594  11.567 -0.0948  0.1543  0.0948
16657W        W33131   0.345   5.086  10.461 -0.3769  0.0582 -0.1418
16658W        W33132   2.493   7.480  13.991  0.0376  0.0003  0.0544
16659W        W33133  11.128  17.617  15.393  0.0245  0.0035  0.1765
16660W        W33134  16.715   0.260   4.775 -0.0996 -0.3245  0.0183
16661W        W33135   6.452  17.713  10.564  0.2124  0.1218 -0.1221
16662W        W33136   3.677   9.332  12.831  0.1887  0.0622  0.0360
16663W        W33137  15.976   6.102  12.042 -0.0896  0.0839 -0.2595
16664W        W33138  17.263  10.921  13.474  0.0630 -0.0665  0.1046
16665W        W33139  17.320  14.380   1.347  0.0878 -0.3440 -0.0256
16666W        W33140  13.851   2.490   1.827 -0.0669  0.1900  0.3879
16667W        W33141   9.141  15.194  14.885  0.3169  0.0415  0.0516
16668W        W33142   6.821  17.250   2.985 -0.1714 -0.0400 -0.1172
16669W        W33143   7.390   6.849   2.374 -0.0897 -0.1432  0.0362
16670W        W33144  10.179  17.144   2.545 -0.1722  0.1121 -0.2923
16671W        W33145   9.195  16.118   3.556  0.0211 -0.0688 -0.2699
16672W        W33146   7.896   3.152   0.929  0.2246 -0.0310 -0.0992
16673W        W33147   5.208  14.192  14.411  0.1363 -0.0575 -0.2853
16674W        W33148  10.507   5.774  11.515  0.3689  0.2009  0.1477
16675W        W33149   0.905  14.892  15.585  0.0800 -0.3024 -0.3767
16676W        W33150   7.862  18.022  15.535 -0.0703  0.1330 -0.1266
16677W        W33151  17.183   2.371  11.158 -0.0661  0.1734  0.0793
16678W        W33152   1.559   2.071   3.866  0.0346  0.0226 -0.1413
16679W        W33153   7.874   8.575  13.461 -0.0228  0.2820 -0.0210
16680W        W33154  11.680   0.347  11.891 -0.1460  0.0796 -0.1371
16681W        W33155  13.703   3.896   2.178 -0.2238 -0.0617 -0.1541
16682W        W33156  10.577   8.856   4.633  0.0093 -0.0648 -0.0210
16683W        W33157  14.387  14.843   4.263  0.1668  0.2910 -0.1780
16684W        W33158  12.633   8.254  15.593 -0.1205 -0.1745 -0.2285
16685W        W33159   2.374   1.231   3.512  0.0496 -0.2654  0.3913
16686W        W33160   0.793   1.915   0.843 -0.0563 -0.1450  0.1171
16687W        W33161  12.116   2.045  14.147  0.0317  0.0379  0.0291
16688W        W33162  17.915  15.449  13.789 -0.1862  0.1623 -0.0670
16689W        W33163   3.910  18.014  16.075  0.0166 -0.2806  0.3540
16690W        W33164  10.235   7.270   4.564  0.0530 -0.0443  0.2794
16691W        W33165  10.722   5.672  13.592  0.2240 -0.0401 -0.0329
16692W        W33166   0.239  12.645   3.972 -0.0766  0.0292  0.0628
16693W        W33167   3.582   2.927  15.451 -0.3638  0.1197 -0.3057
16694W        W33168   5.687   8.753   3.602 -0.0879 -0.2149 -0.0766
16695W        W33169   6.794   5.810   1.641 -0.0233  0.0392  0.0478
16696W        W33170   7.484   8.746  15.111 -0.0188  0.0641 -0.0959
16697W        W33171   5.537  11.130  12.035  0.2133  0.0191  0.2040
16698W        W33172   3.022  17.609   3.035 -0.0700  0.2208  0.1247
16699W        W33173  16.521  13.699  16.042 -0.0583  0.2974 -0.0482
16700W        W33174  14.797  10.840   4.337  0.0529  0.3934  0.2102
16701W        W33175   3.058   3.880   3.219  0.1387  0.1607 -0.0511
16702W        W33176   6.874   7.941  12.480 -0.1959  0.1780  0.0448
16703W        W33177  11.299   2.947  15.256 -0.4300  0.1375 -0.1259
16704W        W33178  13.456  17.450   4.626  0.3542  0.0749  0.2932
16705W        W33179   3.311   6.847   2.454  0.2247  0.0752  0.1708
16706W        W33180  10.862   2.461  13.125 -0.2433 -0.0548 -0.1274
16707W        W33181  17.563  14.163  15.157 -0.2236  0.0619  0.1095
16708W        W33182   1.568   7.464  14.550 -0.0405 -0.0127 -0.1965
16709W        W33183  11.747  11.881   3.536 -0.0285  0.0458 -0.0713
16710W        W33184   3.503  15.654  15.623  0.1037 -0.0011  0.0240
16711W        W33185   1.779   1.828  12.839 -0.1445  0.0197 -0.0179
16712W        W33186   6.802   7.101  13.805  0.0506 -0.1029 -0.0579
16713W        W33187   1.058   1.720  15.646  0.0547  0.0590  0.0701
16714W        W33188   0.435   9.968  12.089 -0.0038  0.2205  0.0732
16715W        W33189  10.609  10.202   0.652  0.1224 -0.0837  0.0766
16716W        W33190   2.901   7.431  15.233 -0.2452  0.4417  0.1471
16717W        W33191  16.569   0.155   4.264 -0.0745 -0.0700 -0.1338
16718W        W33192  10.584   3.961   5.761 -0.0068 -0.3842 -0.2854
16719W        W33193  17.383   4.682  13.041  0.1125 -0.0723  0.0592
16720W        W33194   5.478   0.238   1.859 -0.2231 -0.0960  0.1114
16721W        W33195   1.845   5.996   1.123  0.0598  0.1943  0.2184
16722W        W33196  14.799   1.586  13.786 -0.1635 -0.2548 -0.1040
16723W        W33197  17.836   7.594   1.663 -0.1420  0.0906  0.1005
16724W        W33198   0.392  12.150  14.413  0.0702  0.1501  0.1260
16725W        W33199   7.889  14.417  15.239 -0.0017 -0.0535  0.0095
16726W        W33200  17.762  15.878  13.615  0.1221  0.0874 -0.1184
16727W        W33201   1.476   7.072  13.668  0.3643 -0.1209  0.4047
16728W        W33202  14.043   1.455   1.925  0.1958  0.3217  0.2102
16729W        W33203   2.619   6.171   2.165 -0.0916  0.1499 -0.0546
16730W        W33204  12.587  16.394   2.912  0.0820  0.1051  0.0682
16731W        W33205  16.278   3.183   0.530  0.2883 -0.1638 -0.0053
16732W        W33206  12.616  12.822  15.974  0.1937  0.0043  0.1259
16733W        W33207  15.740   5.626   0.491  0.3397 -0.1658 -0.0404
16734W        W33208   2.139   8.605  16.218 -0.2699  0.1475  0.0552
16735W        W33209  10.116  17.907  15.035 -0.1886 -0.1596  0.1757
16736W        W33210   7.362  10.169   3.876  0.0474 -0.1940 -0.0612
16737W        W33211  13.860   9.058  15.606  0.0212 -0.0198 -0.1266
16738W        W33212  15.627   4.522   0.485  0.1642 -0.0639  0.3402
16739W        W33213   4.495  12.886  11.197  0.3053  0.3253  0.0209
16740W        W33214   7.248  16.513   4.753 -0.1751  0.1322 -0.0985
16741W        W33215   6.949   3.850   1.747 -0.3670  0.2021  0.2579
16742W        W33216   3.436   1.536   5.375 -0.1051  0.1071 -0.2191
16743W        W33217   7.662  12.864   5.084 -0.1884  0.2574  0.1615
16744W        W33218  11.720   2.226   4.203 -0.4786  0.0660  0.1648
16745W        W33219  16.525   6.688   2.111 -0.2565  0.4166 -0.2645
16746W        W33220  10.657   8.804   3.552  0.0043  0.1038  0.0023
16747W        W33221  16.023   7.861  13.072 -0.1003 -0.0710 -0.1969
16748W        W33222   1.078  13.786   2.550  0.2888  0.2272  0.2714
16749W        W33223  17.938   2.664   5.581 -0.1014  0.2216  0.1635
16750W        W33224   9.517   7.910  12.674 -0.2507 -0.0285 -0.1661
16751W        W33225  17.036  11.855   4.373 -0.2123 -0.0227  0.0552
16752W        W33226  16.199  17.540  15.571 -0.3937 -0.1678  0.2264
16753W        W33227   1.588   6.374  15.874 -0.1822 -0.1528  0.0153
16754W        W33228   4.619   2.217  14.488 -0.0917  0.1363 -0.1586
16755W        W33229   9.455   2.552  15.271 -0.0826 -0.0185 -0.1368
16756W        W33230   4.705  10.582  16.082 -0.0053  0.0712  0.1129
16757W        W33231   0.440  14.608  12.869 -0.1221  0.0052 -0.2530
16758W        W33232  10.801   6.855  15.294 -0.3536  0.1704  0.2203
16759W        W33233   7.857  11.870  13.969 -0.1684  0.0290 -0.2379
16760W        W33234   2.430   8.073   0.317  0.4361 -0.1061  0.0829
16761W        W33235   8.649  18.152   1.391  0.1891  0.3838 -0.1104
16762W        W33236   5.992   2.312  11.901 -0.0373 -0.1781 -0.1341
16763W        W33237   6.129  13.238  14.011 -0.0005 -0.2243  0.2264
16764W        W33238   4.557   6.329   0.475  0.0381 -0.1746  0.3995
16765W        W33239  17.194  13.611   3.122  0.0008  0.0414 -0.1457
16766W        W33240  15.899   8.021  11.864 -0.3822 -0.0643 -0.0294
16767W        W33241   7.703   3.433  15.601 -0.2760  0.0202  0.0158
16768W        W33242   5.772   2.146   0.474 -0.1238  0.0231 -0.0781
16769W        W33243   6.892   8.774  13.225 -0.1675 -0.1334  0.1115
16770W        W33244  11.004   1.616   1.213 -0.0382  0.0342  0.0286
16771W        W33245   9.862   7.859  15.428  0.2579 -0.2541 -0.1774
16772W        W33246  11.133   4.312  14.737  0.0732  0.2662  0.1328
16773W        W33247  11.328   3.883   1.071 -0.0755 -0.3379 -0.0148
16774W        W33248   3.926   2.226   5.780  0.0600  0.0794  0.1401
16775W        W33249   0.125  11.964   3.185 -0.0453  0.1138  0.4156
16776W        W33250  17.989   3.709  14.358  0.0762  0.1139 -0.3407
16777W        W33251   3.807  10.489  10.798 -0.1288 -0.1700 -0.3857
16778W        W33252  10.729   8.362   3.843 -0.0386  0.0245  0.2078
16779W        W33253   8.791  14.511   3.087  0.1224 -0.0356 -0.1315
16780W        W33254   7.118   2.350   0.877  0.3114 -0.0121  0.1156
16781W        W33255   1.057  10.421  14.238 -0.1948 -0.0764  0.1876
16782W        W33256   9.196   2.943   5.897  0.0686 -0.2068  0.1651
16783W        W33257  10.365  15.422   2.977 -0.1219 -0.0043 -0.1543
16784W        W33258  15.404  11.074  14.496  0.2833 -0.3421 -0.0530
16785W        W33259   6.803  14.789  12.948 -0.1011 -0.2101 -0.2230
16786W        W33260  17.029  12.725  16.091 -0.0358 -0.0265 -0.0720
16787W        W33261   0.656   2.299  14.789  0.1087 -0.0839 -0.0076
16788W        W33262  17.252   1.178  11.868 -0.1097 -0.0321  0.1415
16789W        W33263   1.661  10.223  15.064 -0.1909  0.1248  0.0381
16790W        W33264   4.921   6.814  12.178  0.0459 -0.2132 -0.2358
16791W        W33265   0.339  12.649  15.975  0.2480 -0.2592  0.1932
16792W        W33266  16.092   4.281   4.874 -0.2063  0.0786  0.2005
16793W        W33267  11.624   0.386   1.524 -0.0337  0.1066  0.0182
16794W        W33268  10.974  10.372  12.488 -0.0569 -0.2422  0.0797
16795W        W33269   3.007  14.880   1.262  0.3512 -0.0790  0.0728
16796W        W33270  12.681   9.158  13.773 -0.1127 -0.1562  0.0611
16797W        W33271   9.644  14.512  13.087  0.2660 -0.2106  0.0526
16798W        W33272  14.798  14.674   2.000  0.1301  0.1100  0.1379
16799W        W33273   9.102   3.931  15.251  0.2591 -0.0441 -0.1975
16800W        W33274   3.411   7.278  12.383 -0.2211  0.2263 -0.0500
16801W        W33275   2.661  16.175  11.512  0.1738  0.1049 -0.2024
16802W        W33276  16.838   7.236  16.340  0.2457  0.2958  0.3571
16803W        W33277   3.171   6.916  13.892 -0.1403  0.0552  0.1278
16804W        W33278   8.804  16.328   1.080  0.0308  0.2004  0.1889
16805W        W33279   1.690  15.813   2.164 -0.2068 -0.0802  0.1687
16806W        W33280  11.842  16.642  14.287 -0.2619  0.6129 -0.2864
16807W        W33281   6.649  13.641  12.309  0.1378 -0.0380  0.1049
16808W        W33282  14.752   5.608  16.184  0.2289 -0.0898  0.0713
16809W        W33283  17.710   8.811   3.029  0.0074  0.1146 -0.2701
16810W        W33284  17.721  10.593   4.244 -0.1090 -0.1299 -0.2167
16811W        W33285   3.506   7.034   5.270 -0.0147  0.1645  0.0811
16812W        W33286  15.299  14.965   0.176 -0.2547 -0.1259  0.0845
16813W        W33287  14.253  14.812   1.310 -0.0110 -0.0619 -0.0533
16814W        W33288  15.345  16.348  12.024  0.0407 -0.1182 -0.2425
16815W        W33289  16.886   7.033   1.152  0.2991 -0.0932  0.0389
16816W        W33290   4.972   0.136   3.859 -0.1512 -0.0396  0.3970
16817W        W33291   1.626   8.961  11.461  0.2412 -0.2401 -0.2967
16818W        W33292   9.006   9.617   3.075 -0.1792 -0.0099  0.1743
16819W        W33293   6.647  16.093   3.154 -0.2223  0.0391  0.1222
16820W        W33294  16.363   1.069  12.215 -0.0536  0.0148 -0.3125
16821W        W33295   5.652   6.355   4.860 -0.0773 -0.0019  0.1045
16822W        W33296  13.620  10.109  11.883 -0.0359 -0.0105 -0.0785
16823W        W33297  12.637  15.905   0.552 -0.3236 -0.1368 -0.1673
16824W        W33298   4.980   1.037   2.360 -0.0592 -0.0695 -0.1774
16825W        W33299   6.690   1.165  12.845 -0.0261  0.0855 -0.2104
16826W        W33300   5.870   7.296   4.399  0.0699 -0.0623 -0.0293
16827W        W33301   2.980   4.160  14.151  0.0505 -0.0134  0.3640
16828W        W33302  11.140   4.871  14.997 -0.0512  0.0968 -0.0744
16829W        W33303  14.086  14.978  15.964 -0.2783 -0.2028 -0.1510
16830W        W33304  14.858  17.607   4.503 -0.0635 -0.0415 -0.0561
16831W        W33305   9.217   7.955  11.535 -0.0585 -0.0349  0.0479
16832W        W33306   1.832  14.618   3.891 -0.0114  0.2274  0.0479
16833W        W33307  11.474  10.198   0.393 -0.0012 -0.4359  0.2150
16834W        W33308   3.833   3.647  13.773 -0.2868 -0.1722  0.0938
16835W        W33309  14.538  15.251  15.082  0.1827 -0.0400  0.0155
16836W        W33310   5.011   4.654   0.145  0.0453 -0.2485  0.0736
16837W        W33311   1.575  14.173  14.362 -0.1245 -0.0451 -0.1075
16838W        W33312  12.688   2.327  11.777  0.1464  0.0952  0.1858
16839W        W33313   3.775   8.721  12.954  0.1110  0.0883 -0.3043
16840W        W33314   4.422   0.976  12.718 -0.1300 -0.1201 -0.0269
16841W        W33315   1.158   5.021   4.022  0.1574 -0.1411 -0.2473
16842W        W33316   3.129   7.066   1.070  0.2397  0.0459  0.2308
16843W        W33317  12.203  17.486  15.881  0.0559  0.1242  0.0890
16844W        W33318   3.817   6.919   0.285  0.1121  0.1452 -0.0795
16845W        W33319  11.690  12.662  15.940 -0.3062  0.3300  0.1583
16846W        W33320   6.507  15.009  12.578 -0.0930 -0.0800 -0.0696
16847W        W33321   2.567  12.551   0.909  0.1685  0.0669 -0.1440
16848W        W33322  14.258  15.519   1.013  0.1076  0.0054 -0.1355
16849W        W33323  10.622  16.353   1.106 -0.1612  0.1085 -0.3657
16850W        W33324   5.104   3.225  15.420 -0.1797  0.1658 -0.2471
16851W        W33325   0.727   6.819   1.388 -0.2181  0.0514 -0.4196
16852W        W33326  14.313   4.614   4.986  0.0861  0.0395  0.0088
16853W        W33327  13.316   5.003   4.250  0.0752 -0.1761 -0.1598
16854W        W33328  15.093  17.609  11.112  0.1949  0.1827 -0.0625
16855W        W33329  10.174   4.135  12.321 -0.0432 -0.0344  0.2202
16856W        W33330   9.809   1.855   6.097 -0.0997 -0.0654  0.2954
16857W        W33331   4.457   8.917  16.120  0.0726 -0.1639  0.1204
16858W        W33332   4.477  18.023   0.543 -0.0692  0.1180 -0.1497
16859W        W33333   4.005  12.995   1.272  0.2537 -0.0104  0.0261
16860W        W33334   9.488   9.026  15.643 -0.0316  0.1622 -0.3038
16861W        W33335   1.501  17.539  12.794  0.0892  0.2505  0.0053
16862W        W33336  10.910   2.785  13.562 -0.1318  0.0442  0.0380
16863W        W33337   1.621  13.939  15.271  0.2562  0.0202 -0.2420
16864W        W33338   9.574   2.284  12.150 -0.1198 -0.0913 -0.4486
16865W        W33339  16.386  14.801   3.755 -0.1791  0.0775  0.4071
16866W        W33340  15.073  11.506   5.752  0.1034  0.1023  0.0471
16867W        W33341   7.506   9.645   0.961  0.0736  0.1047 -0.1126
16868W        W33342  11.254   9.378  16.329 -0.0904 -0.3461  0.0431
16869W        W33343  11.958  10.833   0.865 -0.0638  0.0896 -0.1888
16870W        W33344  16.567   2.587   5.315  0.1897  0.0461  0.2891
16871W        W33345   4.880   0.911   4.005 -0.2782  0.1639 -0.0538
16872W        W33346   8.928   4.270   2.379 -0.1725  0.0676 -0.1438
16873W        W33347   6.725   0.559   3.380 -0.1686 -0.2630  0.2762
16874W        W33348   9.348   6.948   5.496 -0.0239 -0.2840 -0.1254
16875W        W33349  12.672   7.684  16.059  0.0406  0.0919  0.1313
16876W        W33350   8.020   9.613   4.308 -0.1331 -0.2141  0.0226
16877W        W33351  12.842  11.252   0.447 -0.1440  0.1255  0.2917
16878W        W33352   1.446   6.556   4.235  0.1503 -0.2549 -0.2118
16879W        W33353   2.053  14.138  15.635 -0.1153  0.0481  0.0445
16880W        W33354   6.867   1.931  13.179 -0.0525 -0.0950 -0.0151
16881W        W33355  17.489  17.242  11.772 -0.1116  0.1471 -0.1352
16882W        W33356   1.478   2.149  15.070  0.1455  0.0224 -0.3058
16883W        W33357   2.836  12.019  10.300 -0.1295  0.1343  0.1468
16884W        W33358  13.812   8.329  12.650 -0.5240 -0.2337 -0.0358
16885W        W33359  17.767  16.437  15.485  0.4166  0.2197  0.2583
16886W        W33360   5.913   2.616  12.995 -0.0653  0.0689 -0.3693
16887W        W33361   1.983  11.893   0.325 -0.0323  0.0687  0.1473
16888W        W33362  15.143   4.953   3.931  0.2047 -0.1093  0.1443
16889W        W33363   7.288  11.419   1.972 -0.0167 -0.1196 -0.1021
16890W        W33364   6.531   1.021   3.485  0.0678  0.0238  0.0572
16891W        W33365   3.423   6.433   2.749  0.2747 -0.0553  0.1445
16892W        W33366   9.265   4.969   5.420  0.0111  0.0614  0.1234
16893W        W33367   8.714   3.811   5.271  0.1300 -0.0766 -0.0859
16894W        W33368   6.354   1.114  11.919 -0.0596  0.4881 -0.1997
16895W        W33369  17.246  13.580  12.841 -0.0629  0.0539 -0.0016
16896W        W33370   1.278   3.828   0.810  0.4633  0.0594 -0.3690
16897W        W33371  13.221   6.599  13.472 -0.1593  0.2355 -0.2254
16898W        W33372  15.522   5.200   0.490 -0.1977 -0.3070  0.0392
16899W        W33373   5.719   6.672  11.794  0.0867  0.1623  0.2013
16900W        W33374  13.874   5.226   3.009  0.0386  0.0109  0.1549
16901W        W33375   1.322   5.079  11.928 -0.0227 -0.0654 -0.1950
16902W        W33376   1.973   1.951  14.257  0.2145 -0.4245  0.2500
16903W        W33377  13.311   7.646   1.655 -0.1159  0.1801 -0.2536
16904W        W33378  10.381   7.642   3.654  0.0070  0.0050 -0.0153
16905W        W33379   4.581  12.477   0.972  0.1179  0.1360  0.0997
16906W        W33380  12.947  13.729  10.571 -0.2210  0.1943 -0.1372
16907W        W33381  16.873   4.274  12.350  0.0004  0.0321  0.1290
16908W        W33382  10.395  14.480   5.703 -0.0595 -0.1173  0.0500
16909W        W33383   2.625   7.585  12.293  0.1797 -0.2271  0.5922
16910W        W33384  12.376   5.580  15.560  0.1670  0.1771 -0.1174
16911W        W33385   7.648  17.575   1.722  0.0516  0.0291 -0.0578
16912W        W33386  14.906   6.005   0.256  0.0589  0.2053 -0.0704
16913W        W33387  10.566  15.191   3.810  0.0751  0.1868 -0.4400
16914W        W33388   6.955  13.834  15.695 -0.0095 -0.0787 -0.0845
16915W        W33389   2.002   1.764  13.303 -0.2145  0.0444  0.0934
16916W        W33390   8.595  11.730  12.686  0.3029  0.4593 -0.0846
16917W        W33391  16.253  16.727   4.559  0.1353 -0.2301  0.0124
16918W        W33392  16.485   0.618   3.416  0.3568 -0.2213 -0.1401
16919W        W33393  15.036   6.834  14.473 -0.1010 -0.1416 -0.1399
16920W        W33394   4.824   8.290  12.455  0.0647  0.4361  0.1186
16921W        W33395  12.498  16.650   0.939  0.2048  0.1545  0.2658
16922W        W33396   6.955   9.624  13.926 -0.2181  0.0935  0.3456
16923W        W33397   8.444  12.032  15.355  0.3172  0.1257 -0.1661
16924W        W33398   9.444   8.742   0.719  0.0171  0.0826  0.2231
16925W        W33399  10.064   1.955   3.778  0.2288 -0.1029 -0.1108
16926W        W33400  11.587   1.430  16.347  0.0020 -0.1819 -0.4037
16927W        W33401  15.073  10.985   3.320  0.3331  0.0761 -0.2519
16928W        W33402  12.979  13.978   3.533  0.1853 -0.1971 -0.0217
16929W        W33403   9.212  16.119  15.240  0.1527 -0.0495  0.0488
16930W        W33404  11.225   9.800  13.186 -0.0486 -0.1562 -0.3180
16931W        W33405  13.081   1.502   0.647  0.4914 -0.0655  0.0359
16932W        W33406   0.242   4.574   1.128 -0.0120  0.2035 -0.1712
16933W        W33407  17.171  14.755   1.748 -0.1139  0.1546 -0.3384
16934W        W33408   2.724   1.423  16.346  0.0176 -0.0447 -0.3557
16935W        W33409   6.171   2.587  11.119 -0.0615  0.1021 -0.0704
16936W        W33410   8.178  17.769  14.625  0.1084  0.0658  0.0041
16937W        W33411  13.866   6.720  13.861  0.1219 -0.2976  0.0053
16938W        W33412   1.799  17.031   0.701  0.0443 -0.1876 -0.3016
16939W        W33413   5.224   8.976   1.502  0.0520 -0.1751 -0.1649
16940W        W33414  13.212  10.256   3.516  0.3435 -0.1252  0.0768
16941W        W33415   3.844  12.319  16.368  0.0786 -0.0036 -0.2391
16942W        W33416  13.607   1.084   4.154 -0.0327  0.1901 -0.0389
16943W        W33417   9.431  17.551  11.973 -0.1357  0.0721 -0.0524
16944W        W33418  11.666  15.139   2.666 -0.0884  0.0120 -0.1071
16945W        W33419  13.689   0.316   4.253  0.1429 -0.1985  0.3250
16946W        W33420  17.486  16.892   2.869 -0.1570 -0.1514  0.3596
16947W        W33421   4.434  14.023  13.161 -0.0782 -0.1280  0.1773
16948W        W33422   4.364   3.669  15.725 -0.1414  0.1049 -0.2936
16949W        W33423   2.012   5.353  13.237  0.1481 -0.0042 -0.0324
16950W        W33424   1.539   3.879   1.862 -0.1108  0.0260 -0.0420
16951W        W33425  13.941  10.446  12.770 -0.1496 -0.1111 -0.1822
16952W        W33426  12.535  12.565  15.551  0.1065  0.1262 -0.1481
16953W        W33427  14.680  16.347   3.264  0.1863 -0.2123  0.2052
16954W        W33428  15.654   0.229   5.077  0.2147 -0.0852 -0.0677
16955W        W33429   2.865   9.096   4.055 -0.1046 -0.0727  0.0180
16956W        W33430  11.301   0.314   1.971  0.2291  0.1259  0.0718
16957W        W33431   0.514   8.720   0.399  0.1306  0.0828 -0.0143
16958W        W33432  17.723  16.301   0.933 -0.2446  0.0413  0.3585
16959W        W33433   3.413  13.347  13.942 -0.1957  0.0948 -0.4826
16960W        W33434  13.308  16.959   3.166  0.2191 -0.1369  0.1088
16961W        W33435   0.565  16.038   2.281  0.3343  0.3781 -0.1262
16962W        W33436   9.289  13.885   4.293  0.1794 -0.3543 -0.0691
16963W        W33437   7.724   2.376   0.197 -0.0721  0.0258 -0.1606
16964W        W33438   2.264   3.357  12.092 -0.3720 -0.1574  0.0326
16965W        W33439  10.942   2.836   1.555 -0.0658  0.0643  0.1199
16966W        W33440   4.146  17.655   0.461 -0.0799  0.1295 -0.0469
16967W        W33441   9.434  14.319  15.375  0.1494  0.1626  0.3959
16968W        W33442   4.285  16.672   4.790 -0.1181  0.0016 -0.0758
16969W        W33443  15.738   8.232  10.981 -0.1250 -0.1936  0.3161
16970W        W33444  13.491   0.892   3.651  0.0227 -0.1690 -0.5305
16971W        W33445  10.655  16.873  15.643  0.0715 -0.0192 -0.0490
16972W        W33446   8.423  15.838  14.542 -0.0206  0.0276 -0.1044
16973W        W33447  13.633   7.387  12.863  0.1927 -0.0118  0.3044
16974W        W33448   7.507   5.136   2.806  0.1631 -0.0469  0.0075
16975W        W33449   2.477   4.139   2.708  0.1184  0.3166  0.0423
16976W        W33450   1.496  15.200  12.387  0.1050 -0.1787  0.0311
16977W        W33451   9.145  12.238  13.528  0.2443  0.0120 -0.0018
16978W        W33452  12.116   6.263   2.386  0.0220  0.1081 -0.0366
16979W        W33453   5.345   4.661  14.134  0.0985  0.1674  0.1653
16980W        W33454   9.483   7.633  15.776 -0.1463  0.1231 -0.1293
16981W        W33455  15.248   1.126   0.583  0.0095 -0.1174 -0.0292
16982W        W33456  12.892   7.725  12.368  0.2048  0.0780 -0.0843
16983W        W33457  13.776   3.108  14.236 -0.2054 -0.1822  0.1007
16984W        W33458   9.664   0.457   6.220  0.0594 -0.0010  0.1510
16985W        W33459   7.740   8.340   2.367 -0.1807  0.1990  0.1547
16986W        W33460  10.020  16.451   2.331 -0.0769  0.0867  0.1042
16987W        W33461   2.451   7.716   4.711  0.0951 -0.1280  0.0702
16988W        W33462   0.315  10.331  13.072  0.1262  0.2955  0.2286
16989W        W33463  14.158  12.720  13.417 -0.0460  0.1563  0.0564
16990W        W33464   6.473   6.843   3.080 -0.1880  0.2264 -0.2947
16991W        W33465  18.166   8.907  14.091  0.0760 -0.1062  0.1261
16992W        W33466   7.302  11.094   5.096  0.4118 -0.0207  0.0444
16993W        W33467  12.686   8.733  13.133 -0.1902 -0.2149  0.0658
16994W        W33468  15.539   0.143  13.638  0.1839 -0.0435  0.1148
16995W        W33469  13.646   2.243  10.697  0.0082  0.1113 -0.0874
16996W        W33470   2.323   0.367  12.793 -0.3635 -0.4149  0.0640
16997W        W33471  14.356   7.994   3.064  0.0129  0.1447 -0.0445
16998W        W33472  17.109  17.663   2.134  0.2371  0.1442  0.1285
16999W        W33473  15.322   8.160   3.857  0.1106  0.0378 -0.2946
17000W        W33474  11.471   8.661   1.088  0.0525 -0.0958  0.1642
17001W        W33475   8.141   0.694   0.385  0.2582  0.2096  0.1602
17002W        W33476  17.415  15.098   1.440 -0.0882 -0.1169  0.2965
17003W        W33477   7.358  14.043   1.763  0.1783 -0.0083  0.1064
17004W        W33478   1.102   7.827  12.739 -0.1369 -0.0234 -0.1541
17005W        W33479  16.330  18.035  11.918 -0.2422 -0.2680 -0.2573
17006W        W33480  15.683   7.592   2.401 -0.0385 -0.0460  0.0043
17007W        W33481   5.997  16.658  12.798  0.0896 -0.0254  0.1029
17008W        W33482   4.461  13.134  13.069 -0.1385  0.0464  0.2352
17009W        W33483   6.045   8.782  15.120 -0.0241  0.4052 -0.1993
17010W        W33484  15.189   8.410  12.055 -0.0366 -0.1291  0.0419
17011W        W33485   6.024   3.203  12.629 -0.0074  0.0352  0.1048
17012W        W33486   8.635  11.604  13.216 -0.0566  0.2497  0.2208
17013W        W33487   1.761  15.659   5.209  0.1787  0.0925 -0.0078
17014W        W33488   3.714   1.743  15.516 -0.2853  0.1731 -0.2773
17015W        W33489   6.957  13.647   3.157 -0.0306 -0.0993 -0.2469
17016W        W33490   7.279  11.608  13.155  0.1260 -0.1911 -0.2267
17017W        W33491   5.984   4.186   1.578 -0.1559  0.0441 -0.1390
17018W        W33492  11.273   7.463  14.331  0.0696  0.1499  0.0478
17019W        W33493   2.272  11.379   3.528  0.1690  0.0214 -0.1790
17020W        W33494  13.357   8.933  16.060 -0.1269  0.1132 -0.1089
17021W        W33495  11.826  10.596  12.737  0.2303  0.1697 -0.2318
17022W        W33496   8.837   5.764  12.457  0.0594  0.0400 -0.1272
17023W        W33497   6.506   3.128   2.240  0.2220 -0.1161 -0.5021
17024W        W33498   7.194  12.142   3.630  0.1527 -0.0032 -0.0525
17025W        W33499  14.036  16.147   1.748  0.0053 -0.0494 -0.1551
17026W        W33500  16.646  12.888   3.427  0.1213 -0.3787  0.0475
17027W        W33501  13.362   7.881  15.350  0.0120 -0.1502 -0.2802
17028W        W33502   7.398   8.081  11.608 -0.0399 -0.0151  0.0364
17029W        W33503   4.996   4.725   4.721 -0.4030 -0.0146  0.1683
17030W        W33504  16.934   6.085   4.124 -0.0562  0.2052 -0.1741
17031W        W33505   5.406   2.615   2.630 -0.2051  0.0244 -0.0609
17032W        W33506   0.384   8.331  14.526 -0.3718  0.1538 -0.0378
17033W        W33507  11.125  16.868   0.156  0.2371 -0.4327  0.0091
17034W        W33508   1.020   6.374   4.478 -0.1000 -0.0746 -0.1838
17035W        W33509  11.386   8.254  11.579 -0.2614  0.2200 -0.1037
17036W        W33510   9.690  16.805   3.287 -0.0851 -0.0340 -0.1371
17037W        W33511   7.154  14.533  10.531  0.0127 -0.1386 -0.0242
17038W        W33512   1.195  10.116   4.400  0.0932  0.2520 -0.1762
17039W        W33513  10.983   2.160   1.422  0.0195  0.0997 -0.1275
17040W        W33514  17.872   5.216  13.133  0.0301 -0.2878 -0.2056
17041W        W33515   0.888  11.425   1.512 -0.0551 -0.0637 -0.3701
17042W        W33516   8.136   6.184  15.579 -0.1156  0.2416  0.1770
17043W        W33517  12.938  16.076   5.796 -0.1561  0.1647 -0.0989
17044W        W33518   4.136  17.447   1.724 -0.0798  0.0817 -0.1216
17045W        W33519   7.852  17.498  10.540  0.0855  0.1475  0.0182
17046W        W33520  11.081   1.172  12.745  0.0692  0.2257 -0.0210
17047W        W33521  11.410   2.630   0.195  0.2117 -0.1994 -0.2373
17048W        W33522  13.405  16.939  11.531  0.0762  0.1707 -0.2870
17049W        W33523   9.256  17.971   1.021  0.1450  0.2573 -0.1411
17050W        W33524   8.785  12.660  14.787 -0.1308  0.0701 -0.1060
17051W        W33525  14.558  16.506   5.040 -0.1512  0.1908 -0.1406
17052W        W33526   2.633  10.480   1.783  0.1346  0.1003 -0.0372
17053W        W33527  10.557   8.456  14.908  0.4192 -0.1207 -0.0958
17054W        W33528  17.382   1.896   6.042 -0.1000 -0.0957  0.1099
17055W        W33529   4.566  15.716  11.476 -0.2637  0.0615  0.2427
17056W        W33530   5.592   9.871   2.424  0.1107 -0.1249 -0.2187
17057W        W33531  13.381   5.265  14.947 -0.1336 -0.1997 -0.0403
17058W        W33532  17.750  11.287  15.492 -0.1661  0.0600 -0.0144
17059W        W33533   7.292  17.364  12.643  0.0784  0.3353 -0.4225
17060W        W33534   7.596   2.539  12.165  0.1949 -0.0989  0.3161
17061W        W33535   5.387  13.944   5.445  0.0719 -0.1932 -0.0513
17062W        W33536   1.956   1.851   0.252  0.2274 -0.0817 -0.0092
17063W        W33537   4.052   2.111  11.597 -0.0398 -0.0376  0.1155
17064W        W33538  14.481  17.975   4.325 -0.1089  0.1187 -0.0468
17065W        W33539   1.719   6.498  14.103  0.0883  0.0865 -0.0131
17066W        W33540  15.490  16.728   1.289 -0.1172 -0.2765  0.2105
17067W        W33541   1.090   4.387   0.232  0.1855 -0.0233  0.0348
17068W        W33542   4.393  16.576   1.669  0.0508  0.0674 -0.0523
17069W        W33543   3.751  12.736   0.966  0.1531  0.0226 -0.1129
17070W        W33544   1.120  18.016   2.864 -0.3067 -0.2822 -0.2752
17071W        W33545   1.110  16.913   3.611 -0.0505 -0.2094  0.2936
17072W        W33546   0.305   0.500  11.333 -0.0798  0.0803  0.0265
17073W        W33547  10.156  10.614   1.352  0.0929 -0.0316  0.2495
17074W        W33548  15.403  15.653  12.499  0.1971 -0.0161  0.0128
17075W        W33549  14.359  16.037  12.359 -0.0129  0.1030 -0.2317
17076W        W33550  11.055  16.834   4.365  0.0740 -0.0100 -0.1288
17077W        W33551  14.688   9.188  13.057 -0.0888  0.1662 -0.0390
17078W        W33552  16.795   3.712  14.758 -0.0027  0.0676  0.1026
17079W        W33553  17.083  12.259   4.061 -0.1860 -0.1842  0.3086
17080W        W33554   8.826  17.054   1.912  0.3376  0.0101  0.1941
17081W        W33555   1.386  12.183  10.380  0.0518  0.0603 -0.0501
17082W        W33556   7.762   7.799  12.935  0.1118 -0.0779  0.0178
17083W        W33557   7.704  10.945   0.921 -0.0402 -0.3050 -0.2698
17084W        W33558   2.989  12.820  13.021  0.0937 -0.0957  0.0165
17085W        W33559  13.645   5.206  15.638  0.0852  0.1027 -0.0130
17086W        W33560   9.412  12.157   2.926  0.0970 -0.0945 -0.1126
17087W        W33561   9.837   4.842   1.716  0.1382  0.1110  0.2040
17088W        W33562   6.912   2.864  13.438 -0.2755  0.0750 -0.4730
17089W        W33563   3.143   6.831   4.869  0.1978 -0.0457 -0.2018
17090W        W33564   7.082  13.005  14.400 -0.1939 -0.1091  0.0723
17091W        W33565   1.013   7.772  15.373 -0.1583  0.0287 -0.0467
17092W        W33566   8.701   8.223  11.317  0.1381  0.0619  0.1777
17093W        W33567   5.775  11.231   4.508  0.3119 -0.0901 -0.0518
17094W        W33568  15.136  12.178  15.122 -0.1435  0.0842 -0.0781
17095W        W33569   5.324  14.239  15.471  0.0068  0.0559 -0.4464
17096W        W33570   9.600   6.251  16.329 -0.2779 -0.2167  0.1834
17097W        W33571  11.522   8.638  10.930 -0.0308 -0.1354 -0.2459
17098W        W33572   1.941   7.884   0.290  0.1662 -0.0712 -0.0183
17099W        W33573   8.514  16.177  13.372 -0.1405 -0.3308 -0.1210
17100W        W33574  18.090   9.788  13.816 -0.0420  0.0938  0.0779
17101W        W33575   2.042   5.011  10.459 -0.3521 -0.3813  0.1585
17102W        W33576   0.466  11.558   2.218 -0.0977  0.2620 -0.4471
17103W        W33577   0.942   5.477  13.803 -0.1564 -0.1474 -0.0134
17104W        W33578   1.595   6.531   2.751 -0.0080 -0.1707  0.4496
17105W        W33579   9.487   1.161   4.105  0.1493 -0.2976 -0.2624
17106W        W33580   6.958  15.372   3.049  0.2313 -0.1105  0.1545
17107W        W33581   4.340   0.420  11.621 -0.1617 -0.0475  0.2876
17108W        W33582  16.677  10.635  15.189  0.0494  0.4831  0.0042
17109W        W33583  16.842   8.653   3.904  0.0901 -0.0695  0.0577
17110W        W33584  11.281  12.511  14.665  0.0021 -0.1336 -0.0743
17111W        W33585   7.357   5.856   3.273 -0.0319  0.0624 -0.0186
17112W        W33586  12.994   3.146   1.918  0.0547 -0.0418  0.2309
17113W        W33587  16.350  13.313   3.711  0.0337 -0.4639 -0.0193
17114W        W33588  17.482  10.000   3.503 -0.0743  0.1092  0.0859
17115W        W33589   1.145   7.299  15.246  0.1015  0.1020 -0.1167
17116W        W33590  17.061   5.526  12.557  0.2742  0.2042  0.0452
17117W        W33591  11.646  14.707   1.469 -0.0718  0.0029 -0.4234
17118W        W33592   9.867   9.669  12.543  0.0568 -0.0647  0.3050
17119W        W33593   0.725  13.309  11.488  0.1971  0.2253  0.1129
17120W        W33594  16.168   7.066   2.968 -0.3337  0.1504  0.0729
17121W        W33595  10.718   1.076   3.402 -0.0497 -0.2254  0.3574
17122W        W33596   0.658  10.266  11.104  0.1259 -0.0354  0.2106
17123W        W33597   8.460  14.917  13.130 -0.2357  0.1727 -0.1021
17124W        W33598  12.190  14.866   3.995  0.1890 -0.2800  0.1869
17125W        W33599   5.510  13.807   2.015  0.0331  0.0935 -0.0071
17126W        W33600   3.371   8.244   0.955  0.1474 -0.0353  0.1050
17127W        W33601  15.705   7.940  14.325 -0.1266 -0.0629  0.0994
17128W        W33602  10.897  18.012  13.865  0.0653  0.6814  0.0832
17129W        W33603   4.834   5.781   0.433  0.2222  0.0768 -0.0242
17130W        W33604   9.979  10.774  10.770  0.0382 -0.0062  0.0607
17131W        W33605   5.110   7.061   3.358 -0.0548 -0.2451 -0.1970
17132W        W33606   7.756   4.535   1.148 -0.0952  0.1043 -0.1529
17133W        W33607  17.293   5.822   5.440  0.2746  0.1423  0.0748
17134W        W33608   0.604  10.834   3.430 -0.0883 -0.1784  0.1046
17135W        W33609  16.995  14.103  13.791  0.0569  0.0360  0.1075
17136W        W33610   6.856  10.298  13.168 -0.0846 -0.1066  0.0699
17137W        W33611  15.617  10.877   4.061 -0.2348  0.0888  0.1038
17138W        W33612  10.049  16.706   2.905 -0.0610 -0.0826  0.2384
17139W        W33613  16.263  14.211   4.556 -0.1013  0.0809  0.3288
17140W        W33614  12.828  15.826  12.563  0.0051  0.0288  0.1198
17141W        W33615  11.161  12.369   5.007 -0.1355  0.2631  0.2582
17142W        W33616   4.814   5.132  15.608  0.1664 -0.0738 -0.3820
17143W        W33617   3.811  10.060  13.391  0.2413  0.1690 -0.2003
17144W        W33618   8.403   7.390   3.032  0.2893 -0.0685 -0.2014
17145W        W33619  13.388   8.404  16.247 -0.1507  0.0158  0.1815
17146W        W33620   6.439  14.996  16.141  0.0598 -0.2208  0.1049
17147W        W33621  10.164  11.418   0.033 -0.1195  0.2983 -0.3370
17148W        W33622   7.551   2.004   1.730  0.3037  0.2328 -0.2311
17149W        W33623  15.253   5.374  14.395  0.0842 -0.2242 -0.0295
17150W        W33624  11.308   5.596   5.993 -0.3315  0.0222 -0.0244
17151W        W33625   9.212   2.167  15.668 -0.2008 -0.0562 -0.0296
17152W        W33626   0.803   2.824   2.519  0.2764  0.0181 -0.1599
17153W        W33627  11.100  18.110  12.425  0.3551  0.2554 -0.0576
17154W        W33628  14.162   7.877   1.747 -0.1128  0.2225  0.1556
17155W        W33629  14.639  10.071   5.381 -0.0757 -0.3170 -0.1769
17156W        W33630  14.349  10.099  13.452 -0.2318  0.1526 -0.1373
17157W        W33631   6.650  11.871   1.575  0.1920 -0.2020 -0.0048
17158W        W33632  16.216   7.470   3.319 -0.0549 -0.1263  0.1460
17159W        W33633   3.443  17.135   3.541  0.2652  0.1222 -0.0221
17160W        W33634  12.837   6.496  13.167 -0.0170 -0.2738  0.0915
17161W        W33635  17.193   9.196  15.133 -0.1245  0.1590 -0.1118
17162W        W33636   9.192  15.363  13.337  0.0476  0.1279 -0.1728
17163W        W33637   8.844  17.535   4.188  0.2463  0.1563 -0.0976
17164W        W33638   5.680   1.122   0.237 -0.2456  0.3438  0.1349
17165W        W33639   9.515   5.707   3.270 -0.0171 -0.1643  0.1464
17166W        W33640   7.008  11.821  12.756 -0.2448 -0.0007  0.0611
17167W        W33641   4.847   2.866  13.351 -0.0271 -0.0440 -0.1293
17168W        W33642   2.332  12.294   4.703 -0.0632  0.2612 -0.1001
17169W        W33643  10.250   9.332  15.300 -0.1686 -0.3355 -0.0565
17170W        W33644  16.380   9.790   4.452  0.0001  0.2319  0.0297
17171W        W33645  15.676  11.816  14.474  0.1890  0.0982 -0.0956
17172W        W33646  12.520  11.667   5.664 -0.0722  0.1058  0.0642
17173W        W33647  10.635  11.480  15.623  0.1092 -0.3281 -0.1500
17174W        W33648  15.443  13.446   3.956 -0.0476  0.3821 -0.0858
17175W        W33649   2.870   1.883   2.924  0.1488  0.0096  0.0060
17176W        W33650  16.454   5.920   2.072 -0.1514  0.2343 -0.3612
17177W        W33651  13.574   1.234   4.671 -0.2307 -0.3068  0.2992
17178W        W33652   3.491   5.007  14.191 -0.0253  0.4464  0.0252
17179W        W33653   2.276  11.284  16.168  0.2093 -0.1316  0.4665
17180W        W33654  10.931   6.604  12.082  0.3834 -0.2863  0.0010
17181W        W33655  10.699   5.684   2.328 -0.1671  0.0814  0.0647
17182W        W33656  15.092   2.931  15.915 -0.0614 -0.0051 -0.2432
17183W        W33657  16.410   7.940  12.220  0.3762 -0.1436  0.2082
17184W        W33658  16.507   6.259  12.314 -0.1920 -0.5139 -0.2858
17185W        W33659   9.185   8.089   4.209 -0.0791  0.1218 -0.1664
17186W        W33660  15.265  14.704  12.148 -0.0032 -0.0960 -0.1790
17187W        W33661  14.199   3.185   3.875 -0.0757  0.1003 -0.0739
17188W        W33662  17.278   5.665   4.100 -0.1094  0.2207 -0.3921
17189W        W33663  13.131   4.317  15.087 -0.1003  0.2123 -0.0577
17190W        W33664   7.867   2.693   0.709  0.1891 -0.0814  0.0689
17191W        W33665   1.342   2.097   4.796 -0.0219 -0.2053  0.3770
17192W        W33666   6.301   5.607   1.904 -0.0213 -0.0109  0.0024
17193W        W33667  15.525   8.908  13.619 -0.1360 -0.2035  0.1702
17194W        W33668  14.964  16.165   5.742 -0.2797  0.0688  0.0291
17195W        W33669   5.188  14.540   0.052 -0.0019  0.0461  0.3934
17196W        W33670   7.043  11.376   3.024  0.1367  0.2268 -0.1998
17197W        W33671   0.475  16.960  11.357  0.2336  0.0228  0.2689
17198W        W33672  11.110  18.102  15.409  0.0104  0.2737 -0.2807
17199W        W33673  14.326   4.672   1.724  0.1793 -0.1953 -0.0217
17200W        W33674  16.691  15.725   0.493  0.1135 -0.0125  0.1066
17201W        W33675  17.834  13.792  11.863  0.1118  0.0577 -0.0015
17202W        W33676  16.205   0.709  11.898 -0.0756  0.0415  0.0591
17203W        W33677  14.085   7.233   3.433 -0.1038  0.2397 -0.0848
17204W        W33678   5.577   3.550   3.752  0.2029 -0.0976 -0.1054
17205W        W33679  17.742   3.812  12.372  0.0206  0.1546 -0.0817
17206W        W33680   7.624  12.052   4.941 -0.1121 -0.2098 -0.1183
17207W        W33681  10.447   3.695  15.257 -0.2283 -0.1960 -0.0744
17208W        W33682   4.114  16.008  15.051  0.2511 -0.0694  0.3217
17209W        W33683   9.715   0.276   5.720 -0.1948 -0.1769 -0.1380
17210W        W33684  14.888   1.099   1.449  0.0767 -0.2123 -0.2067
17211W        W33685   6.298  14.790  15.723  0.1388 -0.1961 -0.3242
17212W        W33686  16.442  11.074   2.375  0.0947 -0.0956  0.1517
17213W        W33687  15.762   5.273  12.221  0.0451 -0.1856 -0.0148
17214W        W33688   5.587  10.378   1.561  0.2652  0.1312 -0.0500
17215W        W33689   5.899   5.629   3.810 -0.0933  0.0069 -0.0723
17216W        W33690   3.609  10.894   4.428 -0.0757 -0.2535 -0.1266
17217W        W33691   4.980  14.033   2.062  0.2802 -0.2280 -0.2513
17218W        W33692  15.029   8.409  16.079 -0.1566  0.1980  0.0939
17219W        W33693   4.532  14.621  14.231  0.0511 -0.2022 -0.1964
17220W        W33694  17.127  11.332   3.017  0.1182  0.1671 -0.1936
17221W        W33695   0.706   5.889   0.338 -0.1568  0.5200 -0.3619
17222W        W33696  11.227  13.003  16.094  0.1920 -0.1791  0.1396
17223W        W33697   6.424   4.088   3.527 -0.1458  0.0998  0.1681
17224W        W33698  13.166   8.858   5.189  0.0863 -0.1042 -0.3221
17225W        W33699   2.532  13.082  13.023  0.0523 -0.1258 -0.2870
17226W        W33700   1.386   2.724  11.031 -0.0119  0.2477 -0.0687
17227W        W33701   5.699   7.441  15.846 -0.2121 -0.0531  0.0162
17228W        W33702   9.304  11.014  14.348 -0.0289  0.0998 -0.2838
17229W        W33703  13.790   8.793   0.990 -0.0097 -0.0252 -0.0471
17230W        W33704  12.627  17.406   2.649 -0.1234 -0.2133  0.3399
17231W        W33705   9.427  15.030   1.408  0.0116  0.1094  0.0728
17232W        W33706   6.378   2.607  13.255  0.1199 -0.1147 -0.2042
17233W        W33707   8.429  15.754  12.006  0.0512 -0.2197 -0.3587
17234W        W33708   9.155   8.528   0.198  0.2832 -0.0387 -0.1133
17235W        W33709  13.514   4.122  14.732  0.1910 -0.1407  0.0954
17236W        W33710  16.140  11.806   0.751  0.0333 -0.3312  0.0738
17237W        W33711   0.331   1.850   2.004 -0.0100 -0.0824  0.0024
17238W        W33712   6.901   0.086   1.194  0.1322  0.1730 -0.1010
17239W        W33713  15.236   0.572   2.740  0.2336 -0.0335 -0.2891
17240W        W33714  12.035   1.321   2.413  0.0766  0.1476  0.0488
17241W        W33715   5.325  14.020   3.191  0.0732  0.0681  0.3176
17242W        W33716  10.819   7.947   2.701 -0.2679  0.0754  0.3459
17243W        W33717  12.845  11.604  12.022  0.1539  0.2665 -0.0587
17244W        W33718  13.570   0.151  13.560 -0.3459 -0.1934 -0.2050
17245W        W33719   1.623   1.979   5.285 -0.0748 -0.0902 -0.0866
17246W        W33720  11.907  17.371   3.198  0.2424  0.0505  0.0688
17247W        W33721  14.041  13.719  14.155 -0.1259 -0.0162 -0.5282
17248W        W33722  14.858  16.736  13.132 -0.1632  0.2139 -0.1195
17249W        W33723  15.713   7.679   0.150  0.2450 -0.0189  0.0953
17250W        W33724  10.112  15.474  13.936  0.3582  0.0751  0.1617
17251W        W33725  15.608   0.112   3.686 -0.0152  0.0506 -0.0516
17252W        W33726   4.478   2.829   1.400 -0.0625  0.1804 -0.0077
17253W        W33727  14.742  14.529  14.809  0.1995 -0.3250 -0.0155
17254W        W33728   8.958   1.482  14.520 -0.0238  0.0451 -0.2159
17255W        W33729  16.963   9.877  13.075 -0.0886  0.0748  0.2137
17256W        W33730   6.420   7.118  15.243  0.2791  0.0319 -0.0926
17257W        W33731  13.640  15.516   3.453 -0.0191  0.1091 -0.2613
17258W        W33732  10.090  17.669  12.863 -0.0408 -0.2130  0.1526
17259W        W33733   6.731   7.922  14.370  0.2425 -0.0787  0.0708
17260W        W33734   2.375   8.217   3.894 -0.1225 -0.0839  0.2760
17261W        W33735   2.476   7.236   5.130  0.3547  0.2729  0.1961
17262W        W33736   2.518   1.585   5.149 -0.1610  0.2440 -0.2035
17263W        W33737   4.180   6.123   1.616 -0.1725 -0.1631 -0.0343
17264W        W33738   3.850   5.541   3.340 -0.2807  0.1381 -0.0371
17265W        W33739   4.314   7.171   0.157 -0.3237 -0.2444 -0.2781
17266W        W33740  16.883   7.887   2.780  0.0268 -0.1672 -0.1681
17267W        W33741  11.858   2.613   0.485 -0.0855 -0.0409  0.1190
17268W        W33742  15.521   1.033  11.408  0.1178  0.0689 -0.1453
17269W        W33743  15.381   8.602   2.098  0.0168  0.2518  0.3694
17270W        W33744   5.999  16.834  16.328  0.0993 -0.1193  0.0896
17271W        W33745  17.050  17.692   3.196  0.0842  0.1724 -0.0046
17272W        W33746   7.319   3.028  13.190 -0.2154  0.0748 -0.1739
17273W        W33747   8.160  16.509   1.550  0.0438 -0.2270 -0.0068
17274W        W33748  17.609   6.581   2.846  0.1673 -0.0205 -0.2589
17275W        W33749  12.400   4.908  14.247 -0.0199  0.0357 -0.1772
17276W        W33750   1.527   9.170   3.967 -0.0129 -0.2515  0.0975
17277W        W33751  15.965   5.998  15.723 -0.1240  0.1103 -0.0232
17278W        W33752  17.113   3.950   0.604  0.1011  0.0328 -0.2483
17279W        W33753   9.551  13.461  11.574 -0.2018  0.0675  0.1510
17280W        W33754  14.953  10.447   1.662 -0.0741  0.2291  0.0349
17281W        W33755  17.080  16.634   4.285 -0.1432  0.0909  0.0387
17282W        W33756  11.215   8.714  12.381  0.0689  0.2932  0.0760
17283W        W33757   9.386   6.177   3.477 -0.0227  0.1244  0.1621
17284W        W33758  16.020   2.086   4.642 -0.0614 -0.1769 -0.0745
17285W        W33759  14.758   9.849  14.941 -0.2551  0.2135 -0.3217
17286W        W33760  16.711  13.706   2.838  0.1127 -0.0869  0.0855
17287W        W33761  17.754  12.574   2.002  0.0452  0.0717  0.1027
17288W        W33762   6.618  10.629  12.337  0.0844 -0.0354 -0.0037
17289W        W33763  10.567   5.386   1.454  0.0718 -0.0575  0.2189
17290W        W33764  11.046  12.818   4.600  0.0112  0.2877  0.3581
17291W        W33765   7.021   2.607  14.356 -0.0075  0.0471 -0.1644
17292W        W33766  11.076   4.671  16.059 -0.3841 -0.3055 -0.2219
17293W        W33767  12.595  11.502   1.088 -0.1432 -0.0798  0.1003
17294W        W33768   1.062   6.724  14.518  0.2639  0.1391  0.1806
17295W        W33769  16.243   3.703   0.238  0.0822  0.1010  0.1460
17296W        W33770  17.615  14.246   4.244 -0.0417 -0.2922  0.1959
17297W        W33771  16.969   6.304  14.511  0.1496  0.0228 -0.1195
17298W        W33772  10.068   0.052   2.100  0.4042 -0.0685 -0.3760
17299W        W33773  10.438  11.139  11.576 -0.1178  0.2665 -0.1698
17300W        W33774   3.820  14.261  15.401 -0.0037 -0.0712 -0.0583
17301W        W33775  11.702   9.539   3.547 -0.1791 -0.0316 -0.1488
17302W        W33776   1.879  16.485  11.167 -0.0479  0.2624 -0.0825
17303W        W33777   4.007   6.158   0.743  0.3488 -0.0811 -0.2889
17304W        W33778   3.481  15.694  13.626  0.0256 -0.1266 -0.0471
17305W        W33779  10.669   0.526   3.638  0.1032 -0.0134  0.2493
17306W        W33780   6.366   5.890  14.296  0.0832 -0.2026 -0.0856
17307W        W33781   6.789  17.083   4.093 -0.0176 -0.0744 -0.1283
17308W        W33782   2.251  14.456  14.475  0.0729 -0.2422  0.1750
17309W        W33783   9.892  13.443  12.577  0.1301  0.2670 -0.1020
17310W        W33784  16.887  17.989  15.215 -0.0141 -0.0055 -0.2291
17311W        W33785   7.811   4.881   1.521 -0.1736  0.0248  0.2790
17312W        W33786   3.784   5.140  15.147 -0.0567 -0.1367  0.1332
17313W        W33787  17.029  13.833  14.381 -0.0877 -0.0654 -0.0598
17314W        W33788  16.850  11.698   1.938 -0.1807 -0.0486  0.0652
17315W        W33789   9.567   9.258  13.453  0.0194 -0.0687  0.0583
17316W        W33790  17.159  16.762  13.445  0.2902  0.0731 -0.1020
17317W        W33791  15.202   7.111  14.084 -0.3164 -0.0722 -0.1773
17318W        W33792   0.251   0.535   1.825  0.1237 -0.0287  0.0173
17319W        W33793   3.412   3.768   1.212  0.0657  0.1345  0.2271
17320W        W33794  12.927   7.452   5.525 -0.1832 -0.0052 -0.1203
17321W        W33795   4.186   9.113  13.529 -0.0938 -0.1356 -0.3936
17322W        W33796   4.472  16.556   0.025  0.2652  0.2452 -0.1431
17323W        W33797   1.269  11.958  12.338  0.2143  0.2771 -0.1714
17324W        W33798   7.845  14.600   2.141 -0.0029 -0.2367 -0.0807
17325W        W33799   7.959   1.128   0.274  0.1047 -0.0643 -0.1183
17326W        W33800   3.387  11.976   4.187 -0.1099  0.3775  0.1232
17327W        W33801   3.326   4.679  15.091 -0.0224  0.4850 -0.0267
17328W        W33802  11.598   6.110  14.570  0.3339  0.1707 -0.2990
17329W        W33803  11.869   0.565  13.495  0.0617 -0.0559 -0.2237
17330W        W33804  13.750   3.680   1.712  0.3417  0.0485  0.0976
17331W        W33805  13.153  17.955  11.746 -0.1485  0.1954  0.1209
17332W        W33806   8.944  10.368   1.583  0.0836 -0.2052 -0.0739
17333W        W33807   7.175  11.574   4.318  0.2274 -0.1487 -0.1447
17334W        W33808   1.394  10.462  14.722 -0.0729 -0.2287  0.4175
17335W        W33809  13.083  14.957  13.794 -0.1240  0.0315 -0.1138
17336W        W33810  16.153  13.635   1.855 -0.3973 -0.0796  0.0447
17337W        W33811  17.518   3.749  14.539 -0.2089 -0.1419 -0.0860
17338W        W33812   9.194   1.666   3.279  0.0697  0.2027  0.0927
17339W        W33813   6.166   9.357  13.011 -0.3329 -0.2794 -0.0012
17340W        W33814   6.679   8.878   1.848  0.2947  0.2575  0.0468
17341W        W33815  17.844   5.239  11.488 -0.1829  0.1995 -0.0833
17342W        W33816   7.585   1.570  13.823  0.0300 -0.0244  0.1289
17343W        W33817  13.069   5.230  13.904  0.3894  0.1194 -0.0068
17344W        W33818   8.076   3.305   1.902  0.1322  0.3504 -0.2165
17345W        W33819  13.014   0.910  11.627 -0.0106 -0.1859 -0.0156
17346W        W33820  12.897  15.131  12.039  0.0441  0.0536  0.2370
17347W        W33821   5.574   2.449  14.440  0.1650  0.2081 -0.2337
17348W        W33822  17.384   7.323   1.639 -0.1110 -0.0763 -0.2085
17349W        W33823  14.106  15.035   4.635  0.1412  0.3275  0.0169
17350W        W33824   4.869   9.354  11.644  0.2194 -0.1115 -0.0849
17351W        W33825   1.799  15.470   0.880  0.1265 -0.1494  0.1399
17352W        W33826   1.665  17.994  15.742  0.1603  0.0113 -0.1549
17353W        W33827   4.255  12.292  15.597  0.2765  0.1573 -0.0468
17354W        W33828  12.399   7.414  13.461 -0.3876  0.1939 -0.2497
17355W        W33829  13.706   4.424   5.293  0.2721  0.1641  0.1163
17356W        W33830  16.078  12.996   4.013  0.1111 -0.1842  0.0034
17357W        W33831  13.344   6.632   2.144  0.1327  0.1122  0.0834
17358W        W33832   6.369   0.668  12.219  0.1381  0.0075 -0.1522
17359W        W33833  13.605   4.127   3.270 -0.1915 -0.1367 -0.0137
17360W        W33834   6.121   6.185  15.682 -0.2367  0.0157  0.0378
17361W        W33835   5.699   3.492  13.811  0.1573 -0.0867 -0.0476
17362W        W33836  11.820  11.331  14.252 -0.2795  0.1505  0.0692
17363W        W33837   1.819  11.909  11.461 -0.2280  0.0831 -0.0173
17364W        W33838   7.019  16.939  15.321  0.0358  0.0348  0.0904
17365W        W33839  11.828   4.860   3.455 -0.0408  0.0403  0.2836
17366W        W33840   6.099   5.632  12.950  0.0314 -0.3320  0.0134
17367W        W33841   6.865   9.147  14.036 -0.1291 -0.0013  0.3615
17368W        W33842   6.529  16.561   1.760 -0.1729  0.2469 -0.0725
17369W        W33843  16.738  17.319   5.154 -0.0999  0.1313 -0.0290
17370W        W33844   1.510   5.937  15.657  0.1316  0.0221  0.0521
17371W        W33845   7.477  14.801   4.165 -0.3658 -0.1790  0.2369
17372W        W33846  10.906  12.361  12.638 -0.0435  0.1555  0.2071
17373W        W33847  12.324  15.022  15.951 -0.0383 -0.0439 -0.2858
17374W        W33848   2.364   3.941   0.727  0.0511  0.0554 -0.3662
17375W        W33849   3.735   5.491  14.755 -0.2398 -0.2231 -0.0324
17376W        W33850   7.474   3.695  14.852  0.1135 -0.0093  0.0158
17377W        W33851   6.326   7.889  11.414 -0.1311  0.1188 -0.2413
17378W        W33852   2.129   5.915  11.264 -0.2431 -0.2515  0.1847
17379W        W33853   2.116  15.959   6.101  0.0752 -0.1460  0.3499
17380W        W33854   8.994  10.175  14.352 -0.3850  0.0170  0.2536
17381W        W33855   1.812  12.121   2.217 -0.0144  0.2863  0.3929
17382W        W33856   4.942   0.365  11.952 -0.0903 -0.0638  0.0933
17383W        W33857   0.802   5.845   3.800  0.0764  0.2256 -0.0551
17384W        W33858  14.004   5.926  13.194 -0.2277  0.2421  0.1887
17385W        W33859   0.835  13.209  15.376  0.0362 -0.0792 -0.2268
17386W        W33860   3.257  13.903   2.988  0.1692 -0.1048 -0.0263
17387W        W33861   8.986  11.732   0.620 -0.1184  0.0101  0.0151
17388W        W33862   9.973  15.514   2.072 -0.0569  0.0919  0.1294
17389W        W33863  11.892   0.226  16.259  0.3248  0.0556  0.0371
17390W        W33864   6.329   2.620   1.408  0.2166 -0.0100 -0.0184
17391W        W33865   6.603  15.494  12.409 -0.2037 -0.1264 -0.0148
17392W        W33866  10.670  18.137  12.161  0.0697 -0.2882  0.0510
17393W        W33867   9.485   7.791   3.983 -0.0524 -0.0530 -0.0928
17394W        W33868  14.658  17.219  12.907 -0.1304 -0.0643 -0.1136
17395W        W33869   1.880  11.496   3.803  0.1746  0.1083 -0.0408
17396W        W33870   6.333   0.140  13.380 -0.2013 -0.2492  0.2396
17397W        W33871  16.547   5.752  14.681 -0.1662 -0.3222 -0.2652
17398W        W33872  17.466   8.733   1.198 -0.3768  0.1945 -0.0118
17399W        W33873   5.420   3.820   3.192  0.0217 -0.1252  0.0681
17400W        W33874  11.452   2.026   1.019  0.2094  0.2748  0.0264
17401W        W33875  17.509   6.468  12.189  0.3382 -0.2065  0.0016
17402W        W33876   3.964   6.470  15.820  0.2972 -0.1253  0.1032
17403W        W33877  13.529  15.635  16.197 -0.2356  0.0550 -0.0565
17404W        W33878  16.645  17.837   4.388 -0.3055  0.1729 -0.2383
17405W        W33879   8.917  13.984  14.620 -0.0502 -0.0968 -0.1803
17406W        W33880  17.816  17.447   4.502  0.2985 -0.0320 -0.2358
17407W        W33881   1.989  11.067   0.203 -0.0114  0.2627  0.0134
17408W        W33882   4.622   5.023  12.979 -0.1637 -0.1529 -0.1905
17409W        W33883   5.296  16.864   5.726  0.2723  0.1075 -0.0065
17410W        W33884  12.155   9.830  14.271 -0.2905 -0.1133 -0.3438
17411W        W33885  11.832   8.176   3.659  0.2820 -0.1829  0.0653
17412W        W33886   9.209   3.673   1.161  0.0643  0.2054 -0.3499
17413W        W33887  10.273   5.516  14.410  0.3278  0.2458 -0.0617
17414W        W33888  12.854   1.565  12.659 -0.1838  0.1592 -0.1748
17415W        W33889   0.186   2.292  13.532 -0.2087  0.3618  0.2595
17416W        W33890   6.511   3.368  12.698 -0.0059  0.0574  0.0896
17417W        W33891  12.167  10.813   5.007  0.1590 -0.0658 -0.0126
17418W        W33892   4.655   2.149  13.070 -0.3503 -0.0973 -0.2665
17419W        W33893  16.884  17.610  14.864 -0.2232  0.2649  0.0181
17420W        W33894   2.290  10.549  12.981  0.3846  0.2690 -0.1780
17421W        W33895   3.379  17.959   2.649 -0.0151  0.1795 -0.2006
17422W        W33896  10.622  18.101  13.208 -0.4757 -0.2972 -0.1228
17423W        W33897  12.850  17.006   1.200 -0.4906  0.1106 -0.2242
17424W        W33898   8.284   8.340  12.480 -0.0905 -0.0428 -0.0931
17425W        W33899   4.746  14.590  14.673  0.2059 -0.1408 -0.1435
17426W        W33900  14.782   7.276   4.272 -0.2083  0.0655  0.1210
17427W        W33901  17.019  14.726  11.726 -0.2930  0.1128  0.3471
17428W        W33902  13.635  10.350  14.579  0.2898 -0.2105  0.0292
17429W        W33903   6.727   0.327   5.733 -0.1297 -0.0788 -0.4160
17430W        W33904   2.300   4.879   0.378 -0.1955 -0.0844  0.0860
17431W        W33905   4.727   0.690   0.004 -0.0093 -0.0285  0.1088
17432W        W33906   3.511  15.334   5.868 -0.0255  0.3478 -0.0891
17433W        W33907  16.983  14.171   3.087 -0.0480 -0.0001 -0.4465
17434W        W33908  15.374  12.464   4.255  0.0027  0.1788 -0.1459
17435W        W33909  15.953  16.827  15.819  0.0204 -0.0986  0.1400
17436W        W33910   7.722   0.326  13.740  0.0385 -0.1157  0.3948
17437W        W33911  11.720  12.300  14.363 -0.0817  0.1032 -0.3715
17438W        W33912  12.710  11.721  12.583  0.0299 -0.1972 -0.6596
17439W        W33913   4.821  16.667  15.522 -0.2294  0.2168 -0.2406
17440W        W33914  13.350   2.638  14.095 -0.1015 -0.0196 -0.0925
17441W        W33915   1.691  12.972   2.866  0.1936 -0.2824  0.3847
17442W        W33916   4.074   7.890  10.929 -0.0504  0.2714 -0.0455
17443W        W33917  10.009   2.233   5.782  0.0747 -0.2067  0.1590
17444W        W33918   3.810   5.908  15.529  0.0403 -0.2131  0.2761
17445W        W33919   5.937  11.919  10.874  0.0534  0.0094 -0.1097
17446W        W33920  17.396   6.106  14.327 -0.0051  0.0525 -0.0649
17447W        W33921  15.588  17.639   1.577 -0.2700 -0.0537 -0.3051
17448W        W33922   8.813  14.559  11.746  0.2358  0.3485 -0.0353
17449W        W33923   3.461  16.332  14.995  0.0348  0.2167  0.1424
17450W        W33924   1.668  16.844  11.555 -0.0910  0.2313  0.0757
17451W        W33925  15.195  13.768   2.269 -0.1280 -0.0709  0.0342
17452W        W33926   9.698  10.919  12.200  0.0939  0.1654  0.1998
17453W        W33927   9.914   6.929  15.347 -0.0095 -0.2562  0.0933
17454W        W33928  17.644   2.802  15.047 -0.1882  0.1937 -0.0315
17455W        W33929   8.786  17.287   1.187 -0.0362  0.0818 -0.0024
17456W        W33930  14.033  16.145  11.531  0.0223  0.0393  0.3205
17457W        W33931   1.129   6.001  11.948 -0.0713 -0.1619  0.2174
17458W        W33932   6.725  13.272   0.635  0.0385 -0.1551 -0.0335
17459W        W33933  13.619   0.501   0.588 -0.1699  0.2232  0.0765
17460W        W33934  14.719  17.281  12.037 -0.2191 -0.0775 -0.2272
17461W        W33935  12.668  12.570  12.852 -0.0725  0.2014  0.0588
17462W        W33936  12.155  14.661  12.218 -0.0778 -0.0223  0.1944
17463W        W33937  12.776  15.710  14.731  0.0220 -0.1585  0.0265
17464W        W33938  14.044  12.341  15.854 -0.0546 -0.0001  0.0841
17465W        W33939  13.678   7.201  14.174 -0.0453  0.0000  0.4709
17466W        W33940   5.151  12.798  11.761 -0.0266 -0.2479  0.0166
17467W        W33941  11.844   5.070   5.741  0.4669 -0.2107 -0.2307
17468W        W33942   9.328  16.122   5.936  0.2345 -0.1842 -0.2402
17469W        W33943   5.448   7.260  14.921 -0.0632 -0.0672  0.0614
17470W        W33944   6.650   2.209   4.961 -0.2268  0.1455  0.1097
17471W        W33945  14.730   9.173  14.053  0.0646  0.1087  0.2385
17472W        W33946  12.660   6.384  15.144 -0.2109  0.1891  0.0194
17473W        W33947   9.271   6.716  13.088  0.2545 -0.0465  0.1250
17474W        W33948   8.587   6.935  13.009 -0.0544  0.2968 -0.2841
17475W        W33949  17.779  12.474  14.131  0.2478 -0.0836 -0.1258
17476W        W33950  13.537   4.035  15.317  0.0266 -0.0458  0.0047
17477W        W33951   1.800  10.032   3.826  0.2793 -0.0236  0.0833
17478W        W33952   0.452  15.818  12.234 -0.1755 -0.1375 -0.1167
17479W        W33953   9.384  18.101  11.597  0.1158 -0.1417  0.0330
17480W        W33954  12.814  13.968  14.165 -0.3600  0.0270  0.0919
17481W        W33955   9.057  13.542  12.230  0.1879 -0.0041  0.2556
17482W        W33956   3.216  10.918  14.252  0.0068 -0.1203  0.0786
17483W        W33957   4.555  16.170  13.898 -0.1883 -0.2397  0.0829
17484W        W33958  10.791   4.499  15.062  0.0363 -0.0434  0.2184
17485W        W33959   5.350   8.487   3.288 -0.0882  0.1330 -0.0744
17486W        W33960   2.020  11.356   2.891 -0.0897  0.4031 -0.2497
17487W        W33961   9.243   9.616  11.796 -0.0564 -0.0389  0.0543
17488W        W33962   4.491   9.114   5.003  0.2987 -0.2988  0.1528
17489W        W33963  10.018   7.123   4.994  0.1822 -0.1043  0.0221
17490W        W33964   3.891   5.646   2.067 -0.4689  0.2961  0.0073
17491W        W33965  16.968   4.435   4.300  0.0165 -0.0935  0.2593
17492W        W33966  12.938   1.031   0.702 -0.0260 -0.1819  0.1182
17493W        W33967  13.183   4.314  15.961 -0.0551 -0.2343 -0.0595
17494W        W33968  16.961   1.832  14.201 -0.1641  0.0255  0.2275
17495W        W33969   7.334  17.123  11.363  0.2249  0.1654  0.1046
17496W        W33970   2.876   0.572  13.774  0.0182 -0.0262  0.0337
17497W        W33971   7.483  16.403   3.612 -0.0905 -0.3395 -0.0917
17498W        W33972   8.458   6.643  15.760 -0.0396 -0.1748  0.2666
17499W        W33973  14.497  17.120   3.787 -0.1763 -0.1415 -0.0276
17500W        W33974  13.265   9.946  14.345 -0.0811 -0.0694  0.1808
17501W        W33975   0.876  15.345   2.412 -0.3311 -0.3414 -0.1238
17502W        W33976  17.537   9.904   6.107 -0.3187  0.0335 -0.0793
17503W        W33977   2.521  10.920   1.492  0.2271 -0.1897 -0.2684
17504W        W33978  17.108  14.506   4.333  0.0993  0.0229  0.1996
17505W        W33979   7.369   3.048  15.653 -0.2193 -0.3128 -0.3531
17506W        W33980  10.709  17.068   3.507 -0.2216 -0.0437 -0.1805
17507W        W33981  14.799   7.640  15.512 -0.3508 -0.0113  0.0265
17508W        W33982  17.279   3.595   4.757 -0.0269  0.2311  0.0850
17509W        W33983   3.754   3.572   5.538 -0.1029  0.2547  0.0000
17510W        W33984  17.921   0.036   0.262 -0.0980  0.1522  0.1956
17511W        W33985  12.094   4.100  12.305 -0.2547  0.0625 -0.1094
17512W        W33986   3.880   3.140  15.121 -0.1936 -0.0333  0.3155
17513W        W33987   7.522  17.526  11.682  0.2010  0.1313 -0.2098
17514W        W33988  13.424  15.831   1.477  0.1624 -0.0185 -0.2336
17515W        W33989  10.854  16.568   3.567 -0.2965 -0.1221  0.0248
17516W        W33990  16.799   1.181  12.540 -0.1590  0.1927  0.2297
17517W        W33991   1.266   9.346   4.935  0.2778 -0.0082  0.0543
17518W        W33992   3.465  17.011  12.134  0.1254 -0.0861 -0.0225
17519W        W33993  18.145   8.014  15.423 -0.0321  0.2744  0.0169
17520W        W33994   8.295   8.936  13.621  0.1076  0.0387  0.1816
17521W        W33995   1.795  17.572  14.736  0.2524  0.2240 -0.2158
17522W        W33996   1.237  15.957  11.543 -0.2176  0.2139 -0.0903
17523W        W33997   4.699   0.494   5.240  0.0490  0.0045 -0.1830
17524W        W33998  14.724  11.685  12.760 -0.1809 -0.2476 -0.0366
17525W        W33999  18.104   1.895  12.162 -0.1661 -0.0288  0.1747
17526W        W34000  16.157   6.391   6.113  0.1825  0.0131  0.0824
17527W        W34001   3.140  15.385  15.875  0.0392 -0.1776  0.1399
17528W        W34002  11.540  11.020  13.111  0.2226  0.3615 -0.0639
17529W        W34003   6.348  11.935   1.205  0.1838  0.0353  0.4023
17530W        W34004  15.957   9.088   4.964 -0.3077 -0.1374 -0.2541
17531W        W34005   5.991   8.983  12.067  0.1098  0.1171  0.1860
17532W        W34006   1.910  14.459  13.611 -0.0931  0.1890 -0.4516
17533W        W34007  11.673  17.429   4.168  0.0525  0.0913 -0.6289
17534W        W34008  15.768   2.221  12.600  0.1406 -0.2982 -0.0330
17535W        W34009   4.269   5.443   5.317 -0.0062 -0.2376 -0.0703
17536W        W34010  13.399   4.337   1.842 -0.1127  0.0513  0.1985
17537W        W34011  12.165  15.717  14.314 -0.2480  0.1921 -0.2768
17538W        W34012   6.406   4.938  15.565 -0.1293  0.1267  0.0583
17539W        W34013  18.011  15.098  14.158 -0.1712 -0.2287  0.2098
17540W        W34014   8.006   5.213   2.524 -0.1062 -0.2066  0.1000
17541W        W34015  11.254   0.439  12.214 -0.0280  0.1248 -0.0438
17542W        W34016   2.460  16.945  14.981 -0.2506  0.1405  0.0511
17543W        W34017  10.070   2.960   2.034 -0.0014 -0.0809  0.2746
17544W        W34018   0.750  16.684   3.156 -0.0076 -0.0336  0.1730
17545W        W34019   2.888   9.197   2.943  0.0630  0.2960 -0.0085
17546W        W34020  11.161  14.782  13.105 -0.0213 -0.0895 -0.2756
17547W        W34021  18.170  17.201   0.270  0.1878 -0.1499 -0.3343
17548W        W34022  13.569   3.376  12.091  0.3334 -0.0293 -0.0807
17549W        W34023   5.781  17.573   4.902  0.0091 -0.0651 -0.1717
17550W        W34024  13.403  16.266  15.146 -0.0969  0.1980 -0.0243
17551W        W34025  15.234  15.509   1.896  0.1290 -0.0116 -0.2510
17552W        W34026  16.419   1.222  15.172  0.1531 -0.2586  0.0544
17553W        W34027   0.376   3.256  12.209 -0.2809 -0.0931  0.0451
17554W        W34028   1.740  10.486  11.791  0.1229 -0.0465 -0.0524
17555W        W34029   5.158  18.162  15.507 -0.2185  0.0437  0.1129
17556W        W34030   7.659  13.234   2.697  0.0274 -0.0762  0.0501
17557W        W34031  15.031  10.124  14.582 -0.1287 -0.0360  0.1546
17558W        W34032   0.254  17.703   1.835  0.1144  0.0825 -0.0254
17559W        W34033  10.473  14.409  12.255 -0.0668 -0.1088  0.3737
17560W        W34034   7.034  16.065   0.089  0.0695 -0.1463  0.4520
17561W        W34035   3.298  13.992  15.957  0.0884 -0.1321 -0.2844
17562W        W34036  12.127  17.390  12.490 -0.0817 -0.1627  0.1867
17563W        W34037   1.866   0.874  12.288 -0.0894  0.1961  0.1343
17564W        W34038   3.439  14.845  13.982 -0.0434 -0.3163 -0.0987
17565W        W34039   3.957   2.861   1.476 -0.0911  0.3079  0.3153
17566W        W34040   9.627   2.533   0.777  0.2171 -0.1387 -0.0076
17567W        W34041   3.664  17.654  12.457 -0.2381 -0.0901  0.2828
17568W        W34042   6.264   7.137   5.187  0.0405  0.1278 -0.1233
17569W        W34043   6.438  14.712   2.548 -0.2552 -0.0679  0.0455
17570W        W34044   3.490  16.073  14.191  0.2083 -0.3770 -0.1443
17571W        W34045  16.812   1.278  12.078 -0.0317  0.0275 -0.1102
17572W        W34046  17.478  14.953  11.659 -0.1566  0.0970 -0.2893
17573W        W34047   5.344   8.801   5.112  0.1254  0.1693 -0.1019
17574W        W34048  10.917  12.658  16.227  0.0476  0.1002 -0.0089
17575W        W34049  14.813   4.685   2.664 -0.0867 -0.1413 -0.0408
17576W        W34050  11.999  10.024  12.065  0.1801  0.2605  0.2490
17577W        W34051  10.462  11.651  13.048  0.1042 -0.0192  0.0309
17578W        W34052  12.209   7.893  13.227  0.1948  0.2773 -0.0971
17579W        W34053   6.807   0.971  12.315  0.1155  0.1238 -0.0867
17580W        W34054  10.827   6.850  11.516  0.0997  0.1648 -0.4302
17581W        W34055  16.075   7.111  11.811 -0.0966 -0.0084  0.0882
17582W        W34056   6.940  15.826  14.028  0.2508 -0.1041  0.0015
17583W        W34057   1.772  10.586   3.618 -0.1852 -0.0726 -0.0945
17584W        W34058   3.266   1.736  14.526 -0.2110  0.3343 -0.1415
17585W        W34059   7.470  11.159   2.818  0.1097  0.1375  0.1252
17586W        W34060   1.219   7.637  12.105 -0.0275  0.1306  0.0555
17587W        W34061  16.381   3.835   3.225 -0.1226  0.0453  0.3771
17588W        W34062   2.055  14.355   6.027 -0.0577 -0.1007 -0.1403
17589W        W34063   5.964  11.646   1.336  0.0432 -0.1532  0.0133
17590W        W34064  16.139   2.970   0.037 -0.0537  0.2425  0.0050
17591W        W34065  10.990   5.250  15.338 -0.0299 -0.1254 -0.1535
17592W        W34066   0.184  17.693  11.210 -0.3898  0.0479  0.0353
17593W        W34067  11.026   6.396  11.563 -0.3926 -0.2170  0.1310
17594W        W34068   4.688  11.697  14.293  0.1806 -0.1117 -0.3661
17595W        W34069   2.084   3.909  12.757  0.0850  0.2704  0.1728
17596W        W34070  15.619  11.888  15.544 -0.3381  0.0223 -0.2125
17597W        W34071   3.236  11.572  13.692  0.3002  0.0954  0.1327
17598W        W34072  14.857   7.477   0.716  0.0933  0.0208  0.0097
17599W        W34073  15.613  15.701  14.983  0.0782 -0.4724 -0.0661
17600W        W34074  17.888   7.772  15.972 -0.1836 -0.2594  0.2673
17601W        W34075   5.601  14.417  11.925  0.0770 -0.1080 -0.2093
17602W        W34076   9.858  14.252   2.515 -0.2672  0.1562  0.2300
17603W        W34077   1.731   8.490  11.345  0.2585  0.1470  0.0871
17604W        W34078   0.964   0.212   1.482  0.2394  0.1343 -0.2809
17605W        W34079  13.607   5.555  15.300  0.0649 -0.0597  0.0642
17606W        W34080  17.530  17.039  14.793 -0.0400 -0.3257 -0.3927
17607W        W34081   6.934  12.529   4.002 -0.0061  0.0085 -0.1032
17608W        W34082   4.270   2.755   0.961 -0.0281 -0.1106  0.1061
17609W        W34083   1.447   1.666  15.325  0.0443  0.1183  0.2296
17610W        W34084  16.681  13.828   5.015  0.0248  0.1259  0.0073
17611W        W34085  13.193   5.258  15.388  0.0652 -0.0678 -0.0317
17612W        W34086   3.063   7.473  11.738 -0.1949 -0.0198  0.4697
17613W        W34087  11.774   3.869  13.786 -0.0053  0.0500 -0.1877
17614W        W34088   8.540   3.130  16.023 -0.0406 -0.0643 -0.2836
17615W        W34089   4.329   7.388   3.975  0.2800 -0.3897 -0.2033
17616W        W34090   5.103   5.663   2.524 -0.1567 -0.0990  0.0974
17617W        W34091   3.564  14.474   0.681  0.1319  0.0058  0.1700
17618W        W34092   8.926  14.235  12.638 -0.1675  0.1954 -0.3730
17619W        W34093   6.672  11.120   0.834 -0.0579 -0.1293  0.1084
17620W        W34094  15.015  12.432   4.829  0.0089  0.1379  0.0810
17621W        W34095   8.553   1.260   1.654 -0.1049  0.1191  0.4712
17622W        W34096   7.047  18.070  11.175 -0.2544  0.0081  0.1319
17623W        W34097  10.142  13.165   1.013  0.1834  0.0304 -0.4316
17624W        W34098  16.171  10.528   3.024  0.0665  0.0594  0.1828
17625W        W34099   7.535  12.959   4.591  0.0080 -0.0071 -0.2174
17626W        W34100  10.409   9.488  14.752  0.0443  0.0713 -0.0444
17627W        W34101  12.743   1.245  15.651  0.0491  0.0853  0.3331
17628W        W34102  11.321   0.723   5.099 -0.3120 -0.2978 -0.1096
17629W        W34103  14.950   2.333  12.622  0.1104 -0.0883  0.0036
17630W        W34104   4.592   4.020   0.736 -0.0009  0.2607 -0.2134
17631W        W34105   3.786  14.711   1.085  0.0064  0.1523  0.1159
17632W        W34106   1.303   4.288   4.402  0.0235  0.1177  0.1745
17633W        W34107   3.013   8.565  12.238  0.2152 -0.0352 -0.0960
17634W        W34108  16.164   4.365   2.473 -0.2926  0.2766 -0.2323
17635W        W34109  17.608  12.890  13.970 -0.3148  0.1243  0.1378
17636W        W34110  17.809   9.986   5.254  0.2402 -0.2440  0.0333
17637W        W34111   9.065  16.860  14.094  0.0678 -0.0409 -0.0744
17638W        W34112   4.853   4.455  16.072  0.1497 -0.3091  0.2303
17639W        W34113  18.051   3.463  12.204 -0.0408  0.0984 -0.3190
17640W        W34114  16.123   4.925   2.637  0.2250 -0.0244  0.0722
17641W        W34115   9.323  12.926   0.535  0.0305 -0.1884 -0.0409
17642W        W34116   6.563  16.044  11.527 -0.2066 -0.1397  0.3655
17643W        W34117  14.888  17.157  13.358 -0.0064 -0.1882 -0.2712
17644W        W34118  14.023  10.465  15.282 -0.3362  0.0692  0.0604
17645W        W34119   2.642  16.818   3.232 -0.0101  0.0473 -0.2532
17646W        W34120  11.747  17.083  14.027 -0.0666 -0.1473  0.0130
17647W        W34121   2.763   5.602   1.298 -0.1568  0.1418  0.1296
17648W        W34122   2.780  13.403  15.855  0.1167 -0.0692  0.2138
17649W        W34123   0.828   6.919  15.522 -0.0242 -0.0156  0.0838
17650W        W34124  11.072   0.132   2.487  0.1606  0.1118  0.0555
17651W        W34125   1.488  14.660  14.436  0.2643 -0.3084  0.2178
17652W        W34126   1.803  12.703  10.445 -0.2443 -0.2552 -0.0637
17653W        W34127   2.425  16.590   1.554 -0.0081  0.1854 -0.1867
17654W        W34128  15.202  14.428   2.069 -0.0177 -0.0064 -0.0417
17655W        W34129  15.746  10.033   5.648 -0.1252 -0.1094 -0.0795
17656W        W34130   9.083   1.940  16.155  0.0249  0.0265  0.1709
17657W        W34131   1.559   3.204   2.559 -0.3840 -0.1148  0.2400
17658W        W34132   8.821   2.060   2.654 -0.1814 -0.0043  0.1871
17659W        W34133  10.385   0.444   1.488 -0.1931 -0.0018  0.1338
17660W        W34134  14.354   7.968   0.764 -0.1280  0.0737 -0.2273
17661W        W34135   1.300   2.836  15.551 -0.0481 -0.3236  0.0684
17662W        W34136   2.205  15.741  12.576 -0.2955 -0.1660  0.2170
17663W        W34137   6.024  14.678   4.091 -0.0909 -0.1727 -0.1735
17664W        W34138   1.968  12.143  16.239  0.1680 -0.0205 -0.0815
17665W        W34139   9.984   3.638  14.996 -0.2719  0.1428 -0.1189
17666W        W34140   0.499   4.873   5.105 -0.0045 -0.1471 -0.0496
17667W        W34141  12.255   7.332  15.424 -0.2281 -0.0364  0.0908
17668W        W34142   3.468   3.737   0.592 -0.0222  0.0138 -0.0849
17669W        W34143  11.540   2.626   2.325  0.2044  0.0635 -0.1107
17670W        W34144   9.797  10.593  15.085 -0.0747 -0.4649  0.1974
17671W        W34145   0.784  14.984  13.799  0.2995 -0.2219 -0.0874
17672W        W34146   8.847  12.850  13.412  0.0277  0.0640  0.2279
17673W        W34147   1.967  10.174  12.931 -0.1467 -0.3828  0.3101
17674W        W34148   4.743  13.656   1.219 -0.2070 -0.0046  0.2586
17675W        W34149   9.146   5.945   3.036 -0.2500  0.0790 -0.0067
17676W        W34150   4.214   7.409  14.293  0.0400 -0.0620 -0.0430
17677W        W34151   5.304   9.151   1.029  0.0912 -0.0218 -0.2258
17678W        W34152   3.096  12.579   4.898  0.2422 -0.0814  0.1296
17679W        W34153  13.963  17.727  10.314 -0.0584 -0.2925  0.1007
17680W        W34154  14.248  11.581   3.344  0.1821  0.1665  0.0492
17681W        W34155  11.414  14.144   0.935 -0.0435 -0.2419  0.3903
17682W        W34156  15.964  10.869  16.101 -0.1875  0.1791 -0.0595
17683W        W34157  17.200  13.757   0.153  0.0058  0.1685 -0.0893
17684W        W34158  17.862  15.690   2.568 -0.1028 -0.2652  0.2826
17685W        W34159   7.839   6.241   5.846  0.0557 -0.1126 -0.2012
17686W        W34160   6.948   8.832   2.654  0.2168  0.0706  0.1384
17687W        W34161  14.215   1.760  12.925  0.2092  0.0481 -0.0215
17688W        W34162   5.970   0.959  12.264  0.0647 -0.1009  0.1009
17689W        W34163   5.314   6.074  15.482  0.1310 -0.1081  0.1143
17690W        W34164  11.908  15.901   3.287 -0.0487 -0.0304  0.1011
17691W        W34165   0.014   9.245  11.447 -0.1027 -0.3452 -0.0679
17692W        W34166  15.748   4.172  14.239  0.1147  0.0884  0.1329
17693W        W34167   6.207   8.750  15.603 -0.0370 -0.2715 -0.0555
17694W        W34168   1.716   7.574  12.099 -0.1154 -0.1361  0.0748
17695W        W34169   0.586   3.827   3.262 -0.3575 -0.0575  0.1221
17696W        W34170   2.317  16.763   0.587  0.0506 -0.0456  0.1179
17697W        W34171   1.341  10.223  12.009  0.1593 -0.2936 -0.2407
17698W        W34172   4.758  17.748   4.031  0.0678  0.2910 -0.1076
17699W        W34173   2.565   6.090  11.422 -0.0114  0.3468  0.0436
17700W        W34174   9.564  11.861   0.266 -0.0537  0.3418 -0.0576
17701W        W34175   8.277  17.106   6.400 -0.1545 -0.1345  0.0996
17702W        W34176   2.184  13.868   1.308  0.0280  0.1510 -0.1592
17703W        W34177   2.045   7.362   0.077 -0.0108 -0.0812  0.1040
17704W        W34178  17.098  15.955   0.276 -0.0492  0.1988  0.4154
17705W        W34179   3.206  15.221  15.402  0.1533 -0.0794  0.0811
17706W        W34180   0.014  12.761  11.574  0.0100  0.0202 -0.0415
17707W        W34181   2.496  16.057   0.932  0.1582 -0.2550 -0.0370
17708W        W34182  10.211   9.364   5.071 -0.1537 -0.1421  0.0244
17709W        W34183  11.303   7.113  16.276 -0.0568 -0.0617  0.0791
17710W        W34184   7.746  15.490   4.924  0.1619  0.2408  0.0402
17711W        W34185  17.389  16.901   3.969  0.0576 -0.0238 -0.1064
17712W        W34186   6.244  13.271   3.714 -0.1651  0.0800 -0.0855
17713W        W34187  11.404  10.680  16.160  0.0049 -0.0387  0.1301
17714W        W34188   3.246  10.999  11.607 -0.0706  0.0860 -0.2323
17715W        W34189   3.078   7.974   0.643  0.0326 -0.0452  0.0353
17716W        W34190  16.072  14.913   0.071 -0.0490  0.0751  0.1855
17717W        W34191   9.345  14.555   4.239 -0.1231 -0.0521  0.0352
17718W        W34192  17.262  16.429  16.239 -0.3329  0.0679 -0.4484
17719W        W34193  15.737  11.056  15.050 -0.0376 -0.0205 -0.1674
17720W        W34194   7.992   7.742  14.527  0.1152 -0.0700 -0.0903
17721W        W34195  13.284   2.974  16.230 -0.1852  0.2523  0.4086
17722W        W34196   8.633   7.159   0.137 -0.1565  0.0254  0.2460
17723W        W34197   7.321   3.788   3.969 -0.0498  0.0945  0.1430
17724W        W34198   0.569  10.273  13.489 -0.0119 -0.0359 -0.1498
17725W        W34199   1.489   3.959  12.126 -0.0132 -0.0138  0.3073
17726W        W34200  11.738  14.235   3.020 -0.1692  0.0140 -0.1706
17727W        W34201  16.960  15.204   2.702 -0.2186  0.1373 -0.0742
17728W        W34202  15.118  14.672   2.460 -0.0422 -0.0601  0.1689
17729W        W34203   9.452   0.100   4.861 -0.1955  0.2062 -0.1185
17730W        W34204  11.410  11.447  13.433  0.2332 -0.4208 -0.1792
17731W        W34205  10.095   4.932   4.275 -0.2325  0.0392 -0.0784
17732W        W34206  14.563  15.239   4.463  0.1253  0.1238  0.0963
17733W        W34207   1.100  16.211  15.756 -0.0497 -0.1293 -0.0536
17734W        W34208   1.841   2.153  11.947  0.0716 -0.1641 -0.1114
17735W        W34209   8.275   7.254  13.294  0.2954  0.1173 -0.1709
17736W        W34210  17.658   2.875  14.075 -0.1279  0.1315 -0.0875
17737W        W34211   1.097  12.377  12.602  0.1860 -0.1868 -0.1006
17738W        W34212   2.356  11.342   4.540  0.4313  0.1279  0.1160
17739W        W34213  17.750  16.971  11.394  0.1008  0.0061 -0.0987
17740W        W34214  13.744  13.067  14.677  0.0360 -0.5336  0.2176
17741W        W34215   2.762   0.696  12.763  0.2041  0.0341  0.0710
17742W        W34216  14.755   2.495   0.133 -0.0274 -0.1405 -0.1740
17743W        W34217   8.759   9.612   2.261 -0.0017  0.0013  0.1346
17744W        W34218  12.100   9.812   2.962 -0.2242 -0.0459 -0.0410
17745W        W34219   1.552  11.774   4.837  0.1079 -0.2777 -0.1644
17746W        W34220   6.234  12.283  11.538  0.2512  0.0883  0.1066
17747W        W34221  17.380   7.626  11.127 -0.1486  0.2510  0.0901
17748W        W34222   8.947  10.068  11.777  0.4719  0.2346 -0.0470
17749W        W34223  14.143  11.814  15.752  0.2272 -0.2985  0.1670
17750W        W34224   1.177   1.379  11.800  0.1019 -0.0469 -0.3457
17751W        W34225  16.211  12.304   2.427 -0.0819  0.4009 -0.0985
17752W        W34226  13.359   0.545   4.860  0.1492 -0.0967 -0.0964
17753W        W34227   7.127   0.119  11.868  0.0791 -0.1194  0.0094
17754W        W34228   0.637  17.258   0.672 -0.1800 -0.0342  0.0891
17755W        W34229  12.931   2.248   2.840 -0.1566 -0.1571  0.2450
17756W        W34230  13.341  13.602   1.018  0.1459  0.1799 -0.0241
17757W        W34231  12.319  11.538  12.952 -0.0644  0.4696 -0.1659
17758W        W34232  11.303  13.707   1.427  0.0048  0.0660 -0.0872
17759W        W34233  15.919  10.531  15.399  0.0510  0.0946  0.2255
17760W        W34234   1.156  12.682   1.760  0.0265  0.3543  0.0847
17761W        W34235   6.033  16.824   2.431 -0.0408 -0.0834 -0.0415
17762W        W34236   4.509   4.051   2.982  0.1400  0.0388  0.1052
17763W        W34237   8.472   2.366  11.274  0.1961 -0.1839  0.0639
17764W        W34238   5.781   4.440  12.647  0.1101  0.0437 -0.2485
17765W        W34239  11.018   7.541   2.909  0.2251 -0.1688 -0.2564
17766W        W34240  15.438   9.076   3.888 -0.1810 -0.1267  0.1978
17767W        W34241  11.795   2.628  13.553 -0.2252  0.0009 -0.0943
17768W        W34242  17.868  10.946   1.324 -0.2126  0.0087 -0.3679
17769W        W34243   9.561   8.468  15.886 -0.1477  0.2967 -0.2132
17770W        W34244  12.283   0.384   4.325 -0.0011  0.1972 -0.1018
17771W        W34245   5.691  10.057  13.223  0.0813  0.2909  0.3338
17772W        W34246  11.437   9.723   0.224 -0.1535  0.1092  0.0042
17773W        W34247   7.917   9.978   0.908  0.1572 -0.1326  0.0464
17774W        W34248   9.164   7.926   3.149  0.0935  0.1625  0.1523
17775W        W34249   9.491  14.267   6.034 -0.1467  0.2827 -0.0461
17776W        W34250  15.234  13.514   1.252 -0.2603  0.0636 -0.2299
17777W        W34251   2.411   5.948  13.551 -0.1818 -0.2912  0.0944
17778W        W34252   5.705  11.217   1.350 -0.0607 -0.0367  0.1822
17779W        W34253  15.012   3.713  14.710 -0.0256 -0.2315 -0.1126
17780W        W34254   6.829  15.003  14.836  0.1642  0.2036 -0.0401
17781W        W34255  11.177  16.103  14.452 -0.0523 -0.0526 -0.2832
17782W        W34256  11.811   9.110  14.717  0.0322 -0.0448 -0.1979
17783W        W34257   7.953   8.243  14.447 -0.2371  0.1875 -0.1404
17784W        W34258  13.660   5.628   0.705  0.2179  0.0222 -0.2227
17785W        W34259   5.874  15.753   3.271 -0.0489 -0.1578 -0.1281
17786W        W34260  17.292  10.573  11.941  0.0230 -0.1218 -0.1273
17787W        W34261  12.396  12.962   2.978 -0.0789 -0.1279  0.1677
17788W        W34262   0.926   7.923   1.114  0.0104 -0.1440  0.0682
17789W        W34263   1.378   2.269  11.902 -0.1073  0.3672  0.0528
17790W        W34264   9.189   2.540  12.416 -0.2222  0.1128 -0.0025
17791W        W34265  13.216   2.780   1.479 -0.1020 -0.1853  0.1055
17792W        W34266  17.700   1.368  14.299  0.2421  0.0047 -0.0772
17793W        W34267   1.797  17.592  14.221  0.1795 -0.3464  0.0231
17794W        W34268  15.107   7.705   4.600  0.2916  0.0489  0.0897
17795W        W34269  17.713   1.539  15.027 -0.2554 -0.0620  0.1374
17796W        W34270  11.272  10.890  14.512  0.0874  0.1342  0.0139
17797W        W34271   7.851   9.527  16.112  0.0879  0.1670 -0.0588
17798W        W34272  13.382  15.150  12.793 -0.2520  0.2078 -0.2193
17799W        W34273   6.797   5.885   0.700  0.0597 -0.0200 -0.0374
17800W        W34274   1.363   7.056   4.602 -0.2483 -0.1850 -0.4086
17801W        W34275   4.866   8.428   3.580 -0.0356 -0.0714  0.0699
17802W        W34276  11.651  13.441  11.930  0.1766  0.0710 -0.3021
17803W        W34277  10.690   0.746  14.011 -0.3490  0.0350 -0.3493
17804W        W34278  11.789  16.138  15.978 -0.1591  0.0679  0.1068
17805W        W34279  10.689   9.086   0.090  0.0221  0.1145  0.1402
17806W        W34280   3.352  15.517  12.302  0.0533  0.2118  0.0125
17807W        W34281   3.789   5.259  13.786 -0.0195  0.1090  0.1079
17808W        W34282   4.250  14.085  12.113 -0.2911 -0.1765  0.0191
17809W        W34283   5.529  11.553  11.749 -0.2163 -0.0274  0.0216
17810W        W34284  18.044   2.570   0.797 -0.2559  0.1205  0.1680
17811W        W34285   4.796   4.975   1.964  0.1774 -0.1413 -0.3733
17812W        W34286  10.287  15.438   3.459 -0.0092  0.2063  0.1937
17813W        W34287  12.995   7.468   4.141 -0.3569  0.0270 -0.0170
17814W        W34288  17.643   5.437   4.393  0.0614 -0.0290 -0.2725
17815W        W34289  10.377   9.518  12.417 -0.2108 -0.1213 -0.1068
17816W        W34290  14.150   6.273   3.540 -0.0650 -0.0445  0.2673
17817W        W34291   8.283  18.134   4.683 -0.0678 -0.0935 -0.0399
17818W        W34292  17.331  14.745  12.188  0.1068  0.0644 -0.1206
17819W        W34293   8.233   0.986   1.389  0.0923 -0.1377  0.1120
17820W        W34294   8.553   5.247   4.079  0.0629 -0.0331  0.1956
17821W        W34295   7.114  12.390  11.984 -0.2680  0.0757 -0.1977
17822W        W34296  11.426   1.864  15.643 -0.0677 -0.1820  0.2018
17823W        W34297   2.764   9.428   5.523 -0.3129  0.0455  0.1268
17824W        W34298   0.613  11.505   0.985  0.0517 -0.2303  0.2619
17825W        W34299  10.025   1.705   2.768  0.0280 -0.0279 -0.2272
17826W        W34300   9.343   2.916   0.936  0.3562 -0.1005 -0.0212
17827W        W34301  12.304  16.747  15.692  0.0301  0.3428  0.2774
17828W        W34302   9.317   3.686  11.968  0.0113  0.3280 -0.1668
17829W        W34303   5.137  10.071  14.779 -0.1644  0.3208 -0.2271
17830W        W34304  16.927  11.311  13.254 -0.3433 -0.0236  0.2747
17831W        W34305   2.840  11.813   1.428  0.0233  0.2081  0.0981
17832W        W34306  17.872   6.945   5.437  0.2701  0.1958 -0.1231
17833W        W34307  11.265   1.683  15.194 -0.1063  0.1225  0.0596
17834W        W34308  12.549   4.182   0.774  0.0257  0.0828 -0.0778
17835W        W34309  17.849   6.183   4.600 -0.0755 -0.4114 -0.1064
17836W        W34310   8.241  10.352  12.422  0.1125  0.2613  0.1682
17837W        W34311   3.403   3.860  14.083 -0.0878 -0.1703  0.0018
17838W        W34312  17.264  13.253   2.799 -0.2759 -0.0701 -0.1394
17839W        W34313  14.421  17.830  15.517 -0.0853 -0.1366 -0.0035
17840W        W34314   8.521  15.074   0.469 -0.4497  0.2462 -0.0315
17841W        W34315  17.290   0.225   1.257 -0.0546  0.0011  0.1409
17842W        W34316   9.902  13.952   2.980  0.0570 -0.2292 -0.3365
17843W        W34317   6.543   8.009   0.387  0.1884 -0.2465  0.1159
17844W        W34318  16.005  13.179   1.708  0.0713 -0.0738 -0.0035
17845W        W34319  15.920   9.643   5.333 -0.0533 -0.2081 -0.3026
17846W        W34320   9.867   7.880   0.719 -0.3179 -0.1083 -0.1684
17847W        W34321  17.469   3.960   5.147 -0.1826  0.0561 -0.0044
17848W        W34322   6.194   7.594  15.139 -0.3077  0.1040  0.0111
17849W        W34323   7.494  15.297  10.555  0.1011 -0.0448  0.0377
17850W        W34324   8.845  11.741   1.551 -0.0126  0.0961 -0.1869
17851W        W34325  13.611   7.502  16.298 -0.2258 -0.2636  0.0137
17852W        W34326  12.925   6.015   2.840  0.1266 -0.2495 -0.0678
17853W        W34327   3.503  14.601   3.934 -0.0126  0.2820  0.1708
17854W        W34328  10.481  18.009   2.539  0.1692 -0.0459 -0.0091
17855W        W34329   4.121   0.670  12.343 -0.0546 -0.0305 -0.3175
17856W        W34330   6.559   6.363   3.568 -0.1180  0.1067  0.0713
17857W        W34331   2.955   7.509  13.797  0.0016 -0.2070  0.0111
17858W        W34332  15.303  10.329  16.318 -0.0824 -0.2465  0.4560
17859W        W34333   9.847  13.504   2.671 -0.0823  0.1029  0.0409
17860W        W34334  13.951   3.494   3.610  0.0509  0.5655  0.0658
17861W        W34335  15.086   3.851  15.789  0.3251  0.3401 -0.1200
17862W        W34336   4.536   8.904  11.718 -0.1231 -0.0207 -0.2027
17863W        W34337  11.193   1.556  12.477 -0.0844  0.3159 -0.0223
17864W        W34338   3.001  15.466  12.742  0.1142  0.2408  0.2802
17865W        W34339   5.681   6.842   0.334 -0.1515  0.1676 -0.0844
17866W        W34340   4.202   4.827   2.460 -0.2073  0.1565  0.0133
17867W        W34341  18.027  11.894  16.273  0.0033  0.1641  0.1196
17868W        W34342   9.498   3.773  15.008 -0.0402  0.3838 -0.1987
17869W        W34343  14.598  10.677   2.049 -0.0392 -0.1142 -0.2626
17870W        W34344  16.240  15.295   5.024 -0.0220 -0.0363  0.1869
17871W        W34345  15.417   6.197  11.063  0.1600  0.0097  0.0167
17872W        W34346   9.520   8.026  11.953 -0.2065 -0.0547 -0.1414
17873W        W34347   8.033   9.982  16.219  0.1070 -0.0243 -0.0012
17874W        W34348  10.378  16.247  12.269 -0.2004  0.0651 -0.0032
17875W        W34349   6.785   6.789  14.229  0.0242 -0.0578  0.1100
17876W        W34350  10.563   4.914  13.592 -0.1827 -0.0540  0.4392
17877W        W34351   0.164  16.904  12.974  0.0922 -0.2556 -0.1718
17878W        W34352   1.810   2.877  15.718 -0.2364 -0.0095 -0.3374
17879W        W34353   7.469   4.638  12.079 -0.1300 -0.2518  0.1202
17880W        W34354   2.822  13.925  11.541 -0.2048  0.1983 -0.0529
17881W        W34355   9.718   6.293   3.913  0.0615 -0.2913  0.0196
17882W        W34356   5.264   9.961   4.733 -0.2924  0.1023 -0.3312
17883W        W34357  10.307  13.860  10.288 -0.1094  0.2297 -0.2931
17884W        W34358  16.039   8.835  14.751 -0.0579 -0.1787 -0.0052
17885W        W34359  13.404   1.634  11.824  0.0680  0.4217 -0.2550
17886W        W34360  14.661   4.758   3.145  0.2590 -0.0387  0.0471
17887W        W34361   1.395   5.683  13.725  0.0608  0.1932  0.0797
17888W        W34362  11.293   9.395  11.655  0.0305  0.0775  0.2113
17889W        W34363  13.538   4.999  11.952 -0.6025 -0.0566 -0.1147
17890W        W34364   2.963  12.097  13.446  0.0947  0.0705  0.1093
17891W        W34365   5.607   2.152   2.747 -0.2196  0.2224  0.0110
17892W        W34366  14.572   2.201   2.411 -0.0178 -0.0349  0.0346
17893W        W34367   4.346   4.353  13.204 -0.0060 -0.0972 -0.0069
17894W        W34368  12.090   2.814  11.194 -0.5492 -0.0738  0.4092
17895W        W34369   0.460   3.415   3.572  0.1475 -0.5221  0.1140
17896W        W34370   8.744  14.194  12.125 -0.3729 -0.1101  0.0209
17897W        W34371   5.688   8.086   1.698 -0.0669  0.1540  0.0299
17898W        W34372   2.152  10.916  13.709  0.3214 -0.1569  0.2786
17899W        W34373   6.468  11.264   3.952 -0.0275 -0.0797  0.0172
17900W        W34374   5.504  16.687   3.801  0.0084  0.0395  0.1682
17901W        W34375   6.717   1.290  10.033 -0.0922  0.0705  0.0758
17902W        W34376   9.480  15.242  15.260  0.1375  0.0345  0.1448
17903W        W34377   9.438   9.682   3.360  0.0870  0.0231  0.2120
17904W        W34378   7.844   3.676   0.126  0.0459 -0.0780 -0.0448
17905W        W34379  17.890   9.062   0.384 -0.1167 -0.2127  0.0504
17906W        W34380  10.962  15.450  14.447  0.1392 -0.1139  0.1819
17907W        W34381   7.219  13.459   0.984 -0.1694 -0.1557  0.0011
17908W        W34382   3.264   5.197  15.033 -0.0999 -0.0122  0.1646
17909W        W34383   3.019   1.251   6.097 -0.0388  0.1113 -0.0922
17910W        W34384   1.264  15.325   2.736  0.1594  0.0453  0.3065
17911W        W34385  11.140  15.167  16.200 -0.2180 -0.0737 -0.0601
17912W        W34386  12.711  17.957   5.821 -0.2290 -0.0608  0.0651
17913W        W34387   2.977   3.966  13.006 -0.1392 -0.1631 -0.0736
17914W        W34388  12.566  12.492   1.989 -0.0017  0.0160  0.0725
17915W        W34389   3.915  12.311   3.371 -0.1966 -0.0336  0.0104
17916W        W34390  12.053  10.820   4.455 -0.0021  0.0671  0.1168
17917W        W34391  13.223   6.100  12.328 -0.1661 -0.2863  0.0194
17918W        W34392  14.956   8.366  13.248 -0.1222  0.2294 -0.0860
17919W        W34393   9.649   0.704  13.197 -0.1127  0.2000 -0.2249
17920W        W34394   4.711   1.492  16.337  0.1766  0.0370 -0.1327
17921W        W34395   8.986  16.264   5.675 -0.0602  0.0210  0.2321
17922W        W34396  16.406  13.332   2.643  0.2441  0.0047 -0.0009
17923W        W34397  10.824   8.447   4.891 -0.0791  0.3003 -0.2573
17924W        W34398   7.939   1.750  14.238  0.0563  0.1138 -0.1200
17925W        W34399   2.769  12.950  15.503 -0.1245  0.0514  0.0143
17926W        W34400  16.846  16.402   0.163 -0.1372 -0.2131  0.2336
17927W        W34401   4.074   2.017   2.426 -0.0596 -0.1110 -0.1298
17928W        W34402  11.197  15.332   2.490 -0.2192  0.1415 -0.1211
17929W        W34403   4.378   6.779   3.206  0.0393  0.4578 -0.1902
17930W        W34404   5.909  17.541   3.059 -0.3401  0.2705  0.5220
17931W        W34405   6.651  14.501  16.319  0.0138  0.0222  0.2975
17932W        W34406  17.603  11.540   6.111  0.1754  0.1283 -0.0531
17933W        W34407   9.912   9.755   4.768  0.0305  0.2593  0.1841
17934W        W34408   9.792   5.204   2.105 -0.3068  0.0963  0.0247
17935W        W34409  14.281   6.248   5.077 -0.1075 -0.0167 -0.2714
17936W        W34410  17.186   9.730  14.235  0.0602 -0.1559  0.1838
17937W        W34411   9.786  12.711  13.341 -0.0016  0.0182 -0.1642
17938W        W34412   1.624   4.711  11.697 -0.0034  0.2596  0.0591
17939W        W34413   6.328  17.413   2.808 -0.0134 -0.0121  0.1071
17940W        W34414  15.064   3.046  11.371  0.2176  0.2639  0.1593
17941W        W34415   4.864  15.307   5.566 -0.0591 -0.0796  0.0186
17942W        W34416  16.847   6.591   5.414  0.2325  0.0957  0.0474
17943W        W34417   9.619  14.061  15.751  0.2111  0.2957  0.1281
17944W        W34418   8.370  12.027  13.106  0.1479 -0.1458 -0.0362
17945W        W34419  10.572  17.237  13.481  0.0139  0.1488  0.0130
17946W        W34420   1.505  13.664   5.596 -0.0129 -0.1103  0.0370
17947W        W34421  12.171   1.946   2.691  0.1111  0.1753  0.2649
17948W        W34422  16.676   0.348   1.873 -0.2488  0.2759  0.1419
17949W        W34423   0.712   0.886  15.241 -0.2173  0.0046  0.0512
17950W        W34424  10.272   6.873  15.667 -0.2671 -0.0849 -0.0454
17951W        W34425   7.069   8.397   0.169  0.1693  0.0418 -0.0095
17952W        W34426  15.449  10.428  13.146 -0.1959 -0.0430 -0.1090
17953W        W34427  10.373   2.329   3.872 -0.1140 -0.2336 -0.2875
17954W        W34428   1.286   3.847  14.256  0.1808 -0.2643 -0.0598
17955W        W34429   8.569   3.954  12.773  0.0251 -0.1174  0.0808
17956W        W34430  10.704  11.003  15.438 -0.2024 -0.0604 -0.2045
17957W        W34431   0.033  14.927   2.675 -0.2117  0.0069  0.2071
17958W        W34432  16.826   9.804  13.558  0.1378  0.0989 -0.2594
17959W        W34433   6.819   6.812  11.494  0.1501  0.0495  0.1727
17960W        W34434  11.465  13.970   1.881  0.1898  0.1709  0.1323
17961W        W34435   0.987   6.267   4.946 -0.3450  0.3454 -0.1961
17962W        W34436  10.018   1.136  12.488  0.0984  0.0446 -0.3406
17963W        W34437  17.760  16.161   5.461  0.0819  0.0838  0.0239
17964W        W34438  13.145  16.590   3.642 -0.1295 -0.3596  0.0547
17965W        W34439  10.063   1.141   2.712  0.2968  0.1858 -0.2178
17966W        W34440  17.893   3.035   2.935 -0.1165  0.2150 -0.0218
17967W        W34441  10.688  15.878  12.103 -0.0745 -0.2591  0.2120
17968W        W34442  13.436  14.424  14.829  0.0259  0.1612 -0.0740
17969W        W34443  13.251   4.828   1.752  0.2833 -0.0674 -0.1920
17970W        W34444   4.689   8.894  13.396  0.0781  0.2607 -0.0822
17971W        W34445   5.363   4.232  13.063  0.0056  0.1951  0.0252
17972W        W34446  16.339   3.431  13.914 -0.0211  0.0482  0.0325
17973W        W34447  12.377  15.830   4.114 -0.2234  0.3459 -0.0674
17974W        W34448   6.998  18.178  12.748  0.2967  0.1546 -0.1413
17975W        W34449   8.544  15.526  14.911 -0.0018  0.0037 -0.1487
17976W        W34450  16.607  16.841   5.165 -0.0004 -0.1082 -0.0854
17977W        W34451   5.830   0.737   3.020 -0.0157  0.1387  0.3811
17978W        W34452   5.883  11.462   0.306  0.0005  0.3337  0.0148
17979W        W34453   1.982   0.860   0.523 -0.1663  0.0710  0.2189
17980W        W34454   6.382   1.588   3.028 -0.1135  0.0599  0.0465
17981W        W34455  13.783  10.135   3.500  0.2657  0.3026 -0.0672
17982W        W34456   2.981  14.793  15.268  0.2500  0.2183 -0.0940
17983W        W34457   6.929  11.330  14.646 -0.4876  0.1711 -0.1012
17984W        W34458   1.267  11.071   1.671 -0.1413 -0.0130  0.2910
17985W        W34459   6.463  14.822  13.496  0.4262 -0.0810  0.0397
17986W        W34460  18.137   1.698   5.242  0.3220 -0.1854 -0.0722
17987W        W34461  12.026   7.018   0.740  0.3721  0.2563  0.4103
17988W        W34462  16.275  13.799   3.624  0.0868  0.0347  0.2956
17989W        W34463  10.290  13.506   1.368  0.2172  0.3703  0.0903
17990W        W34464  17.163   4.246   1.824  0.0301 -0.1600  0.2649
17991W        W34465  17.060   1.919  13.416  0.1366 -0.0875 -0.1962
17992W        W34466  14.938  11.130   6.043 -0.1622  0.3394  0.1185
17993W        W34467  16.885   2.620   1.491  0.0708 -0.2019 -0.0552
17994W        W34468   7.829  15.511  13.716 -0.4221  0.0229  0.1486
17995W        W34469   6.196  11.891  14.523 -0.0867  0.0290  0.1455
17996W        W34470  11.187   0.680   3.346 -0.0842 -0.1425 -0.0114
17997W        W34471  12.423  13.692   1.256 -0.1879  0.0197  0.0387
17998W        W34472   6.182  10.722   2.124  0.2458  0.4708 -0.5874
17999W        W34473   5.398   0.122  12.161 -0.1005 -0.1063 -0.4686
18000W        W34474   9.533  14.183  11.506 -0.2677 -0.2938  0.0575
18001W        W34475  16.990  13.288   0.343 -0.1697  0.1445  0.2662
18002W        W34476   2.477  13.626   5.606 -0.0116  0.0149  0.0018
18003W        W34477  13.410   2.811  15.549 -0.2068 -0.1920  0.1422
18004W        W34478  15.036  15.447   4.391  0.2115  0.0973 -0.0361
18005W        W34479   6.187   1.447   4.609  0.0215 -0.1214 -0.0480
18006W        W34480  10.785   1.410   3.827  0.2348 -0.1141 -0.0815
18007W        W34481  13.019  12.961  12.116 -0.1589 -0.1556  0.0258
18008W        W34482  13.388  18.023  13.971 -0.3195 -0.1411  0.1735
18009W        W34483  15.124   0.417  10.727  0.0839 -0.0692  0.0685
18010W        W34484   3.669   1.201   3.639  0.1786  0.0501  0.0348
18011W        W34485  14.444  10.353   3.417 -0.1583 -0.1194  0.0118
18012W        W34486  14.379   0.947  11.187  0.1892 -0.3168 -0.0745
18013W        W34487   0.874  13.411   0.495 -0.0892  0.0421 -0.0738
18014W        W34488  12.796   0.484   2.460  0.0739 -0.0022 -0.0425
18015W        W34489   5.055  11.026   2.067  0.0086  0.2957 -0.2094
18016W        W34490  12.501   7.539   4.662 -0.1363  0.0271  0.3460
18017W        W34491  12.785   5.573  13.618 -0.0523  0.1191  0.3290
18018W        W34492  10.531  11.319  13.562  0.2027  0.2915  0.1314
18019W        W34493   3.408   4.216   5.754  0.1556 -0.2556  0.0751
18020W        W34494   9.430  15.359   4.599 -0.0404 -0.3319 -0.1537
18021W        W34495   4.735   7.104  15.554  0.1870 -0.3256 -0.0075
18022W        W34496   2.665  17.977  10.808  0.3546 -0.0070 -0.1743
18023W        W34497   1.955  17.109   2.434 -0.1419 -0.0735  0.3185
18024W        W34498   2.398  10.865   0.976  0.1046  0.1212 -0.0198
18025W        W34499  17.758   9.748   2.554 -0.1970 -0.0064 -0.2278
18026W        W34500   8.318  12.155   1.986 -0.0501  0.0643  0.0781
18027W        W34501   8.816  17.427  12.468 -0.0870 -0.3317 -0.1194
18028W        W34502   1.366   2.541  13.714  0.0219 -0.1210 -0.1969
18029W        W34503  16.571   2.347  14.006  0.1749 -0.1048 -0.2736
18030W        W34504   7.442  17.980  11.532  0.0002 -0.0401  0.0932
18031W        W34505   3.132  10.257   3.447  0.1058  0.2501  0.3328
18032W        W34506   9.842  14.049   3.926 -0.3022 -0.0034 -0.0276
18033W        W34507  16.953   9.746   2.679 -0.0023  0.0211  0.2258
18034W        W34508  14.083   8.032   5.924 -0.1635 -0.1438 -0.3103
18035W        W34509   0.295   7.618  10.962 -0.2510  0.1303  0.1079
18036W        W34510   5.374  10.245   2.095  0.1005 -0.1711  0.2709
18037W        W34511   3.769   9.015  15.243  0.0413 -0.1465 -0.1730
18038W        W34512  10.893  15.061  10.480 -0.0038  0.1056  0.1652
18039W        W34513  15.430  10.587   3.633 -0.2874  0.0206 -0.1565
18040W        W34514   8.903  14.429  11.255 -0.2216  0.1351  0.3340
18041W        W34515   9.854  11.788  13.352  0.2637  0.2612 -0.1586
18042W        W34516  10.206  16.366   5.769 -0.0973 -0.1037 -0.0154
18043W        W34517   8.130  10.747   3.105  0.3958  0.0658 -0.0531
18044W        W34518  15.312  10.184   1.914 -0.0941 -0.0226 -0.1363
18045W        W34519  10.967  17.829   2.423  0.1828 -0.1939 -0.0905
18046W        W34520  11.747   0.687  14.029  0.0865 -0.0007  0.1019
18047W        W34521   4.515  17.761   2.527 -0.0757 -0.1858 -0.0002
18048W        W34522  13.596   5.183   1.560 -0.0143 -0.2544 -0.0414
18049W        W34523   3.003   7.163   5.287  0.0796  0.1251 -0.0821
18050W        W34524  10.413   5.946   0.196 -0.1660  0.3404 -0.1566
18051W        W34525  14.673  14.771   4.647 -0.3683 -0.0409 -0.2739
18052W        W34526   8.936   2.899   0.073 -0.1327  0.3281  0.0592
18053W        W34527  13.004   4.866   3.833 -0.0776  0.1289  0.1634
18054W        W34528   9.017   1.117  12.331 -0.3747 -0.1569  0.2101
18055W        W34529  10.162   8.944   2.062 -0.1074 -0.2672 -0.2476
18056W        W34530   1.030  10.241  13.192  0.0908  0.1513  0.1030
18057W        W34531   8.570  15.087   5.451  0.1450 -0.2188 -0.2463
18058W        W34532   5.297   7.916  13.728 -0.1751 -0.1790  0.2297
18059W        W34533   7.355   5.491  13.534 -0.2368  0.0555 -0.0269
18060W        W34534   6.932   9.647   0.922  0.0906  0.0719  0.2660
18061W        W34535  18.026  11.513   0.156 -0.1147  0.1220  0.1876
18062W        W34536  12.780  10.796   5.017 -0.0624  0.2185 -0.0819
18063W        W34537  16.469  11.485  15.954 -0.0711 -0.2209  0.2642
18064W        W34538  10.597  16.996  13.038 -0.1898 -0.1094 -0.1655
18065W        W34539   2.240   4.601  12.172  0.2473 -0.1837  0.1923
18066W        W34540   1.592   7.217  15.057 -0.0543 -0.1043  0.0126
18067W        W34541   0.102   3.898   3.026 -0.0267 -0.1405 -0.3271
18068W        W34542   3.274   5.662   1.088 -0.2598  0.0768  0.2505
18069W        W34543   5.103   6.062   1.331  0.0339 -0.0629  0.0284
18070W        W34544   3.487   9.900  11.516  0.3329  0.0221  0.0290
18071W        W34545   0.823   2.109   1.435 -0.0114  0.1172  0.1468
18072W        W34546   1.646   6.157  14.937  0.1379  0.1655 -0.0491
18073W        W34547   6.225  12.980   4.139 -0.1521  0.0637  0.3128
18074W        W34548   5.746  10.572  11.562 -0.2824 -0.0060 -0.1282
18075W        W34549  17.085   2.287  15.872  0.2295  0.0581 -0.0278
18076W        W34550  11.357   1.379   4.391 -0.3248  0.1534 -0.0496
18077W        W34551   3.846   2.667   2.856 -0.2143 -0.0489 -0.1832
18078W        W34552   5.774   1.393  13.225 -0.0392  0.0512  0.1837
18079W        W34553   9.816   0.425  15.194 -0.0868 -0.0506 -0.0236
18080W        W34554  11.357  12.858   4.165 -0.3083 -0.0763  0.0043
18081W        W34555   9.373  16.880  10.813 -0.1391  0.0899  0.0183
18082W        W34556  12.716  10.177  12.351  0.1823  0.1032  0.0062
18083W        W34557   1.118  13.627  11.072 -0.0642  0.0192 -0.0571
18084W        W34558   4.105   3.989   0.680  0.1783  0.5236  0.3270
18085W        W34559  13.337  15.087  13.272  0.1950 -0.0755  0.0635
18086W        W34560  16.261   7.628  11.842 -0.1800 -0.4481  0.2155
18087W        W34561   6.862  15.185  12.134  0.1189  0.1399 -0.0095
18088W        W34562  16.634   7.487  12.163  0.0050 -0.0848  0.0478
18089W        W34563  16.553   7.004  13.329  0.0219  0.0546 -0.2603
18090W        W34564   3.550  10.174   1.369  0.0215 -0.1615 -0.0407
18091W        W34565  17.763   4.382   5.181  0.1504  0.3498 -0.0307
18092W        W34566  15.019  12.569  13.081 -0.1599  0.1072 -0.1089
18093W        W34567  14.739   6.150  16.154 -0.1810 -0.0533 -0.0809
18094W        W34568  10.302  17.387   0.156 -0.0131  0.0266 -0.4439
18095W        W34569   2.777   3.443  13.594 -0.1278 -0.0632 -0.0989
18096W        W34570  11.049  10.878  14.991  0.0185 -0.1325  0.1639
18097W        W34571  13.332   6.196   3.030  0.0245  0.1511 -0.0084
18098W        W34572  12.075  11.700   2.457 -0.1130 -0.0218  0.0672
18099W        W34573   5.552   6.245   1.520  0.3120 -0.0845  0.2151
18100W        W34574   8.851   0.167   0.988  0.1595 -0.3214  0.0841
18101W        W34575  16.445  12.539   5.235 -0.1346  0.1278  0.2043
18102W        W34576  13.457  15.679  11.815  0.0940  0.2863 -0.0985
18103W        W34577   0.407  15.249  12.034 -0.0661  0.1488 -0.0354
18104W        W34578   5.278  17.271   4.921 -0.1464  0.2275  0.1023
18105W        W34579   4.180  12.886   0.841 -0.2506 -0.0587 -0.1864
18106W        W34580  12.437  14.829   0.458  0.3165 -0.0687 -0.0653
18107W        W34581   1.069   2.420  14.148  0.0831 -0.4264 -0.0090
18108W        W34582  17.109  14.244   0.871 -0.0128 -0.0284 -0.1782
18109W        W34583  17.178  17.138   4.968 -0.3591  0.1114  0.2784
18110W        W34584  16.503   1.729   4.673 -0.0907 -0.1770 -0.1779
18111W        W34585  17.415  12.740   4.627  0.0578 -0.1576 -0.1159
18112W        W34586  15.317   8.233   0.750  0.1045 -0.0411 -0.0516
18113W        W34587  15.181  15.393  16.305 -0.0923 -0.4121 -0.2605
18114W        W34588   4.605   5.326  12.567  0.0045  0.3772 -0.0549
18115W        W34589   8.507   8.598  12.034 -0.0406  0.0311 -0.2509
18116W        W34590  15.073  10.560  13.458  0.3354 -0.5774 -0.0851
18117W        W34591  13.199   6.976  11.423 -0.2459 -0.0059 -0.3057
18118W        W34592  15.454   8.936   4.863  0.2300  0.0744  0.0961
18119W        W34593   3.394   8.003  15.647  0.0122 -0.3563 -0.1594
18120W        W34594  11.832   0.165   0.723 -0.1479  0.0194 -0.0597
18121W        W34595   7.556  13.482  13.475  0.1512 -0.0005 -0.1562
18122W        W34596  16.640  13.659   0.544 -0.2340 -0.0438 -0.1219
18123W        W34597   5.864  18.007   2.886  0.2314 -0.1778 -0.0684
18124W        W34598   4.660   5.949  11.962  0.1884 -0.2073  0.0540
18125W        W34599   0.850   7.016   1.937 -0.1337  0.2278  0.2395
18126W        W34600  14.914  11.424  12.309  0.0982 -0.1777  0.2779
18127W        W34601   3.789  12.130   0.449 -0.2159 -0.2874 -0.4485
18128W        W34602  13.430  18.041   4.572  0.2571 -0.3487  0.1514
18129W        W34603   8.453   4.758   5.032  0.3766  0.1509  0.0303
18130W        W34604   3.297  14.168  11.266 -0.0573  0.0474 -0.0145
18131W        W34605  15.985   4.582  14.505 -0.0640  0.1385  0.1807
18132W        W34606   0.907   3.602  15.948 -0.0602 -0.0055  0.1634
18133W        W34607  10.316  16.886  12.007  0.1781  0.0469 -0.1042
18134W        W34608  11.743   5.361   4.653  0.0391  0.0551 -0.4821
18135W        W34609  11.279   8.863   2.428 -0.0853  0.1806 -0.3744
18136W        W34610  18.026  14.248   1.299 -0.0862 -0.0199  0.1612
18137W        W34611   1.772   6.832  15.864 -0.3626 -0.2019 -0.2033
18138W        W34612   2.609   3.314   5.308 -0.1981 -0.1845  0.1045
18139W        W34613  11.231   6.026  16.006 -0.2256 -0.1106  0.0847
18140W        W34614   6.498  10.919   2.498  0.1009  0.1141  0.1990
18141W        W34615  14.536   9.167   5.284  0.0433 -0.1883  0.2048
18142W        W34616   3.820   9.895   3.926  0.2129 -0.1982 -0.2467
18143W        W34617   9.818  17.904   0.934 -0.0752  0.0846  0.1453
18144W        W34618  14.536  11.505   2.379  0.0891 -0.1101 -0.0224
18145W        W34619   0.364  16.559  13.880 -0.5421  0.0497 -0.1554
18146W        W34620   2.429   0.894   3.880 -0.0928  0.1579  0.0803
18147W        W34621  14.496  11.298  15.819  0.1129 -0.2308  0.0175
18148W        W34622   5.555  14.114   1.608  0.0534  0.0686  0.1192
18149W        W34623   1.044  12.161   0.259  0.0755 -0.0927  0.1475
18150W        W34624  14.445   0.208  13.786  0.0752 -0.1798  0.1985
18151W        W34625  10.659   7.372   1.154  0.0358  0.0785 -0.1575
18152W        W34626   4.788   9.644  14.073  0.1824  0.0856  0.0680
18153W        W34627   9.130   1.634  15.689  0.1744  0.1237 -0.1104
18154W        W34628  17.987  12.396   4.267 -0.1595 -0.0140 -0.0558
18155W        W34629  14.430   3.112  15.374 -0.1476 -0.0449 -0.0755
18156W        W34630   2.591  15.205  13.619  0.0486  0.2051 -0.1262
18157W        W34631   5.331   1.467   3.239  0.0024 -0.0910 -0.0292
18158W        W34632   6.226   4.871  16.308  0.1818 -0.0650 -0.1268
18159W        W34633   9.779   7.409   4.175  0.1555  0.1690  0.0416
18160W        W34634   8.646  14.554   0.406 -0.1285  0.2089  0.2365
18161W        W34635   0.605   6.054   3.385  0.1433  0.1279 -0.1246
18162W        W34636  13.261  10.727   2.263  0.1143 -0.0563  0.0585
18163W        W34637   5.541   8.196  15.100 -0.0449  0.3311 -0.1210
18164W        W34638   2.974   3.976  12.497  0.3804  0.2622  0.0519
18165W        W34639  16.312   6.608  13.552  0.2680  0.2174 -0.0813
18166W        W34640  15.037   5.122   2.799 -0.0244 -0.1293 -0.1112
18167W        W34641   7.961  11.142  12.150  0.3418  0.0454 -0.1667
18168W        W34642   2.461  12.599  11.805  0.1268 -0.2057  0.1333
18169W        W34643  11.873  17.805   3.772  0.0369  0.0095  0.0791
18170W        W34644  10.569   4.041   3.670  0.1150  0.2630  0.0346
18171W        W34645   4.711  12.167   5.342 -0.0711  0.4053  0.2072
18172W        W34646   5.488  17.664   3.394  0.1189 -0.2235 -0.0014
18173W        W34647   1.305  14.174   2.211  0.0528 -0.1382 -0.2592
18174W        W34648   8.471  11.883  12.173  0.1827  0.2744  0.1622
18175W        W34649   5.231   3.074   0.898  0.1162  0.2381  0.0695
18176W        W34650   4.327   0.411   4.485  0.1481  0.0613  0.1350
18177W        W34651   2.489   3.182   1.212 -0.2073  0.0056  0.3055
18178W        W34652  15.912   9.509  15.558  0.0453 -0.0863  0.0737
18179W        W34653   8.415  16.233  12.004 -0.1145  0.1494  0.1970
18180W        W34654  12.447   9.587   3.667 -0.2925 -0.0860 -0.0592
18181W        W34655  11.201  11.934   4.755  0.5218 -0.0514  0.0603
18182W        W34656  14.222  10.096   3.846 -0.0705 -0.0758  0.2398
18183W        W34657  18.141  16.066  16.031  0.1522  0.0826  0.0272
18184W        W34658   6.689  17.033   1.443  0.2760  0.0079 -0.1463
18185W        W34659   6.162   3.294   3.191 -0.3265  0.1865  0.1477
18186W        W34660   9.949  17.976   5.682 -0.1767 -0.0173  0.0147
18187W        W34661  14.604   9.197   3.887  0.0645  0.1255  0.0349
18188W        W34662  16.122   4.489  15.025  0.0800 -0.0372 -0.0430
18189W        W34663   9.052  14.375  10.784 -0.1517 -0.0201  0.0729
18190W        W34664   9.232   1.511  13.613 -0.0696  0.3736  0.2069
18191W        W34665  12.269   0.599   5.362  0.1406 -0.1810 -0.0220
18192W        W34666  13.274  12.976  15.698  0.0916 -0.3084  0.1294
18193W        W34667  15.543  14.627  12.566  0.0525  0.1258  0.4190
18194W        W34668   1.278   5.946   0.268  0.1063  0.0771 -0.0433
18195W        W34669  15.292  14.695  13.645 -0.1163 -0.1134 -0.0175
18196W        W34670   7.630  12.586  15.717 -0.2615  0.0403 -0.2256
18197W        W34671  12.110   4.828  16.049 -0.2102 -0.3416 -0.0565
18198W        W34672   2.375   0.662  13.173 -0.0669  0.0878  0.0413
18199W        W34673  16.407   5.706  13.791 -0.1363 -0.0496 -0.1531
18200W        W34674   2.220   6.841   4.368 -0.2611  0.2416  0.2860
18201W        W34675   6.656  10.552   0.676  0.1671 -0.0145  0.0899
18202W        W34676  16.031  14.633   6.016 -0.0975 -0.1108  0.2751
18203W        W34677  15.760  16.235   3.691  0.0375 -0.0497  0.0455
18204W        W34678   3.238   2.947   1.813 -0.4585  0.1606 -0.2985
18205W        W34679   1.119   0.303  11.834 -0.1718  0.1106  0.0812
18206W        W34680   2.000   4.863   3.247 -0.0431  0.1954 -0.0592
18207W        W34681   6.554   8.448   2.141 -0.0819  0.0599  0.1508
18208W        W34682  15.236  13.185  11.449 -0.0977 -0.2565 -0.3331
18209W        W34683  11.013   2.599  12.191 -0.0657  0.0959 -0.0427
18210W        W34684   4.972   1.947  14.768 -0.1810 -0.2121 -0.3671
18211W        W34685   1.356   4.928  15.113  0.0467  0.2076  0.0603
18212W        W34686   5.686  15.977  10.422  0.1928  0.0014 -0.0467
18213W        W34687  12.507   8.372  13.878 -0.1670  0.1401 -0.0361
18214W        W34688  13.253  16.766   1.418  0.3494 -0.2526 -0.0632
18215W        W34689   7.081   4.812   3.646  0.0835  0.0869 -0.2052
18216W        W34690  16.676  11.113   4.761 -0.0627 -0.2697  0.1853
18217W        W34691  14.619  11.558  16.206 -0.0030 -0.1573  0.0211
18218W        W34692  10.107  11.603  14.891  0.0863 -0.0515 -0.2979
18219W        W34693   1.589   4.123   2.949 -0.1650 -0.2854  0.3798
18220W        W34694  14.738   3.312  13.319  0.0771  0.1828 -0.0500
18221W        W34695   8.405  17.237  15.907 -0.0134  0.1538 -0.1377
18222W        W34696   5.519   7.215  16.329  0.0653  0.3065  0.3099
18223W        W34697   2.857  15.006   3.748 -0.0186 -0.2947 -0.0428
18224W        W34698   4.125   8.253   0.752  0.0880 -0.0494 -0.2065
18225W        W34699  10.899   7.966  16.358  0.1087 -0.2565 -0.1948
18226W        W34700  17.069   0.876   4.235 -0.0750  0.3168 -0.0733
18227W        W34701   8.822   6.632  13.348 -0.2079 -0.3266  0.2131
18228W        W34702   0.546  11.868  11.996 -0.1087  0.0098  0.1907
18229W        W34703   1.722   0.342   3.164  0.2048  0.0290  0.0179
18230W        W34704   7.343   0.515  14.667 -0.2062 -0.1547  0.1078
18231W        W34705   1.327  10.759   1.225 -0.0469  0.1607 -0.1961
18232W        W34706   0.485   9.245   0.493  0.1668  0.0670 -0.0465
18233W        W34707   3.846   8.321   6.155  0.1542 -0.0338  0.1670
18234W        W34708   3.212   5.059   2.752 -0.0601 -0.0816 -0.1778
18235W        W34709  17.701  12.979   3.796  0.2709 -0.0390  0.0431
18236W        W34710  15.273  17.843  11.562 -0.0506  0.0301  0.2950
18237W        W34711  14.731  10.099   0.159 -0.1988 -0.0531  0.0015
18238W        W34712  13.784  13.732  10.626  0.0614 -0.0489 -0.0886
18239W        W34713   8.483  12.641   2.935 -0.0830 -0.0113 -0.0406
18240W        W34714   2.962  17.193   3.391  0.1819 -0.1094  0.0088
18241W        W34715   5.464  13.067   2.971 -0.0961  0.4203 -0.1364
18242W        W34716  12.997   1.609  15.284  0.0057  0.1022  0.0887
18243W        W34717   5.142   9.848   4.120 -0.0056 -0.0754  0.0919
18244W        W34718   0.361  17.316  16.338  0.0566 -0.1647  0.2474
18245W        W34719   2.450  14.765   2.813 -0.1673  0.3267  0.1912
18246W        W34720   2.432  16.156   1.823  0.2072  0.3690  0.1945
18247W        W34721   7.545   7.903  14.633  0.0291  0.0202 -0.1556
18248W        W34722  18.065   8.833   2.622 -0.1227  0.0439 -0.3918
18249W        W34723   8.556  10.689  15.019 -0.0400 -0.0673  0.0256
18250W        W34724   8.517  16.396  15.350  0.0880 -0.1997 -0.1819
18251W        W34725  17.506   5.719  12.837 -0.1146  0.1023  0.0762
18252W        W34726   5.323   8.985  15.742  0.0462  0.0624 -0.1191
18253W        W34727   4.775   9.845   0.573  0.0719  0.0439  0.1483
18254W        W34728   6.852   0.680   1.494  0.1091  0.0309 -0.0453
18255W        W34729   4.358   2.437  15.503  0.0727  0.1485 -0.2291
18256W        W34730  17.118   8.990   0.817  0.1455 -0.0036 -0.1742
18257W        W34731   3.847   1.784   4.737  0.0443  0.1856 -0.1871
18258W        W34732   0.670  11.770  14.237  0.1548 -0.0699 -0.1466
18259W        W34733  10.797   6.335   0.365  0.0211 -0.1191 -0.0931
18260W        W34734   5.182   2.446   3.955  0.1004 -0.1218 -0.2183
18261W        W34735   6.943   8.404   1.672  0.1083  0.0930 -0.2152
18262W        W34736   4.568   4.025   2.069  0.1246 -0.1095  0.1265
18263W        W34737   0.757   2.172  15.792 -0.0433 -0.1648  0.1074
18264W        W34738   7.931   1.760  12.534  0.2175  0.1453  0.1547
18265W        W34739  14.279  16.893  15.690 -0.3181  0.0612 -0.0135
18266W        W34740   6.718   8.605   3.089  0.0387  0.1258  0.0851
18267W        W34741   9.780  13.298  14.214 -0.0566  0.0336 -0.2275
18268W        W34742   5.616  15.421   0.546 -0.0093  0.0271 -0.1215
18269W        W34743   0.986   0.246   3.582 -0.1077 -0.2863  0.2460
18270W        W34744   3.004   1.953   1.329  0.2418 -0.0405 -0.0679
18271W        W34745  14.111   3.628  14.028 -0.0367  0.1742 -0.0899
18272W        W34746  13.748  15.565   6.131  0.0355  0.0194 -0.2258
18273W        W34747   4.068  17.326  12.567 -0.1257  0.1312  0.3128
18274W        W34748   8.182   1.409   3.609  0.1274 -0.1839 -0.0191
18275W        W34749   5.513   5.673  15.157 -0.1916 -0.2908 -0.0692
18276W        W34750   6.038  13.402  13.521  0.0337  0.1115  0.3957
18277W        W34751  16.631  16.643   2.798 -0.1703 -0.0120  0.4291
18278W        W34752  12.375  17.319  13.110 -0.0298 -0.2241 -0.0666
18279W        W34753   2.757  12.334   1.988 -0.0673 -0.1135  0.0506
18280W        W34754   6.149  11.082  14.898 -0.4750 -0.0058  0.0484
18281W        W34755   6.046   7.208   0.292  0.0065  0.1337 -0.3060
18282W        W34756  16.132  13.889  11.821  0.0067 -0.0749 -0.0338
18283W        W34757   9.042   6.718   0.666  0.0019  0.0472  0.0693
18284W        W34758   7.291  12.508   5.048  0.0092 -0.1156 -0.1516
18285W        W34759  14.189   7.379   5.086  0.3996 -0.2338  0.0148
18286W        W34760  14.222   9.309  15.372 -0.0427  0.1093 -0.1905
18287W        W34761   3.625   0.552   2.276 -0.1599 -0.0576 -0.2298
18288W        W34762   9.457  12.066  12.764  0.1587 -0.0820 -0.0577
18289W        W34763  16.015  11.125   1.279 -0.0817 -0.1755 -0.3201
18290W        W34764   8.020   0.959  13.176  0.2259  0.0311 -0.1482
18291W        W34765   6.691   1.684  12.815  0.3762  0.1802  0.1393
18292W        W34766  13.378  17.720  14.411  0.0855  0.0628  0.3605
18293W        W34767   6.707   1.646  14.165 -0.1770 -0.1908  0.3608
18294W        W34768   6.043   6.227   5.575 -0.1393  0.0973 -0.0266
18295W        W34769   6.033   4.214  15.738  0.2709 -0.0423  0.1292
18296W        W34770  10.328   3.963   5.018 -0.0531  0.0761  0.0544
18297W        W34771  10.718  11.177  14.012  0.1313  0.0762  0.0105
18298W        W34772  17.593  14.450  13.014  0.0972 -0.2403  0.0121
18299W        W34773   4.234   2.887   2.669 -0.2359  0.2016  0.0514
18300W        W34774   7.551  15.984  11.806  0.3037 -0.2148  0.0470
18301W        W34775  10.115  14.625   2.250 -0.1962 -0.2118 -0.0697
18302W        W34776   8.098  10.242   5.842 -0.0540  0.0980 -0.0241
18303W        W34777   9.287   5.040  15.348  0.2186  0.0763  0.0591
18304W        W34778  10.683   3.465  11.653 -0.2541 -0.1723 -0.2846
18305W        W34779  15.851   9.352   3.664  0.2031  0.1699  0.0040
18306W        W34780   1.480   7.667  15.257  0.5284 -0.1571 -0.3148
18307W        W34781   1.181  14.059  13.939 -0.0300 -0.0246 -0.3082
18308W        W34782   4.710   3.513  16.116 -0.0686 -0.3157  0.0370
18309W        W34783   1.786   3.823   4.279  0.3784  0.1029 -0.0235
18310W        W34784   9.817   2.951  14.021  0.1258 -0.2894  0.1536
18311W        W34785   7.855  17.984   5.982  0.0968  0.1069 -0.0802
18312W        W34786   4.513  10.617   2.748 -0.1551  0.1208  0.1670
18313W        W34787  12.462   9.457   1.908  0.0223 -0.1766  0.1794
18314W        W34788   2.796   8.992   5.865  0.0937  0.0757 -0.1640
18315W        W34789   0.129  10.765   0.410  0.0171  0.2552 -0.0593
18316W        W34790   8.177   7.822   1.268  0.2637 -0.0025  0.0699
18317W        W34791   3.459  13.021  12.986  0.2666 -0.1953  0.0138
18318W        W34792  14.100   0.660   1.874 -0.1047  0.0091  0.1811
18319W        W34793   6.847  11.518   0.177 -0.0514 -0.3029  0.1619
18320W        W34794   7.480  15.706  15.817  0.1923 -0.2142 -0.0991
18321W        W34795  12.761  12.708   3.178  0.0538  0.3262 -0.1257
18322W        W34796   6.121   7.348  13.207 -0.3768 -0.0623  0.0858
18323W        W34797   3.381  11.685  12.302  0.1284  0.2204  0.0527
18324W        W34798   2.853   1.041  13.740 -0.2490 -0.3282 -0.3958
18325W        W34799  16.988  13.742   0.865 -0.1072 -0.5406 -0.4750
18326W        W34800   5.336  10.175   5.207 -0.3630 -0.0120  0.0583
18327W        W34801   1.882   0.340  12.346  0.2369  0.0111 -0.0518
18328W        W34802   5.449  17.193   0.752  0.0483  0.2580  0.0481
18329W        W34803   0.734   5.496   2.063  0.0304  0.1012 -0.0488
18330W        W34804  16.047   1.835   2.455  0.3297  0.1102 -0.2283
18331W        W34805  11.673   9.705  12.960 -0.1925 -0.2035  0.2160
18332W        W34806  12.718  18.160   4.313  0.4044  0.3921 -0.0644
18333W        W34807  13.076  11.227  15.999 -0.2053  0.0399  0.0225
18334W        W34808  14.984  12.759  11.095 -0.2032 -0.0311 -0.0094
18335W        W34809   7.837   1.514   5.633 -0.0643 -0.1009 -0.1874
18336W        W34810   5.595  17.645  12.602  0.2524  0.0850  0.0135
18337W        W34811  15.294  17.610   3.209 -0.1891 -0.0062  0.2221
18338W        W34812   0.946  12.346   4.489  0.1931 -0.1069 -0.0215
18339W        W34813   9.711  10.999   2.157  0.1732  0.1286  0.4032
18340W        W34814   5.206   2.004   5.481  0.1645  0.2097  0.1465
18341W        W34815  14.506   0.429  15.904 -0.2691  0.0396 -0.0012
18342W        W34816  12.971   4.054  13.333  0.1844  0.0650  0.1602
18343W        W34817  11.540   6.358  15.050  0.1196 -0.1905  0.1153
18344W        W34818   0.667  16.046   0.315  0.0353  0.1325 -0.1417
18345W        W34819  16.531   4.150  15.937  0.0178 -0.1121  0.3159
18346W        W34820   1.039   7.628   0.289 -0.2270  0.1868  0.2964
18347W        W34821  12.638  11.175  10.723 -0.1319  0.0735 -0.0018
18348W        W34822   4.842  10.511   5.811 -0.0489  0.4785 -0.0900
18349W        W34823  12.270  11.046   5.517 -0.2334 -0.3382 -0.0449
18350W        W34824   5.499  12.060  13.529  0.0081  0.2355 -0.1617
18351W        W34825  16.079  13.995   1.006 -0.2529 -0.0309  0.1290
18352W        W34826  11.425  12.215   1.701  0.1849 -0.0661  0.0232
18353W        W34827  14.277   8.996   5.706 -0.1941 -0.0162  0.2002
18354W        W34828  12.399   3.805   2.719  0.0702  0.0775 -0.2156
18355W        W34829   9.145  11.688   1.130 -0.0308 -0.1604  0.0403
18356W        W34830   7.379   3.308  12.281  0.0979 -0.1307  0.0056
18357W        W34831   6.240   8.176   4.062  0.1471 -0.3248  0.2008
18358W        W34832   7.809   4.467   4.007  0.0562  0.0404  0.3953
18359W        W34833   1.757  14.882  14.115 -0.1585 -0.1858 -0.3644
18360W        W34834  13.605  16.564   0.999  0.2772 -0.0642  0.0701
18361W        W34835  13.764  15.578   4.437 -0.0584  0.0352 -0.1752
18362W        W34836   1.688   8.386  14.835 -0.0892 -0.0065 -0.2379
18363W        W34837   4.124   3.407   3.680  0.0376 -0.0813  0.0186
18364W        W34838   6.321  11.576   0.886  0.0796 -0.3969  0.0541
18365W        W34839  10.569   5.865  15.391  0.1602 -0.1319 -0.2459
18366W        W34840   4.198   2.192   1.966  0.0186  0.2791  0.0027
18367W        W34841  11.010   2.320  14.516 -0.3253 -0.1447 -0.2921
18368W        W34842   9.163  17.832  12.342 -0.5356  0.1094  0.0439
18369W        W34843   9.488  15.308   3.443 -0.0177  0.0009 -0.0366
18370W        W34844  15.484  12.419  15.482 -0.2047  0.2332 -0.2251
18371W        W34845   9.988  17.173   3.044  0.3077  0.1367  0.0263
18372W        W34846  11.272   7.012   4.975 -0.1118 -0.0587  0.0465
18373W        W34847   5.501  12.586  15.908  0.5117  0.1920 -0.0229
18374W        W34848   3.796   2.941   0.577 -0.0985 -0.2483  0.2026
18375W        W34849   3.305   7.964   4.866  0.0183 -0.2610 -0.0488
18376W        W34850  17.358  10.777   3.957  0.0022  0.3387  0.0828
18377W        W34851   1.369  15.769   1.712 -0.2167  0.1745 -0.0341
18378W        W34852   8.422   0.099  11.719  0.0210  0.0624  0.0456
18379W        W34853  10.118   0.744  15.375 -0.0523  0.0487 -0.2100
18380W        W34854   7.456   8.460  11.030  0.1020 -0.0832 -0.1297
18381W        W34855  12.149   6.753   2.298  0.1930 -0.0777 -0.3635
18382W        W34856   8.432   8.671   2.269  0.1267 -0.2238  0.1723
18383W        W34857   2.242  10.499   3.361  0.2944  0.1414 -0.0406
18384W        W34858  10.769   3.272   1.671 -0.0767 -0.3136 -0.0145
18385W        W34859   7.807  10.027   2.669 -0.2201  0.1632  0.1372
18386W        W34860   8.750   7.849  12.700  0.0056 -0.0338 -0.2396
18387W        W34861  11.030  11.067  13.626  0.1548  0.2188 -0.1313
18388W        W34862   8.023   9.427   2.782  0.1268 -0.1831  0.2202
18389W        W34863  10.107   9.563   1.337 -0.3215 -0.1126 -0.2436
18390W        W34864   4.429   0.519   2.808  0.3846 -0.0251  0.3226
18391W        W34865   7.341   1.122   3.606 -0.0848 -0.1590  0.1954
18392W        W34866   5.050  14.277  11.918 -0.0155 -0.1484  0.2053
18393W        W34867   9.659  17.705   3.923  0.3769  0.3284 -0.0497
18394W        W34868   3.424  15.354  16.276  0.0311  0.1010 -0.1696
18395W        W34869   9.262   1.789   0.761 -0.1626  0.3720  0.0568
18396W        W34870   3.659  16.119  15.923 -0.1059 -0.2597 -0.1255
18397W        W34871   1.346  10.518   5.557  0.2163  0.1759 -0.0883
18398W        W34872  13.995   3.971  14.762  0.1527 -0.4159 -0.1507
18399W        W34873  18.172  12.965  13.975 -0.0360 -0.1333 -0.2836
18400W        W34874  13.517  12.286   0.697 -0.1254 -0.1152  0.0502
18401W        W34875   9.446  13.812   0.544  0.0881 -0.0121 -0.2778
18402W        W34876  15.197   6.209  11.553  0.2821 -0.0900  0.1027
18403W        W34877  14.287   1.601  11.807 -0.2236 -0.0140  0.1534
18404W        W34878   2.708   1.085  10.684  0.0418 -0.4705  0.2085
18405W        W34879   5.599  14.394   3.851 -0.1602  0.0554  0.0282
18406W        W34880   2.229   1.852   4.231  0.1761  0.1111 -0.0552
18407W        W34881   2.168   8.415  12.027 -0.1786  0.0547 -0.0278
18408W        W34882  10.440  15.170  11.582 -0.1211 -0.1446  0.1643
18409W        W34883  17.642   9.766  12.115 -0.1191 -0.1338 -0.1973
18410W        W34884   8.302  11.971  14.872  0.0248  0.1037  0.2719
18411W        W34885   5.661  14.620  15.652 -0.0575  0.2919  0.0946
18412W        W34886  12.142   0.499  14.376  0.2045  0.1127  0.2763
18413W        W34887  10.991  14.775  15.899 -0.0579  0.1063  0.3076
18414W        W34888  13.435  17.391   6.140  0.4113  0.0348 -0.1260
18415W        W34889   4.669  16.210   0.445  0.1159 -0.2685 -0.2719
18416W        W34890  16.981   2.844  11.857  0.1124 -0.2166 -0.2194
18417W        W34891   9.020   4.685   5.027 -0.1179 -0.1474  0.0448
18418W        W34892   2.577  11.876  13.080 -0.2448 -0.0705 -0.1686
18419W        W34893  11.581  15.387   3.800 -0.5211  0.0017  0.0811
18420W        W34894  13.189  12.451  12.313 -0.2036  0.2173 -0.0160
18421W        W34895  16.379  13.173   1.018  0.0054  0.2927  0.1089
18422W        W34896  15.614  13.964   1.253  0.2781 -0.0326 -0.1546
18423W        W34897   2.512  11.711   3.190  0.2391  0.1005  0.2889
18424W        W34898   5.278  11.459  10.165 -0.0592 -0.1447 -0.1580
18425W        W34899  15.488   1.786   5.027  0.0462 -0.0112 -0.0197
18426W        W34900   5.317  13.017   4.641 -0.0101 -0.0019  0.1323
18427W        W34901  16.738   2.429  13.511 -0.3026 -0.2081 -0.0973
18428W        W34902   9.073   8.612   5.006 -0.3091 -0.0941 -0.1515
18429W        W34903  16.760  17.900  10.561  0.1713 -0.1076 -0.0580
18430W        W34904   2.812   5.810   4.269  0.1209 -0.1544  0.2087
18431W        W34905  10.360   7.396  14.470  0.1349  0.2373  0.2583
18432W        W34906  18.074  13.346   1.697  0.1127  0.1339 -0.1438
18433W        W34907  17.479   7.962  10.736 -0.1287  0.2245 -0.2233
18434W        W34908   7.946   4.319   0.715 -0.0266  0.0574 -0.0221
18435W        W34909  13.856   0.819  11.953 -0.1677 -0.0868  0.1355
18436W        W34910   1.963  17.907   3.906 -0.1597  0.2807 -0.1511
18437W        W34911  12.492  10.497  12.897  0.1724  0.2744  0.0313
18438W        W34912  11.651  14.382  11.499 -0.1441 -0.0206 -0.2373
18439W        W34913   5.822  15.219  14.143 -0.1356 -0.0637 -0.1188
18440W        W34914   3.465   7.519  16.050  0.0992 -0.2962  0.1462
18441W        W34915  17.046   4.100  15.380 -0.2533 -0.2128  0.2309
18442W        W34916  16.789   6.272   3.702 -0.1723 -0.2879 -0.3461
18443W        W34917   9.631  16.531   0.996 -0.3453 -0.1955 -0.0460
18444W        W34918  17.934   1.780  12.976 -0.0618 -0.1343 -0.2478
18445W        W34919  10.224   1.739  16.237  0.0045  0.1656 -0.0489
18446W        W34920  16.611  14.419  13.949 -0.1906 -0.1710  0.2123
18447W        W34921   8.009   1.827  13.416  0.0201  0.2777  0.1800
18448W        W34922   6.861   6.122   2.095  0.0819 -0.2540  0.0229
18449W        W34923  12.579   2.622  13.824 -0.1091 -0.0755  0.0356
18450W        W34924   3.947  16.240   1.334  0.0662  0.4057 -0.0315
18451W        W34925  13.896   3.477  12.578  0.0158  0.1683  0.2011
18452W        W34926   4.003  17.615   3.300  0.0770 -0.0336 -0.0031
18453W        W34927   6.409  15.096   5.460 -0.0476  0.1858 -0.1080
18454W        W34928   6.038   5.868   3.322  0.0101 -0.0401  0.0183
18455W        W34929   9.645   9.291   4.881  0.0625 -0.3177 -0.0264
18456W        W34930  14.506   1.262   2.737  0.1223 -0.1909 -0.0907
18457W        W34931   8.988   3.442  12.703 -0.4063 -0.2507 -0.2488
18458W        W34932   2.255   4.504  14.547 -0.0740 -0.0749  0.0076
18459W        W34933   2.871  15.117   2.875 -0.0541 -0.0665  0.1135
18460W        W34934   1.300   8.658  11.145  0.0780 -0.0211  0.1938
18461W        W34935  15.597  14.941  11.437  0.2699  0.0530  0.0546
18462W        W34936   9.759   0.857   3.041  0.3548 -0.0793  0.2155
18463W        W34937   8.965  10.902  12.277 -0.0241 -0.0675 -0.0837
18464W        W34938   4.521   2.825  15.866  0.0201  0.1599 -0.1156
18465W        W34939   3.279  15.905  11.988  0.1042 -0.0512  0.1672
18466W        W34940   4.634   7.272   1.100  0.0218  0.1173  0.3862
18467W        W34941   0.271   1.247   0.372  0.0753  0.1904 -0.2315
18468W        W34942   2.851   8.664   2.846  0.2261  0.1057  0.1900
18469W        W34943  17.714   8.208  13.161  0.0950 -0.0954 -0.1129
18470W        W34944  10.482  15.619  11.126  0.1737 -0.0950  0.2191
18471W        W34945  15.904   8.386  13.498 -0.2465 -0.0816  0.0993
18472W        W34946   2.291   1.401  13.595 -0.1125 -0.2019  0.2657
18473W        W34947   1.415  17.693   4.643  0.0025  0.1892  0.2729
18474W        W34948   0.375  14.225  14.738 -0.0460  0.1981 -0.2493
18475W        W34949  11.790   5.416   0.383  0.1744  0.2634  0.0760
18476W        W34950   7.812   8.003   4.643  0.2045 -0.1239  0.1120
18477W        W34951   7.756   9.382  14.202 -0.0027 -0.1787 -0.0495
18478W        W34952  10.805   7.340   1.921  0.0353 -0.1724 -0.0188
18479W        W34953   8.610  17.401   0.683  0.2437 -0.2246  0.0993
18480W        W34954  12.708   4.551  14.887 -0.0018  0.0423 -0.1160
18481W        W34955   0.520   4.604  11.313  0.1099  0.1499 -0.1119
18482W        W34956   2.655  12.869   5.418  0.2784 -0.3053 -0.0900
18483W        W34957  12.692   5.419  15.231 -0.1456  0.0373 -0.1640
18484W        W34958   3.624  13.691  14.638 -0.2280 -0.0045 -0.0281
18485W        W34959   2.083  18.016   2.932  0.1964  0.3550 -0.2087
18486W        W34960  17.153   5.293   4.442  0.2168 -0.0427 -0.2382
18487W        W34961   2.350   5.136  12.267  0.1584 -0.2707  0.0142
18488W        W34962  13.160   5.518   0.473  0.0828 -0.0579 -0.3294
18489W        W34963   9.330   7.327   1.935  0.3156  0.0242 -0.1278
18490W        W34964  10.818   8.954  11.171  0.0866  0.0668  0.0135
18491W        W34965   5.891   2.268   4.719 -0.2135 -0.2026  0.2093
18492W        W34966   3.050  14.973  14.346  0.1984 -0.2124  0.1216
18493W        W34967   3.946   5.455  15.690  0.0346  0.0276  0.0981
18494W        W34968   7.709   7.961   1.951 -0.4313  0.0652  0.1052
18495W        W34969   7.199   0.627   0.184  0.3665  0.0493  0.0148
18496W        W34970  10.377  14.869   5.390 -0.1599 -0.0747  0.3910
18497W        W34971   7.942   2.455   4.428 -0.0098  0.2763 -0.0874
18498W        W34972   3.160   1.421  15.166  0.2378 -0.0450 -0.0034
18499W        W34973   7.877  16.328  11.783  0.0380  0.0677  0.0414
18500W        W34974   6.338   0.222   3.334  0.0700  0.0368 -0.0109
18501W        W34975   4.396   1.097  11.441  0.1132  0.0000 -0.2432
18502W        W34976   9.274  17.817   1.880 -0.1921  0.2104  0.0367
18503W        W34977  13.871   7.076  15.503 -0.0896 -0.0852 -0.0423
18504W        W34978   7.354  15.301   4.130  0.0533  0.3040  0.0810
18505W        W34979   8.992   4.709   0.106 -0.0826  0.0370 -0.1193
18506W        W34980   9.959   2.056  13.509 -0.1496  0.0455  0.0537
18507W        W34981  11.904   3.187   5.586 -0.1564 -0.3300  0.2672
18508W        W34982   9.272   8.919   1.528  0.0777  0.1528 -0.1104
18509W        W34983   2.092  12.679   0.939  0.1643 -0.0159  0.2739
18510W        W34984  17.737   6.377  11.350  0.0560  0.0327  0.1166
18511W        W34985  18.047   8.000  14.559  0.1717  0.2369  0.2950
18512W        W34986   1.821   3.988   0.105  0.0537  0.1511  0.1542
18513W        W34987   9.048   9.187  12.124 -0.0836  0.0456 -0.2586
18514W        W34988  12.556  13.182  12.097 -0.3124  0.0215 -0.0254
18515W        W34989  14.482   8.845   0.397  0.1391 -0.2176  0.0198
18516W        W34990   4.482   9.511  11.317  0.0058 -0.1608 -0.3079
18517W        W34991   1.871  12.456   0.267 -0.0876  0.0943  0.0230
18518W        W34992  15.685   6.114   6.247 -0.1457  0.0787  0.2345
18519W        W34993   0.654  11.540   2.822  0.0683 -0.1156 -0.2532
18520W        W34994  14.223  14.121  15.875  0.1043 -0.1072  0.0968
18521W        W34995  16.793   3.661   2.590  0.1327 -0.1508 -0.1081
18522W        W34996  14.708   7.740   2.608 -0.1687  0.1047 -0.2574
18523W        W34997   3.589  13.185   1.132  0.1452 -0.1161  0.1187
18524W        W34998  15.256  17.757  13.962  0.0667 -0.3780 -0.1482
18525W        W34999  12.207   1.571  10.611  0.1116  0.0227 -0.2186
18526W        W35000  17.016  13.445   5.084 -0.1606  0.1580 -0.0387
18527W        W35001   0.254  10.674  13.420 -0.0118  0.0701 -0.2695
18528W        W35002   0.004  16.202  13.871  0.1233 -0.1919  0.0216
18529W        W35003   2.706  14.440   5.032  0.0877  0.0175  0.0102
18530W        W35004  15.579   0.999   3.427 -0.2689 -0.2707  0.1578
18531W        W35005  15.091   3.390  16.242 -0.0296  0.0311  0.1283
18532W        W35006   1.722  11.460  13.472 -0.1192 -0.0921  0.1013
18533W        W35007   7.949   2.001  12.072  0.0891 -0.2002 -0.1873
18534W        W35008   6.220  12.976   4.638 -0.2673  0.2933 -0.0074
18535W        W35009  15.967  17.909   0.527  0.5083 -0.2290 -0.0250
18536W        W35010  11.782  17.130   2.632 -0.1740  0.0642 -0.0104
18537W        W35011  16.939   8.050   4.239  0.1494 -0.0630 -0.0012
18538W        W35012   2.052   3.027   4.208  0.0077  0.2474 -0.0509
18539W        W35013  14.114   7.991   4.458 -0.1504  0.1516  0.3191
18540W        W35014   0.260   7.799   5.754  0.1769  0.3639  0.2768
18541W        W35015  12.841  10.950  16.368  0.0459  0.1491  0.2242
18542W        W35016  11.463  13.082  12.788 -0.0335  0.0486 -0.1222
18543W        W35017   3.154   6.012   2.811  0.1797  0.1316 -0.2129
18544W        W35018   1.096   9.330  15.966 -0.0844  0.1215  0.0645
18545W        W35019  12.784   2.567   5.204 -0.2924 -0.1584 -0.0651
18546W        W35020   2.293  15.707   2.531  0.0302 -0.0237  0.0080
18547W        W35021   3.618   7.938   4.412  0.0712 -0.1429 -0.1142
18548W        W35022  14.585   8.123   4.777  0.1215  0.0372 -0.1223
18549W        W35023   9.967   8.198  13.610  0.0174 -0.3304 -0.1260
18550W        W35024  17.974   0.607   4.543  0.0869 -0.1780 -0.1471
18551W        W35025  15.671  16.473   3.221 -0.0912  0.0732 -0.2195
18552W        W35026  17.839  17.810  13.812  0.0114 -0.2169  0.0419
18553W        W35027   5.681   2.602   3.948 -0.1348  0.1566  0.2204
18554W        W35028   0.090   9.423   4.757 -0.0730  0.1302  0.0041
18555W        W35029   9.811   9.173   5.381  0.1861  0.1912 -0.0861
18556W        W35030   4.080  14.814   4.550 -0.1134 -0.0491  0.2361
18557W        W35031  17.071  10.916  14.908 -0.0555  0.0709 -0.1754
18558W        W35032  12.780   3.344  14.324  0.0864 -0.2388  0.3060
18559W        W35033  12.884   4.877  15.275  0.1293 -0.1520 -0.1100
18560W        W35034   3.696   4.152   1.944  0.0154 -0.1435 -0.1942
18561W        W35035   1.692  11.929  13.170 -0.2527  0.2185 -0.1003
18562W        W35036  14.401  12.622  16.262  0.3523 -0.0068  0.2178
18563W        W35037   0.689   0.028   6.205 -0.1626 -0.1350 -0.4112
18564W        W35038  18.091   5.995  14.724  0.0019 -0.1852  0.3008
18565W        W35039   7.748   7.064   3.732  0.2978 -0.2455 -0.1714
18566W        W35040  11.299  15.424   1.879  0.0271 -0.0731 -0.1972
18567W        W35041   5.067  10.105   3.223 -0.1794 -0.0322  0.0772
18568W        W35042   2.811  14.726   3.254 -0.0104  0.0853  0.1615
18569W        W35043   8.055  12.607  11.773  0.0469  0.1499  0.1858
18570W        W35044  10.846   7.861   3.526  0.2450  0.2068 -0.0551
18571W        W35045  15.848   0.446   3.994  0.1534  0.1151 -0.2379
18572W        W35046   6.372   8.762  14.648  0.2411  0.0611  0.0498
18573W        W35047   4.160  16.908  15.174  0.1191 -0.0395  0.1739
18574W        W35048  11.408   8.649   5.963 -0.2125 -0.4204  0.0089
18575W        W35049  17.727  11.588   4.183 -0.1849 -0.0748 -0.2480
18576W        W35050   5.247   2.244   6.403  0.1261 -0.1005 -0.3007
18577W        W35051  16.821   1.411   3.257 -0.0495 -0.0396  0.1466
18578W        W35052  14.624   8.704   1.301 -0.3531  0.1642 -0.0663
18579W        W35053   7.794   3.399  12.604 -0.3148  0.1412  0.0762
18580W        W35054   4.990   2.934  13.864 -0.0131  0.0260 -0.3804
18581W        W35055  12.220   2.937  13.686  0.0953  0.1467 -0.0240
18582W        W35056  17.213   1.610  13.833  0.0134 -0.1741  0.0752
18583W        W35057  17.384   0.261  16.086 -0.4085  0.0172  0.0049
18584W        W35058   3.216   2.260   2.127 -0.3013  0.1257  0.1266
18585W        W35059  14.331  11.594   0.306 -0.1539  0.0321 -0.1099
18586W        W35060   8.256  10.270  13.749  0.1887  0.3611  0.2753
18587W        W35061   3.561   3.834   3.083 -0.4226 -0.1190 -0.2557
18588W        W35062  10.811  14.223   2.536  0.0801  0.0827  0.2484
18589W        W35063  16.051  10.339  13.374  0.0343 -0.1922 -0.2332
18590W        W35064  16.523   1.068  11.621  0.4051 -0.3026  0.2507
18591W        W35065  14.809  11.237   4.643 -0.3955  0.2559 -0.2483
18592W        W35066   2.787   5.056   4.732 -0.1830  0.0491 -0.1296
18593W        W35067   9.244   3.206   1.346 -0.0697  0.0173  0.1417
18594W        W35068   9.823   1.573   1.767  0.3301 -0.1976 -0.1878
18595W        W35069   0.209  14.845  16.266  0.1754 -0.0018  0.0642
18596W        W35070  17.542  12.311  12.365  0.0093  0.0791 -0.1506
18597W        W35071  17.182  11.586  12.844  0.1054  0.0087 -0.1752
18598W        W35072  11.367  12.490  12.722  0.2291 -0.1298 -0.2511
18599W        W35073   0.436  10.357   0.420 -0.2683  0.3361 -0.0401
18600W        W35074   8.336   0.810   2.268  0.1851 -0.0180 -0.0811
18601W        W35075  17.324   1.031   6.161 -0.2324  0.0027 -0.0795
18602W        W35076   1.582   9.626   5.242  0.2709 -0.1416 -0.0326
18603W        W35077   7.980  17.631   2.881 -0.0591 -0.0770  0.1957
18604W        W35078  17.386  13.070  15.397  0.2045 -0.3244  0.2783
18605W        W35079  14.359   8.307   0.416  0.1879  0.0340 -0.3105
18606W        W35080  14.157  17.344   3.475  0.1065  0.0958  0.1118
18607W        W35081  12.734  16.898   4.923  0.1992 -0.0431  0.0040
18608W        W35082   6.007  17.884  15.620  0.3672  0.0413 -0.0243
18609W        W35083  10.993  14.959   0.896  0.3259  0.1103  0.0692
18610W        W35084  15.102   1.722  11.684 -0.1606  0.0681  0.0383
18611W        W35085   7.521   1.560  15.479  0.1670  0.2303  0.3408
18612W        W35086   7.233   9.132  15.592  0.2958  0.0379  0.0373
18613W        W35087   0.196  13.688  13.761 -0.1117 -0.0085  0.3903
18614W        W35088   6.778   3.287   4.650 -0.4096 -0.1277 -0.1142
18615W        W35089   8.161   3.881   5.598  0.1516 -0.1222  0.1899
18616W        W35090  11.711  14.171   2.392  0.1782 -0.1976  0.1155
18617W        W35091  16.392   5.757   4.119  0.2267 -0.1565 -0.0225
18618W        W35092  14.236   0.841   4.763 -0.2275  0.1485 -0.2159
18619W        W35093   6.541   9.436  12.634  0.0572 -0.0649 -0.1460
18620W        W35094   8.491  17.451   4.543  0.1236 -0.0892  0.0928
18621W        W35095   3.196   4.147  11.579 -0.0019 -0.1354 -0.1888
18622W        W35096   9.660   1.245   0.822  0.4805 -0.0119 -0.1644
18623W        W35097   0.363  12.637  13.750 -0.4171 -0.4862  0.1796
18624W        W35098   4.832   1.791   5.763 -0.1149  0.3639 -0.1794
18625W        W35099   7.405   2.296   1.303 -0.1507 -0.1321 -0.1003
18626W        W35100  11.354  14.157  13.227 -0.1820  0.5816 -0.0418
18627W        W35101  17.405   8.885   3.408 -0.3469 -0.0547  0.3506
18628W        W35102  10.564  14.159   5.358 -0.4397  0.2319 -0.3243
18629W        W35103   5.869   3.729  11.947 -0.0181  0.0714  0.1214
18630W        W35104  13.567  11.653   2.707 -0.2090 -0.1182 -0.1119
18631W        W35105   1.982  18.006  14.524  0.3306  0.0510 -0.1764
18632W        W35106   4.516   5.940  13.057 -0.0144 -0.0503  0.0434
18633W        W35107   6.166  16.036   2.982  0.1764 -0.1888  0.1623
18634W        W35108  17.971  17.953   2.175 -0.1322  0.2486 -0.0645
18635W        W35109  12.702   6.365   5.512 -0.1066 -0.2882  0.0129
18636W        W35110  14.373  15.749  13.727 -0.0566  0.0102  0.0840
18637W        W35111  11.356  17.546   5.236  0.1504  0.1067 -0.0470
18638W        W35112  12.040   7.927   2.737  0.0077 -0.0483 -0.0202
18639W        W35113   4.531   7.270  12.405  0.0480 -0.2604  0.0699
18640W        W35114  15.463   6.132  12.499  0.1164  0.0739 -0.1104
18641W        W35115  15.677   5.854   5.374 -0.2460  0.2832  0.2605
18642W        W35116   2.823  11.924   0.121  0.1604  0.0321  0.5516
18643W        W35117   7.296  13.017  13.555 -0.1104 -0.0808 -0.0131
18644W        W35118   2.236   8.616   5.081 -0.0907  0.1007  0.2981
18645W        W35119  12.657   0.666   0.310  0.2363  0.1904 -0.0031
18646W        W35120  12.791   3.616  13.422  0.0956 -0.0086  0.1112
18647W        W35121   2.640   8.304  14.814  0.0924 -0.2723 -0.1020
18648W        W35122  13.348  11.179   2.986 -0.1569  0.0521 -0.0125
18649W        W35123  13.022   3.171  12.905 -0.0739  0.0255  0.2799
18650W        W35124  10.501  12.810   1.119  0.0261 -0.1326 -0.1643
18651W        W35125   0.560   4.148   4.990 -0.0584 -0.0256  0.0787
18652W        W35126  15.511   4.235   1.965 -0.1996  0.0440  0.0115
18653W        W35127  15.576   8.814   1.163  0.1391  0.4087 -0.0965
18654W        W35128  16.902   0.736   2.037 -0.0930  0.0789 -0.1991
18655W        W35129  14.964   0.671   4.387 -0.0644  0.0275  0.3951
18656W        W35130   7.844  15.040  11.971 -0.1020 -0.1346 -0.1103
18657W        W35131  18.059   2.947   2.099  0.0260 -0.0214 -0.2473
18658W        W35132  13.552   1.479   2.683 -0.1294  0.0871  0.0991
18659W        W35133   0.406  15.342  16.253 -0.1711  0.0028  0.1771
18660W        W35134  12.726  17.844   1.480 -0.4296  0.0414 -0.0953
18661W        W35135  13.504   4.218   0.450 -0.1742  0.1800 -0.0788
18662W        W35136   6.966   6.813  13.265 -0.0733  0.1454 -0.0625
18663W        W35137   7.049   5.933  12.760 -0.0531  0.4457 -0.1543
18664W        W35138  10.101   6.279  16.353 -0.0070 -0.0690 -0.2263
18665W        W35139   0.740   0.777  11.743 -0.1386  0.0028  0.1992
18666W        W35140  15.969   7.104   4.935  0.0907  0.4141 -0.2293
18667W        W35141  14.942   1.031  12.921 -0.1222  0.3031 -0.0775
18668W        W35142  13.439   3.153  13.879 -0.0366  0.0422  0.0943
18669W        W35143  13.132   1.975  14.912  0.1264  0.1745 -0.1488
18670W        W35144  11.715  13.830  14.057 -0.1232  0.0123 -0.3553
18671W        W35145   2.306  12.527  13.685  0.0769  0.0345 -0.1432
18672W        W35146  11.723   9.994  13.954  0.0615 -0.1696  0.1489
18673W        W35147  18.082  11.132  11.453  0.2062  0.1899  0.1225
18674W        W35148  12.524   6.652  15.896  0.2052  0.0930  0.0868
18675W        W35149  14.650   3.542  15.975  0.1905 -0.2473  0.4742
18676W        W35150  16.542   7.769   3.974 -0.0159  0.1530 -0.0870
18677W        W35151   9.943   5.592  14.810 -0.2141  0.1113 -0.2105
18678W        W35152   4.957  15.480   1.119 -0.1993 -0.2087 -0.0080
18679W        W35153  17.375   9.461   0.968  0.1819 -0.1705 -0.2173
18680W        W35154   6.360   3.618  11.205  0.0244 -0.1745 -0.2944
18681W        W35155  14.061  12.074  12.153 -0.1630  0.0252  0.0013
18682W        W35156   6.822   6.007   3.833 -0.0894  0.1219  0.1661
18683W        W35157   9.677   1.431   6.378  0.2205  0.2214  0.1533
18684W        W35158   3.536   2.637  15.050 -0.1369  0.1604  0.2198
18685W        W35159  16.469  11.089  12.370  0.0147 -0.1136  0.1762
18686W        W35160   8.881   7.238   1.171 -0.1325  0.2610 -0.0338
18687W        W35161  10.090   1.275  15.443  0.1834  0.1067  0.3872
18688W        W35162   7.480   8.625   3.942 -0.3569 -0.2348 -0.2263
18689W        W35163   0.114   2.135   0.491 -0.3246  0.1450 -0.2509
18690W        W35164   3.923  11.270  14.402  0.3424  0.3664  0.0681
18691W        W35165   7.972  12.932   0.680 -0.2385  0.1741  0.1681
18692W        W35166   6.851  12.348   1.727  0.0008  0.0430 -0.0947
18693W        W35167   1.678   8.469   2.592 -0.0194 -0.0273  0.0819
18694W        W35168  17.601   7.856   3.726  0.0063  0.0331  0.3610
18695W        W35169  13.302   8.176   0.322  0.1553  0.1240  0.1420
18696W        W35170   7.470   7.773   4.019 -0.0730  0.0834 -0.1385
18697W        W35171  17.073  14.596   3.379  0.0181 -0.0359 -0.1679
18698W        W35172   5.110   3.874   5.633 -0.2125  0.1223  0.3249
18699W        W35173   1.913   6.351   3.142 -0.1974  0.0577 -0.2734
18700W        W35174   4.532   9.752  15.960  0.1332 -0.0253  0.2882
18701W        W35175   0.461   3.754   2.734  0.0808  0.0762 -0.0625
18702W        W35176  12.580   4.348   1.338 -0.0563  0.0673 -0.1153
18703W        W35177  15.580   6.697  14.281  0.0613  0.0571 -0.0119
18704W        W35178   7.245   0.786  13.225 -0.1154  0.0777  0.1325
18705W        W35179   3.010  16.643   1.128  0.0195 -0.3599  0.0750
18706W        W35180   7.879   6.628   0.683 -0.1306 -0.1785 -0.4351
18707W        W35181   5.675  12.450   2.368  0.2353  0.1006 -0.0672
18708W        W35182  13.439  10.030  14.886  0.1373 -0.4364  0.3075
18709W        W35183   5.379  10.115   0.044 -0.0940 -0.0174 -0.0905
18710W        W35184   8.943   9.037  11.160  0.0482  0.3516  0.2627
18711W        W35185  17.911   5.986  16.318 -0.0345  0.0990 -0.0502
18712W        W35186  17.539  10.100   1.592  0.0662 -0.1136  0.0212
18713W        W35187  12.794  12.946   3.673  0.1321  0.0503  0.1664
18714W        W35188  13.881   2.640  13.104  0.1194  0.1577 -0.0680
18715W        W35189   7.856   1.151   5.309  0.2211  0.1445  0.3955
18716W        W35190   9.682   5.337  11.181 -0.1172  0.1787  0.0994
18717W        W35191   0.472  13.707   6.021 -0.2096  0.1357  0.4300
18718W        W35192  17.102  13.668  14.869 -0.4800  0.1550  0.3403
18719W        W35193   3.999   6.294   2.733 -0.0772  0.1452 -0.0048
18720W        W35194   4.863   2.991   3.630  0.2101 -0.0342  0.1018
18721W        W35195   0.566   6.299   2.289 -0.0261 -0.1179  0.1260
18722W        W35196   0.675   6.064   1.906  0.0299 -0.1717 -0.0793
18723W        W35197   1.097   5.790  13.360 -0.1294  0.2446  0.1603
18724W        W35198  16.400  10.381  11.677  0.2802 -0.1510 -0.0986
18725W        W35199  14.556  12.161  12.112 -0.1931  0.1022 -0.1334
18726W        W35200  16.789   7.022   4.275  0.3184  0.0243 -0.4015
18727W        W35201  11.586  11.063   1.310  0.1559 -0.1977 -0.0566
18728W        W35202  11.932  17.762   1.888 -0.1917  0.2017 -0.0439
18729W        W35203   1.523  13.979  11.564  0.1075 -0.4608  0.1841
18730W        W35204  13.326   8.773   4.524 -0.3550 -0.1150  0.1220
18731W        W35205   4.620  12.478  13.579  0.0104 -0.1979 -0.0704
18732W        W35206   5.703  16.389  11.426  0.1799 -0.1001 -0.1303
18733W        W35207  12.602   6.235   2.467 -0.1564  0.4585 -0.1548
18734W        W35208  14.106  15.426  12.278 -0.0469  0.1358  0.2149
18735W        W35209   8.320  14.798  15.438  0.0203  0.0832 -0.1149
18736W        W35210   8.142   5.490   0.318 -0.2114 -0.3079  0.0692
18737W        W35211   9.169   5.885  15.440 -0.3244 -0.3035 -0.0577
18738W        W35212   4.588   1.021   1.295 -0.1728  0.1855 -0.0886
18739W        W35213   2.981   2.576   4.665 -0.1530  0.1117 -0.0682
18740W        W35214   5.767  10.695  14.838  0.0289  0.1881  0.0839
18741W        W35215   2.107   6.774   3.047 -0.0277  0.2962 -0.0526
18742W        W35216  11.073  11.869  15.876  0.3216  0.2459 -0.4349
18743W        W35217   8.067   5.772  16.280 -0.1014 -0.1733 -0.0925
18744W        W35218  16.626   9.784   3.415 -0.1311  0.0370 -0.1967
18745W        W35219   1.225  14.585   0.388  0.2764  0.2200 -0.1969
18746W        W35220  17.027  13.325  16.213 -0.3084 -0.0566  0.0011
18747W        W35221  13.176   0.373  15.628 -0.0612 -0.2842 -0.0010
18748W        W35222  16.426  10.876   3.350  0.0480 -0.0617  0.0899
18749W        W35223   8.255  12.736   3.913  0.0763  0.0091 -0.0406
18750W        W35224  15.255  10.136  14.039  0.1781 -0.2148  0.0452
18751W        W35225   7.629  11.414  11.851  0.1096 -0.2985 -0.0934
18752W        W35226   3.966  15.159   3.761 -0.2111 -0.0144 -0.1458
18753W        W35227   5.098   1.046  15.161  0.2971  0.2681 -0.1942
18754W        W35228  15.200   0.892  14.821  0.0942  0.1175 -0.0677
18755W        W35229   4.319  12.534   2.516 -0.1496 -0.0135 -0.0584
18756W        W35230   0.501   5.406  14.165 -0.1227 -0.0179 -0.0195
18757W        W35231  13.833   3.424   5.054 -0.0230  0.2446  0.2292
18758W        W35232  17.765  15.785   1.018 -0.2588  0.1146 -0.1911
18759W        W35233   2.141  14.040  12.489 -0.2215  0.1186  0.1820
18760W        W35234   0.041   4.945  11.267  0.1116  0.0379  0.1786
18761W        W35235   1.491  15.071   0.920 -0.3605 -0.0754 -0.0488
18762W        W35236   9.543  14.350   2.901 -0.0100  0.1238 -0.0608
18763W        W35237  11.814   0.493  12.876  0.2852  0.1647 -0.0157
18764W        W35238   6.981  12.340   5.814  0.1066  0.0496 -0.0622
18765W        W35239  14.043   9.480   1.439 -0.1245  0.3578 -0.0417
18766W        W35240   7.890   7.279   2.502 -0.0521  0.0306  0.0529
18767W        W35241   5.754  13.900   3.595  0.2408  0.0355 -0.1262
18768W        W35242  10.637   1.899   1.619  0.0489  0.3448 -0.1605
18769W        W35243  11.762  10.582  14.551 -0.0404 -0.0105 -0.2984
18770W        W35244  10.197  14.959   2.725  0.2449 -0.1020 -0.2758
18771W        W35245   7.175   0.841  11.352 -0.0752 -0.1327 -0.0035
18772W        W35246  16.613  11.181  13.599 -0.2217 -0.1922 -0.1423
18773W        W35247  14.058  10.800  14.478 -0.3178 -0.1022 -0.2334
18774W        W35248   1.213   0.685   1.651  0.1543  0.2095 -0.1231
18775W        W35249   1.570  11.233   4.919 -0.1349  0.0965  0.0375
18776W        W35250   8.991   5.775   5.430 -0.0440 -0.1814 -0.2240
18777W        W35251   1.002   8.701   1.333 -0.2735  0.1721 -0.0544
18778W        W35252   4.277  11.562  11.677 -0.1154 -0.1043 -0.3269
18779W        W35253   6.206  16.869   1.360 -0.1714  0.0444  0.2628
18780W        W35254  14.519  15.868   1.475 -0.1645  0.3642 -0.0567
18781W        W35255   4.739  17.921   0.965  0.0328  0.2022  0.0241
18782W        W35256   9.000  11.266  16.136  0.1907  0.0552 -0.0651
18783W        W35257   2.189   6.926   4.874 -0.0323 -0.0037 -0.0397
18784W        W35258  10.460  12.788   4.491  0.2797  0.3080  0.3675
18785W        W35259  15.827  15.202  10.649 -0.0277 -0.3829 -0.1218
18786W        W35260   4.858  17.020  13.452  0.0554 -0.3692 -0.0985
18787W        W35261  12.326  12.862   0.972  0.0811 -0.2153  0.1763
18788W        W35262  16.792   9.613   1.396 -0.3569  0.2585  0.1041
18789W        W35263  15.289  12.734   3.733  0.1384 -0.0509 -0.0663
18790W        W35264   5.743   7.118  11.492  0.1719  0.1293 -0.0710
18791W        W35265   8.673   3.782   1.099  0.1162 -0.0252 -0.0143
18792W        W35266   8.753  12.265   1.765 -0.0605 -0.2174 -0.0338
18793W        W35267   0.871   0.775  16.324 -0.0443 -0.1590  0.2473
18794W        W35268  14.800   5.134  14.489  0.0136 -0.0717  0.0908
18795W        W35269  13.184   7.697   0.345  0.0082 -0.1858 -0.0468
18796W        W35270   0.070  12.657  15.525  0.2916  0.0523  0.2264
18797W        W35271   5.987  14.337  10.691  0.0421  0.2093  0.2168
18798W        W35272  12.927   2.557  12.903 -0.0620  0.2826 -0.3949
18799W        W35273   9.045   4.847   3.372  0.2077 -0.1498  0.1782
18800W        W35274  17.544   3.329   1.591  0.0482 -0.3438 -0.0360
18801W        W35275  10.225  17.943   5.196  0.0945  0.2103  0.3486
18802W        W35276   5.736   5.331  12.967  0.0182 -0.0048 -0.1307
18803W        W35277   5.864   5.587   2.872 -0.3912 -0.0472  0.0780
18804W        W35278   0.156   9.261  15.164 -0.1035 -0.0551  0.0154
18805W        W35279   6.900  13.438  14.859  0.2240 -0.0566 -0.2228
18806W        W35280  12.689  16.439  12.632  0.0283  0.2365 -0.0397
18807W        W35281   1.749  15.430   4.741  0.0618  0.1312 -0.0498
18808W        W35282   3.511   6.571  12.952 -0.3234 -0.1938  0.1249
18809W        W35283   0.585  13.996   1.643  0.1006 -0.0173  0.0141
18810W        W35284   1.586  16.318  15.602  0.0607 -0.0821  0.2393
18811W        W35285   1.627   3.989  13.049 -0.0736  0.2219  0.0062
18812W        W35286   6.634  16.606   1.210 -0.1096 -0.2139  0.2738
18813W        W35287   2.946  13.834   2.585 -0.3663  0.1099 -0.1127
18814W        W35288  15.103  17.676  14.939  0.0756 -0.0931  0.1140
18815W        W35289   9.197   5.652  11.788  0.3681 -0.1262  0.1473
18816W        W35290   3.776   8.240   2.587  0.0509 -0.0859 -0.3289
18817W        W35291  13.820  14.233  16.167 -0.1066  0.0846 -0.0309
18818W        W35292   0.116   2.782   4.767 -0.0851  0.1337 -0.1382
18819W        W35293  11.678   6.992   3.088 -0.1186 -0.1796  0.0850
18820W        W35294  13.313   3.155  14.386  0.1053  0.0384 -0.1325
18821W        W35295  12.961   5.225   0.815  0.3633 -0.3147 -0.0749
18822W        W35296  15.737   4.738  13.018 -0.0978  0.0648  0.0810
18823W        W35297   1.439   4.147  16.178 -0.0691  0.1359 -0.4784
18824W        W35298   4.034   9.361  14.170 -0.0413  0.2229 -0.0306
18825W        W35299  12.757  16.412   4.879 -0.1343 -0.4084 -0.1518
18826W        W35300  17.227   2.956  12.729 -0.1918 -0.4296 -0.0769
18827W        W35301  17.850   0.291  12.809  0.0580 -0.0790  0.0115
18828W        W35302   9.947   7.075   0.125 -0.1866  0.1064  0.2382
18829W        W35303   3.712  15.363  15.250 -0.1209 -0.1369 -0.0484
18830W        W35304  10.014   3.547   1.782 -0.4393 -0.0802 -0.0109
18831W        W35305  13.383  15.936  12.680  0.2573 -0.1000  0.1408
18832W        W35306  12.038  12.094  15.174 -0.2083 -0.0635 -0.2309
18833W        W35307   7.274   6.228   1.333  0.1025  0.1305 -0.0869
18834W        W35308  11.367   0.840   5.584  0.1042 -0.0996  0.0417
18835W        W35309  18.063   7.460  12.496  0.1098  0.0166  0.0025
18836W        W35310  13.242  17.395  13.381  0.1713 -0.0420 -0.3280
18837W        W35311   8.888   2.078   1.754 -0.0964  0.0047  0.0919
18838W        W35312  10.673  11.596  12.291 -0.2409  0.2419 -0.0412
18839W        W35313   6.243   2.013   5.293  0.0619 -0.1587  0.1709
18840W        W35314  13.166   2.491  14.711 -0.2290  0.0902 -0.0184
18841W        W35315   9.739  16.737  13.538 -0.1315  0.0015  0.2297
18842W        W35316   4.784   0.016  12.528  0.0472 -0.0413 -0.2661
18843W        W35317  12.483  17.946  14.083 -0.3863 -0.0849  0.0402
18844W        W35318   7.623   5.678  13.906 -0.1369  0.0545  0.2248
18845W        W35319   1.264   8.913   2.415 -0.0732 -0.3774  0.0761
18846W        W35320  15.586  17.634  11.857 -0.3123 -0.1645  0.1516
18847W        W35321  15.238  12.827  15.706  0.1768  0.1355 -0.0260
18848W        W35322  16.213  13.023  11.969 -0.0370 -0.0266  0.0497
18849W        W35323   2.111   6.533   1.822 -0.0920  0.0689  0.4047
18850W        W35324  12.067  14.797  14.687 -0.0594 -0.0360  0.0953
18851W        W35325  15.393   7.598  14.099 -0.1347 -0.0110  0.0672
18852W        W35326   4.919  11.116  11.191 -0.3012 -0.0115  0.0935
18853W        W35327  17.711  11.034  10.116 -0.0415  0.0600 -0.1221
18854W        W35328   5.766   6.230  15.237  0.2720  0.0621  0.1079
18855W        W35329  14.149  10.362   0.934  0.1653 -0.1389  0.3470
18856W        W35330   0.861  15.132  12.349 -0.0139 -0.1302 -0.0815
18857W        W35331  13.332   5.118  14.419 -0.2515  0.1277  0.1469
18858W        W35332   0.802   6.532  12.531  0.1555  0.0813  0.1040
18859W        W35333   7.861   0.068  11.490 -0.0074  0.1909 -0.0206
18860W        W35334  11.184   4.186   5.042 -0.0609  0.3629 -0.0445
18861W        W35335   9.979   2.847   4.317  0.1309 -0.0240 -0.0934
18862W        W35336  14.401  15.760  16.363 -0.0568 -0.1037 -0.0678
18863W        W35337   5.370  13.645   0.467  0.1109  0.2777 -0.2094
18864W        W35338   8.808  16.520   5.219  0.1053 -0.1589  0.1470
18865W        W35339  11.911   9.081   3.703  0.0107 -0.0228  0.1999
18866W        W35340   0.005  10.342  16.050 -0.0939 -0.1008  0.1617
18867W        W35341   5.017  12.207   0.371 -0.0321 -0.2397  0.6252
18868W        W35342  17.294   6.923   5.063  0.0831 -0.0448  0.1962
18869W        W35343  12.162   9.138  12.942 -0.2829 -0.0942 -0.2695
18870W        W35344   9.742  16.561  14.533  0.3387 -0.3513 -0.3919
18871W        W35345   8.723   8.676   1.119  0.1066 -0.1528 -0.0844
18872W        W35346   3.758  17.416   2.125 -0.0910  0.2014 -0.0520
18873W        W35347   5.790   9.594  14.567 -0.1662 -0.0342 -0.0675
18874W        W35348  14.820  11.020   2.379  0.3812 -0.1863  0.1488
18875W        W35349  14.308  16.888  12.992 -0.0327 -0.1108  0.1393
18876W        W35350   8.009   2.956  12.308  0.1890  0.0441 -0.3944
18877W        W35351   1.844   4.481   3.581 -0.1438  0.1753 -0.3584
18878W        W35352   6.783  14.156   5.775  0.1052 -0.0371 -0.0748
18879W        W35353   3.760  14.598   1.757  0.0844 -0.0219  0.0793
18880W        W35354  17.923  12.283   1.279 -0.1543 -0.0381 -0.0182
18881W        W35355  12.464  18.118   3.511  0.0576 -0.0719  0.2592
18882W        W35356  15.262   2.929  15.457 -0.5117 -0.0659  0.0304
18883W        W35357  15.086   1.292   1.011  0.3642 -0.0179 -0.1564
18884W        W35358  14.029   2.174  15.768  0.0908  0.1500  0.2239
18885W        W35359  12.432   1.718   2.305 -0.0218  0.0046  0.1852
18886W        W35360   7.555   3.997  11.694  0.0330  0.1982 -0.1744
18887W        W35361   6.314   5.613  14.752 -0.1612 -0.3189 -0.0425
18888W        W35362   9.150   7.843  12.334  0.1469  0.0262  0.0282
18889W        W35363   9.288  13.328  14.015 -0.2327  0.1966 -0.1787
18890W        W35364  12.297   3.058   1.163  0.0501 -0.0799  0.0440
18891W        W35365  17.520   9.302   4.228  0.0540  0.0473 -0.0060
18892W        W35366   7.016   1.546   0.308  0.1194 -0.1742 -0.2445
18893W        W35367   4.764   7.812  13.573  0.0138  0.1997 -0.1284
18894W        W35368  13.045  13.183   1.169 -0.2777 -0.0428 -0.1495
18895W        W35369   9.860  11.825   1.630  0.2468 -0.2788 -0.0644
18896W        W35370   1.672  11.102   1.446 -0.2187  0.1534  0.0370
18897W        W35371  16.065  14.298   2.878  0.1850  0.2577  0.2763
18898W        W35372   8.767  13.997  16.328 -0.1359 -0.0596  0.0948
18899W        W35373   6.432   2.467  12.042 -0.3258 -0.0749 -0.1613
18900W        W35374   7.867  13.071  11.782 -0.1360  0.1519 -0.0308
18901W        W35375   7.324   4.439   0.866 -0.3909 -0.2306 -0.0376
18902W        W35376   2.187   8.760   1.403  0.2164 -0.2549  0.1916
18903W        W35377   2.440  13.906  11.953  0.0348  0.0326  0.0115
18904W        W35378   1.439   3.320   2.017 -0.0796  0.3209  0.3424
18905W        W35379   5.710   9.313   0.772 -0.2417  0.0866  0.1591
18906W        W35380   4.376   4.995   0.900 -0.0360  0.2075  0.2302
18907W        W35381   0.738  16.716   4.024  0.1228  0.1628 -0.0605
18908W        W35382  11.979  16.671   0.269  0.1247  0.0052 -0.0219
18909W        W35383  14.770  17.702   6.339  0.1591  0.3013  0.1160
18910W        W35384  17.426   3.261  15.290  0.0676 -0.1221  0.2647
18911W        W35385   4.834   7.372  13.204 -0.1567 -0.0458  0.0398
18912W        W35386   9.116  12.452  13.124 -0.0214  0.1248 -0.1965
18913W        W35387   7.900  14.460   5.544  0.2276 -0.1537 -0.1589
18914W        W35388  16.873   9.583   2.224  0.1777  0.0820  0.0840
18915W        W35389   7.307   5.649   2.786  0.0688 -0.1401  0.1290
18916W        W35390   3.861   4.321   4.880  0.2988  0.2621 -0.1697
18917W        W35391   5.556   8.163  13.257  0.0347 -0.1707  0.1093
18918W        W35392   6.043  16.931  11.557  0.0865 -0.1291  0.1869
18919W        W35393  17.859   6.175   2.016 -0.0524  0.1087  0.0872
18920W        W35394   6.570   0.243   2.893 -0.0040 -0.0615 -0.2929
18921W        W35395  18.042  17.140  14.972  0.0742  0.2311 -0.1273
18922W        W35396  15.794   6.633   4.752  0.3841 -0.1093  0.0027
18923W        W35397   5.627   9.754   5.584  0.3884 -0.0425 -0.0942
18924W        W35398  11.466  17.267  11.288  0.2788  0.1649  0.2154
18925W        W35399   3.602  11.499  15.341 -0.2565  0.1970  0.0446
18926W        W35400   6.454   8.694   2.606 -0.3322  0.0022  0.2263
18927W        W35401  14.745   4.893  14.070  0.0468  0.0095  0.3476
18928W        W35402  12.199  13.724  14.079 -0.1632 -0.0922  0.1195
18929W        W35403   9.464   2.996   5.484  0.3267  0.0934 -0.1186
18930W        W35404   1.437   3.522  13.351  0.2459 -0.1850  0.1214
18931W        W35405  11.483  12.621   2.053  0.0080  0.3617 -0.0471
18932W        W35406  13.577   6.704  11.580 -0.3367  0.0990  0.0259
18933W        W35407  13.005   4.439   1.563  0.0303 -0.0695  0.0674
18934W        W35408  10.411   9.250  12.003 -0.0100  0.1667 -0.1658
18935W        W35409   2.731   1.109  15.441  0.0713  0.2249  0.3355
18936W        W35410   8.591   7.352   4.261  0.1894  0.0542  0.2628
18937W        W35411  12.878  17.527   0.781 -0.1014  0.0190  0.3138
18938W        W35412  17.345   1.615  14.678 -0.2691  0.1262 -0.2192
18939W        W35413  13.093   5.119   4.786  0.2131 -0.0114 -0.0569
18940W        W35414   9.923  10.817   0.718  0.0493  0.2359 -0.1402
18941W        W35415   9.045  15.605  13.815 -0.1050 -0.1841  0.2551
18942W        W35416  10.016  15.362  11.286 -0.0181 -0.1571 -0.1737
18943W        W35417  12.467  15.036  10.899 -0.2263 -0.0325 -0.2344
18944W        W35418  13.501  12.911  12.334  0.0074  0.3288  0.1894
18945W        W35419   3.559   2.185   3.822 -0.0636  0.1893  0.0233
18946W        W35420   5.726   8.526  12.164  0.0190 -0.3737  0.0038
18947W        W35421   5.578  17.560  14.076  0.3270  0.2667  0.0257
18948W        W35422   2.648  13.930   1.153 -0.4012 -0.2496  0.3523
18949W        W35423   2.230  15.208  11.677 -0.3772 -0.0584 -0.1825
18950W        W35424   7.090  13.955  11.100 -0.2900  0.0664  0.1705
18951W        W35425  12.431  10.750   4.164  0.1979  0.1628  0.0082
18952W        W35426   2.556   7.023   1.243 -0.1145 -0.0151  0.1357
18953W        W35427   0.456   1.857  11.336  0.1206 -0.0100  0.0368
18954W        W35428   3.354  10.317  14.374 -0.2470  0.2441  0.1432
18955W        W35429   8.071   2.971  12.840  0.0085 -0.1303 -0.5417
18956W        W35430  11.609  13.373   2.745  0.1213  0.0550 -0.4793
18957W        W35431   8.821  16.993  13.250 -0.0300  0.1625  0.1110
18958W        W35432   2.990  10.398   2.280 -0.0813  0.4964 -0.1222
18959W        W35433   9.443   5.007  14.244 -0.2890  0.1192  0.0132
18960W        W35434   1.995   4.169  15.495  0.2520 -0.3511 -0.1882
18961W        W35435  12.552   6.174  14.164  0.2237  0.1258  0.1099
18962W        W35436   4.327   1.841   5.774 -0.2186 -0.0785  0.0184
18963W        W35437   8.191  15.744   2.167  0.1264 -0.1982  0.0731
18964W        W35438  12.211   1.373  12.591  0.1722  0.1145  0.0145
18965W        W35439  15.663   8.506  11.947 -0.0562 -0.1535  0.0867
18966W        W35440   3.368   6.330   2.281 -0.0899  0.1445  0.1565
18967W        W35441   2.887   9.766  13.558  0.1527  0.0829 -0.0305
18968W        W35442  13.110   6.936  15.504  0.0778 -0.0641  0.0266
18969W        W35443   4.554   3.200   0.143  0.0916  0.1988 -0.0665
18970W        W35444   3.396   0.950   1.971 -0.1302  0.2100 -0.0978
18971W        W35445  17.351  11.716  11.335  0.1806 -0.0892  0.1095
18972W        W35446   7.586  12.869   1.937  0.0052  0.4000  0.2128
18973W        W35447   3.269   2.811  10.846 -0.1088  0.0792  0.2288
18974W        W35448  10.955  12.679   0.839 -0.0364 -0.2541 -0.0503
18975W        W35449   0.522   8.631  10.435 -0.1224 -0.1696 -0.3657
18976W        W35450  10.968  15.922  13.653  0.3920 -0.2679  0.0360
18977W        W35451   2.467  13.077   3.118  0.2928  0.1583  0.2889
18978W        W35452   8.834  17.484   3.105  0.2268  0.2345  0.0286
18979W        W35453   9.510  11.640   0.807 -0.0699  0.0521 -0.1675
18980W        W35454  17.431  10.233  12.280  0.2430  0.1755 -0.1202
18981W        W35455   2.942   1.046   3.208 -0.2310 -0.0808  0.1321
18982W        W35456  13.511   6.737   0.568 -0.1826 -0.2738 -0.0749
18983W        W35457  12.257  17.992  14.943  0.0473 -0.0978 -0.0065
18984W        W35458  11.074   3.103  12.423  0.0838  0.1732 -0.0174
18985W        W35459   0.590   2.873  11.564  0.1346  0.0910  0.0370
18986W        W35460   6.188  17.903  13.751 -0.1898  0.1666  0.2123
18987W        W35461  12.393   2.234   4.067 -0.0841 -0.2652 -0.0319
18988W        W35462  12.889  11.402  14.896 -0.0801 -0.0268  0.4034
18989W        W35463  12.926   6.379   2.050 -0.4472  0.2231  0.1944
18990W        W35464  10.756  14.659  12.797 -0.0898  0.0742 -0.0411
18991W        W35465  17.622   9.054   0.834  0.0395 -0.0501  0.1365
18992W        W35466   0.529  10.693   2.345  0.0393 -0.0830  0.1642
18993W        W35467  12.700   8.447  12.276 -0.0530  0.0782 -0.0947
18994W        W35468   0.049   7.793   4.913  0.2166 -0.5841 -0.0894
18995W        W35469  16.968  12.171  13.588  0.0152 -0.1769  0.0960
18996W        W35470   3.638  13.269  11.662 -0.0229  0.0498 -0.0132
18997W        W35471   8.669   9.028  13.216 -0.0007 -0.1772  0.2178
18998W        W35472  15.816  13.498   2.994 -0.3250 -0.0829 -0.0929
18999W        W35473   1.808   0.511   0.850  0.1831  0.1853  0.1086
19000W        W35474   9.819   8.763  14.456  0.0307  0.0542 -0.0869
19001W        W35475   5.556   5.255  14.282 -0.1559 -0.1243  0.0431
19002W        W35476   0.444   9.452  10.757 -0.1491  0.0446  0.2208
19003W        W35477  10.403   7.368   2.867 -0.0581 -0.1057 -0.1935
19004W        W35478   7.114  15.650  12.986 -0.0602  0.3127 -0.1105
19005W        W35479  15.806   2.150  15.049 -0.2408 -0.0181 -0.2057
19006W        W35480  14.196  13.014   3.337 -0.0084  0.2814  0.0106
19007W        W35481  16.685  16.476   2.278  0.1686  0.2058  0.1982
19008W        W35482   6.083   8.426   4.535  0.0138 -0.3403  0.2825
19009W        W35483  14.891   0.778  15.869 -0.1673  0.0644 -0.5147
19010W        W35484   7.206  15.398   1.109 -0.2339 -0.2425  0.0030
19011W        W35485   7.760  14.976   4.875 -0.0306  0.0786  0.0644
19012W        W35486  16.871   8.155   6.168 -0.1735  0.1022  0.1668
19013W        W35487  14.708   4.214  16.001 -0.2921 -0.2625  0.2466
19014W        W35488   8.063  13.627   4.942 -0.2713 -0.3549 -0.1679
19015W        W35489   7.089   3.676  14.522 -0.1308  0.0920 -0.2319
19016W        W35490  12.024   9.330   4.496  0.2683 -0.0857  0.0186
19017W        W35491  17.626   7.853  13.605  0.2527 -0.2137  0.1595
19018W        W35492  17.504   4.235  16.057  0.0191  0.0841 -0.2202
19019W        W35493   8.360  13.013  11.859 -0.2506  0.0107 -0.0330
19020W        W35494   4.519  10.144  16.251 -0.4095 -0.0995  0.0910
19021W        W35495   9.878  18.162   0.376  0.0424 -0.1586  0.0254
19022W        W35496  13.502   0.447  12.696  0.0266  0.3725  0.2476
19023W        W35497   1.115   1.323   2.560  0.0522  0.2386 -0.1584
19024W        W35498   9.413   5.319  13.358  0.2576  0.0059  0.4126
19025W        W35499  12.834   8.034  13.694  0.4863  0.1068  0.1920
19026W        W35500  16.587  14.703  16.294 -0.0136 -0.0984  0.1765
19027W        W35501  10.755  15.355   2.250 -0.1389 -0.0336  0.2062
19028W        W35502  11.852   3.011  15.282  0.1164 -0.0876  0.0364
19029W        W35503  13.808  14.013   1.043 -0.0645  0.0313 -0.0584
19030W        W35504  17.552  10.581   1.501 -0.0168 -0.0088  0.0013
19031W        W35505   3.101   3.365  14.481  0.1012  0.0763  0.1593
19032W        W35506   3.152   6.732   2.011  0.1855  0.0280 -0.2591
19033W        W35507  13.458  12.679  11.925 -0.1642  0.2201 -0.1201
19034W        W35508   6.366  11.617   4.748 -0.0351 -0.1802  0.0860
19035W        W35509   7.280  18.170   2.322 -0.4855 -0.1612  0.3150
19036W        W35510  10.450   3.856   1.071  0.0027 -0.0573 -0.0379
19037W        W35511  12.679  15.128   0.880  0.0526  0.0906 -0.3145
19038W        W35512   7.978   4.712  14.669  0.1427 -0.1602 -0.1696
19039W        W35513   8.990   2.818   3.680 -0.0640  0.1303 -0.0709
19040W        W35514   9.429  13.298   3.734 -0.1606 -0.2670 -0.2710
19041W        W35515   5.296   9.383  12.406  0.2030 -0.1254  0.0437
19042W        W35516   1.762   7.933   5.929  0.1842 -0.0125  0.2301
19043W        W35517  14.987   4.971   2.265 -0.2269 -0.1346 -0.0931
19044W        W35518  13.142   2.908   0.755  0.0317 -0.1985  0.0008
19045W        W35519  13.194  13.921   5.089  0.4794 -0.1813  0.3488
19046W        W35520   8.363   0.362   1.255  0.1705 -0.1746  0.0101
19047W        W35521  16.210  15.046   6.264 -0.0156 -0.0632  0.1168
19048W        W35522  11.957   2.429  12.747  0.2233 -0.0290 -0.0852
19049W        W35523   3.643   1.518   0.882 -0.1976  0.1255 -0.0737
19050W        W35524   1.554  16.831  11.073 -0.1535  0.2001 -0.3574
19051W        W35525   9.361  14.453  15.842 -0.3988  0.0898  0.3203
19052W        W35526   1.500   2.283   0.805 -0.1868  0.0048 -0.0046
19053W        W35527   5.811   4.436   2.510 -0.0837 -0.2654  0.4614
19054W        W35528  16.423  11.388  14.079 -0.2110  0.1194 -0.4537
19055W        W35529  16.119   3.186  15.892 -0.1071  0.1151 -0.2319
19056W        W35530  10.016   8.033  11.687  0.1776 -0.1786  0.1388
19057W        W35531  11.564   4.428   4.315  0.1511 -0.4654  0.2841
19058W        W35532  14.423  13.409  11.948 -0.0212  0.2986 -0.0446
19059W        W35533   2.879   1.969   5.071  0.0996 -0.0170 -0.0727
19060W        W35534   2.429   9.732  13.820  0.3386 -0.3428  0.4243
19061W        W35535  15.190   9.015   5.370  0.3366  0.3856 -0.2551
19062W        W35536   7.338  15.564   4.593 -0.0910  0.0069  0.2684
19063W        W35537   4.234   2.533   4.072 -0.0717 -0.0437  0.0869
19064W        W35538   8.364   9.688  14.568  0.0135  0.0382  0.1564
19065W        W35539   1.866   6.938  11.405 -0.0479  0.0342 -0.1692
19066W        W35540  10.272   6.516  14.372 -0.2305 -0.0042 -0.0714
19067W        W35541  11.582  11.553   4.642  0.1584 -0.1018  0.1320
19068W        W35542   3.615   6.943  14.696 -0.2261 -0.0946 -0.1176
19069W        W35543  10.107   7.173  11.602 -0.1147  0.1814 -0.0915
19070W        W35544  13.341  13.890  14.856 -0.4096 -0.3517  0.0811
19071W        W35545  17.233   5.300   2.000 -0.0915  0.1239 -0.1682
19072W        W35546   1.206  10.162   1.379 -0.2288  0.2936 -0.1588
19073W        W35547  14.190  13.421   4.310  0.1021 -0.1779 -0.1777
19074W        W35548  13.107   1.246  13.181  0.1522 -0.0116  0.1882
19075W        W35549   9.841   4.421  12.650  0.0374 -0.1436 -0.1964
19076W        W35550   9.269   6.185   5.206 -0.0218 -0.2105 -0.2006
19077W        W35551  14.367  11.992   5.281 -0.2279 -0.1755 -0.0284
19078W        W35552   5.182   7.935   5.989 -0.0568 -0.2772 -0.0600
19079W        W35553   8.392   9.460  13.425 -0.1624 -0.3332  0.0815
19080W        W35554  10.635   2.856   5.618  0.3920  0.1637 -0.0268
19081W        W35555  10.515  17.732  14.171 -0.2942 -0.0625  0.0213
19082W        W35556   0.356  11.604  13.030 -0.0698 -0.0834  0.0635
19083W        W35557  17.658   2.430   4.250 -0.0559 -0.0961 -0.1689
19084W        W35558   0.281   8.020  13.703  0.2629 -0.2538 -0.1046
19085W        W35559   3.669  17.072  15.520 -0.0472 -0.0579 -0.2034
19086W        W35560   5.996   1.835   1.644  0.0434 -0.1661  0.1571
19087W        W35561  14.832   0.050   6.070 -0.2682  0.3523  0.0881
19088W        W35562  16.400   4.161   0.061  0.2740  0.1750  0.0751
19089W        W35563  10.807  12.847  15.768 -0.0304  0.2676 -0.0553
19090W        W35564   9.375   5.384   3.647  0.0002  0.2811 -0.1848
19091W        W35565   7.624   2.430   2.028  0.0338 -0.5348 -0.4098
19092W        W35566  11.570  12.763   0.480 -0.3319  0.0376 -0.1647
19093W        W35567   8.077   3.243   3.916  0.2350 -0.1450 -0.3376
19094W        W35568   1.470  12.006   0.132  0.0303 -0.0533  0.0626
19095W        W35569  17.601  11.327  11.592  0.1099  0.3719  0.3224
19096W        W35570   9.870  14.539  15.161 -0.0967  0.1950  0.2775
19097W        W35571   4.761   6.687   3.532 -0.2496 -0.1134 -0.1683
19098W        W35572   6.856   0.086  15.084 -0.1331  0.0068 -0.1241
19099W        W35573   9.017  11.882   1.986 -0.1644 -0.3656  0.0663
19100W        W35574  15.692   2.605   2.832  0.0417 -0.0906  0.0104
19101W        W35575   4.692   1.358  11.839  0.2253  0.2642  0.2482
19102W        W35576  11.570   8.468   2.302  0.0888 -0.4114 -0.1677
19103W        W35577  17.788   8.475  14.239 -0.1544  0.1282  0.4747
19104W        W35578  16.170  10.058   2.202  0.2691 -0.3207  0.1818
19105W        W35579  12.807  14.664   5.114  0.0696 -0.0613 -0.0987
19106W        W35580  12.135  15.382  11.054  0.1258  0.0222  0.0018
19107W        W35581  11.173   8.588   5.210  0.1087 -0.1373 -0.0256
19108W        W35582   4.262   3.230  16.031  0.3605  0.0088  0.0280
19109W        W35583   6.160  15.846  11.895 -0.0766  0.1539 -0.0141
19110W        W35584  14.693   5.994   2.552 -0.2771  0.1367  0.3377
19111W        W35585   8.299   5.119   0.586  0.1525  0.0999  0.0018
19112W        W35586  10.540  12.378  15.277  0.1669 -0.1705  0.2284
19113W        W35587  11.430   0.072   0.397 -0.0274  0.0429 -0.1297
19114W        W35588  10.377   1.009   4.504 -0.1182  0.0458  0.2882
19115W        W35589   1.741  12.008  14.878  0.2193  0.1099  0.1766
19116W        W35590   1.591  15.043   2.338  0.1672 -0.1622 -0.0676
19117W        W35591  11.724  14.233   0.551  0.0827  0.1163 -0.2796
19118W        W35592   2.462  13.297   4.884  0.1844  0.1823 -0.0351
19119W        W35593   3.754   4.688  15.333  0.2287 -0.0454 -0.1192
19120W        W35594  11.091  16.792  13.101 -0.2444  0.1973 -0.1665
19121W        W35595   6.628  16.612   0.688 -0.2929 -0.0510  0.0988
19122W        W35596   4.308   9.535   0.638 -0.3038 -0.0360  0.1335
19123W        W35597   8.874  10.752   4.700 -0.0283  0.0541  0.0316
19124W        W35598  13.060  13.665  14.515  0.0846  0.2571 -0.2653
19125W        W35599   5.334   1.602   5.116  0.4424 -0.0801 -0.1509
19126W        W35600   6.383  16.113  13.526 -0.0441 -0.2219  0.2350
19127W        W35601  10.226   3.645   2.575 -0.2624 -0.2021  0.0986
19128W        W35602   5.695  12.462  13.255  0.3034 -0.1291 -0.3406
19129W        W35603  13.688  14.115  15.663 -0.0261 -0.3294 -0.1301
19130W        W35604   6.193  13.869   2.643  0.0999 -0.0255  0.0522
19131W        W35605  13.686  11.922   4.033  0.1750 -0.1707  0.0615
19132W        W35606   8.903   7.157  13.904  0.0213  0.0422  0.0538
19133W        W35607   1.523  14.807  12.057  0.1761  0.2133  0.1691
19134W        W35608   5.080   4.081  11.309  0.0118  0.0977 -0.2322
19135W        W35609   2.499   8.883   4.489  0.0886 -0.1149 -0.0441
19136W        W35610   5.363   9.649   2.901  0.2687 -0.1890 -0.2518
19137W        W35611   0.351   3.512   4.211  0.0901 -0.4188 -0.0707
19138W        W35612  16.846  13.568   1.912 -0.0412  0.0687 -0.2209
19139W        W35613  12.172  12.809  13.101 -0.0933  0.2549 -0.0467
19140W        W35614   5.482   4.366   0.617  0.2737 -0.0175  0.0417
19141W        W35615   4.435   9.919   5.255  0.0049 -0.2207  0.1531
19142W        W35616   5.835   6.595   1.871  0.1572  0.6513  0.1210
19143W        W35617   8.834   5.529   2.745 -0.1306  0.0030  0.2138
19144W        W35618   2.968  15.667  11.259 -0.0964 -0.2577 -0.2192
19145W        W35619  11.293   9.322  14.305 -0.1733  0.2011  0.0102
19146W        W35620   8.632  15.533   1.823 -0.1446  0.0232 -0.2376
19147W        W35621  15.171  15.842   1.500 -0.2130  0.2445  0.2609
19148W        W35622   3.755   1.889  12.909 -0.0484 -0.0631 -0.1868
19149W        W35623  15.480  12.240  11.534 -0.0949  0.1018 -0.4708
19150W        W35624   6.511   3.788  14.314 -0.0376  0.0790  0.4028
19151W        W35625  13.667  13.477  14.955 -0.1671 -0.2709  0.1668
19152W        W35626  14.420  17.092   5.694 -0.1605  0.1292  0.2142
19153W        W35627   4.262   0.658   0.065 -0.0033  0.1275 -0.3471
19154W        W35628  13.611  15.579   2.376 -0.0294  0.0771 -0.1277
19155W        W35629  10.507  10.792   3.343  0.0517  0.0007  0.0423
19156W        W35630  12.836  16.972  14.090  0.0155 -0.1146 -0.1871
19157W        W35631  14.732  13.639   2.843  0.0356 -0.2114 -0.0932
19158W        W35632  17.456   3.768  14.007  0.1866 -0.0878  0.0355
19159W        W35633  11.624   8.976   4.569  0.2150  0.0368  0.3139
19160W        W35634   1.618   6.414   0.434 -0.0804  0.2964  0.2670
19161W        W35635   1.458  10.361   4.021  0.2652  0.1580 -0.2298
19162W        W35636  16.514  14.609   4.204 -0.0781 -0.0202  0.2930
19163W        W35637   6.350   3.419   5.935 -0.0474  0.3433  0.0669
19164W        W35638   1.998   4.269  13.713 -0.0122 -0.1508  0.4192
19165W        W35639  11.139   4.156  13.268  0.1894  0.0274  0.1749
19166W        W35640  13.297   9.679   3.878  0.1903  0.0375 -0.1644
19167W        W35641   5.325  15.180   3.879  0.0689 -0.1344  0.0889
19168W        W35642   8.183   9.621  12.965 -0.1527  0.2446 -0.0663
19169W        W35643  16.567  11.162  15.062  0.1847 -0.2919  0.0038
19170W        W35644   6.132  11.128  12.920  0.0415 -0.2176 -0.3004
19171W        W35645   9.118   0.951   5.052 -0.1452  0.0413 -0.1522
19172W        W35646   2.206  16.956  13.963  0.1714 -0.1653 -0.2067
19173W        W35647  17.283  17.240  12.681  0.2206  0.1316 -0.0207
19174W        W35648   9.115   8.227  12.696 -0.0669 -0.1958  0.0114
19175W        W35649  12.231  12.254   6.086  0.0947 -0.0981 -0.2585
19176W        W35650   0.432   3.630  10.838  0.2479 -0.1368 -0.0096
19177W        W35651   4.884   8.873   2.733 -0.2087  0.0009  0.0666
19178W        W35652  13.878   0.551  14.554  0.1718  0.0937  0.0784
19179W        W35653  16.687   3.121  12.326 -0.1520  0.5039 -0.4090
19180W        W35654   0.665   0.394  15.102  0.1732  0.2398 -0.3517
19181W        W35655   0.948   3.925  13.254 -0.0880 -0.1647 -0.0785
19182W        W35656  16.529  15.504  14.646  0.2141  0.2184  0.0471
19183W        W35657   9.740   7.559  10.902  0.1319  0.1607  0.3591
19184W        W35658   7.481   1.705  13.331  0.0544 -0.0758 -0.0187
19185W        W35659   2.081   2.307   2.244 -0.0796  0.0398  0.0349
19186W        W35660   0.841   1.117   5.589  0.4304  0.3496  0.0660
19187W        W35661  10.194   9.784   1.925 -0.2040  0.1998 -0.0786
19188W        W35662  12.504   7.200   0.781  0.2369 -0.1096  0.4586
19189W        W35663   6.603  10.486  15.289 -0.3818  0.2219  0.0163
19190W        W35664   9.620  17.549   1.571 -0.0297 -0.0639 -0.1622
19191W        W35665  16.299   2.655   0.538 -0.0674 -0.2535 -0.0054
19192W        W35666  15.648  13.174  11.787 -0.1306 -0.3718 -0.0412
19193W        W35667   1.361   2.995  11.991  0.2135  0.2604 -0.0453
19194W        W35668  17.361   5.248  13.152  0.0697 -0.0043 -0.0929
19195W        W35669   5.798   1.320  11.398 -0.2172 -0.0469 -0.0953
19196W        W35670  17.272   9.376  12.070 -0.1292 -0.0995  0.0103
19197W        W35671   9.007  12.337   4.583  0.0459  0.0004 -0.2130
19198W        W35672  17.640   4.776  12.244 -0.0720  0.0168 -0.6045
19199W        W35673  16.768   4.117   1.423 -0.1143 -0.0195 -0.0552
19200W        W35674   5.970  12.188  12.960 -0.2239  0.1580 -0.0946
19201W        W35675  10.960   1.135   1.412 -0.1266  0.3838 -0.0487
19202W        W35676  11.861   1.444   0.712 -0.0848  0.2246 -0.0896
19203W        W35677   3.113   3.694  11.426 -0.1910 -0.3200  0.1276
19204W        W35678  12.048   0.621   3.042 -0.2106  0.0823 -0.0415
19205W        W35679  16.820   3.205  15.170 -0.0201  0.1248 -0.0613
19206W        W35680   5.699   3.033   4.415 -0.0145  0.0351  0.1171
19207W        W35681   7.828  16.612   3.998 -0.1674  0.0765  0.1056
19208W        W35682   2.371  11.826  16.258  0.1368  0.2039 -0.1391
19209W        W35683  13.499   7.630   0.976  0.2790 -0.3641  0.0360
19210W        W35684  18.141  16.142   4.403  0.3278 -0.0171 -0.4910
19211W        W35685   9.027   9.988  10.000  0.2815 -0.1402  0.2826
19212W        W35686   5.756   4.301   4.295 -0.3460  0.3253 -0.0425
19213W        W35687   1.706   5.187  12.847  0.0723  0.0601 -0.3037
19214W        W35688   7.950   8.832   2.468 -0.0594 -0.1443  0.0730
19215W        W35689  13.702   7.918  11.827 -0.2092 -0.2402 -0.1807
19216W        W35690   2.217  11.345  10.329 -0.1403 -0.0919  0.2085
19217W        W35691  13.166   0.868   5.395 -0.1041 -0.2378  0.0662
19218W        W35692   3.334   2.539  15.550  0.4255 -0.0822 -0.1783
19219W        W35693   8.566  13.819   4.877 -0.1425 -0.0484 -0.0071
19220W        W35694  11.951   6.526  15.858  0.0146  0.0948 -0.0553
19221W        W35695   9.892  14.707   1.837 -0.1747 -0.3081  0.0924
19222W        W35696  16.211  15.851  12.789 -0.0831  0.0399  0.1292
19223W        W35697   7.374  10.628   2.591 -0.2943  0.1230 -0.1111
19224W        W35698   6.132   4.626  14.199  0.1604  0.0592  0.1254
19225W        W35699   5.706  12.283   0.011  0.1604  0.0070 -0.1386
19226W        W35700  17.026  12.839  14.289  0.3442  0.0928 -0.2368
19227W        W35701   5.846   2.857  14.305  0.1809  0.1111 -0.4133
19228W        W35702   0.178   7.932  11.957 -0.1596 -0.1897  0.2138
19229W        W35703   1.058   7.401  14.330  0.1376 -0.2458 -0.1228
19230W        W35704   9.662   7.168  11.875  0.4008 -0.2212 -0.2745
19231W        W35705  13.166  15.724  15.164  0.2387  0.0022 -0.2508
19232W        W35706  10.910   6.667   5.070 -0.2194 -0.0684  0.0629
19233W        W35707  16.986   3.093   3.948 -0.1377 -0.0782 -0.0435
19234W        W35708  11.204  17.153   1.171 -0.0696  0.4912 -0.0864
19235W        W35709  14.564   1.891   2.006 -0.1114  0.2244  0.0328
19236W        W35710   8.175   8.081   5.049 -0.1274  0.0500 -0.0544
19237W        W35711   9.098   5.073  11.875 -0.2033 -0.0062  0.0595
19238W        W35712  15.877  16.342  11.950 -0.0075 -0.0916 -0.2004
19239W        W35713  15.546   7.010  13.240  0.2736 -0.1792  0.2470
19240W        W35714   6.080   6.838   0.649 -0.1835  0.1296  0.0758
19241W        W35715   2.528   4.625   0.011  0.2048 -0.0551 -0.0523
19242W        W35716   0.052   1.228  13.035  0.1403 -0.0996 -0.0467
19243W        W35717   0.165   5.514   1.118  0.2322 -0.1571 -0.2899
19244W        W35718   1.359  11.035   2.213  0.0566  0.0162  0.0406
19245W        W35719   1.674  10.098   1.027 -0.2505  0.0994  0.0777
19246W        W35720  10.880  17.585   4.572 -0.0642 -0.0347  0.0424
19247W        W35721  10.355  15.277  15.542  0.0452  0.2660 -0.0321
19248W        W35722   3.157   0.230   2.647 -0.2258 -0.3148 -0.0299
19249W        W35723  16.590  16.668   1.180  0.2238  0.1224 -0.2975
19250W        W35724   1.299  13.190   1.732  0.3119  0.3922  0.3876
19251W        W35725   1.295  10.652  13.387 -0.0393 -0.2024 -0.2751
19252W        W35726  10.054   8.707  15.769  0.2008  0.1128  0.0668
19253W        W35727  10.782   5.492  13.130 -0.1235  0.5196  0.1566
19254W        W35728   4.579   3.253  11.912  0.1874 -0.0412 -0.2074
19255W        W35729  15.175  11.440  16.262  0.1825 -0.0274 -0.1246
19256W        W35730  15.407   9.564   4.920  0.0403 -0.0244 -0.1372
19257W        W35731   8.274  17.678  12.583  0.0775 -0.1394 -0.3226
19258W        W35732   7.305   4.156  11.257 -0.2717 -0.2063 -0.1625
19259W        W35733   5.512   6.091   0.911  0.1554  0.0593 -0.1739
19260W        W35734   0.161  16.938   5.553 -0.2243  0.2408  0.2344
19261W        W35735   5.066  13.777   0.002 -0.1087 -0.0709  0.1381
19262W        W35736  17.701   5.972   3.385  0.0911 -0.0285  0.2891
19263W        W35737   7.868  10.437  15.172 -0.2332 -0.1861 -0.4642
19264W        W35738   0.740   1.026   2.501  0.0986  0.0520  0.2247
19265W        W35739  11.759  15.529  11.503  0.1674 -0.1591 -0.3080
19266W        W35740   0.018   8.062   2.357  0.0477 -0.0163 -0.1006
19267W        W35741  16.345   6.373  11.820 -0.0224 -0.1812 -0.2586
19268W        W35742   9.427   8.108  15.020 -0.1595  0.2093 -0.0525
19269W        W35743  11.878  15.819  13.890 -0.0890  0.1271 -0.0164
19270W        W35744   4.699  11.758  11.901  0.1334  0.2285  0.0666
19271W        W35745   9.567  15.888   4.443 -0.0460 -0.1482  0.2165
19272W        W35746   8.619  11.919   3.362 -0.0013  0.2050  0.1712
19273W        W35747  13.098  13.871  12.702 -0.0615 -0.1131 -0.0959
19274W        W35748   8.970   2.778   6.362 -0.1155 -0.3728 -0.0101
19275W        W35749  16.418   0.407  13.053  0.1558  0.1150  0.0148
19276W        W35750   5.370   7.078  13.880 -0.1896  0.0388 -0.0546
19277W        W35751  12.426   9.960  14.895 -0.0658  0.0572 -0.2735
19278W        W35752   9.925   9.627   0.826 -0.0561 -0.2307 -0.1306
19279W        W35753  13.804   9.491   4.274 -0.4054  0.0194 -0.1450
19280W        W35754   1.668   5.298  14.834  0.3496 -0.1568  0.1032
19281W        W35755   8.181   0.886   2.945  0.0876  0.2054  0.2332
19282W        W35756  14.516   7.714   3.431  0.2989 -0.2171  0.1596
19283W        W35757   4.212   5.535  14.692  0.0056  0.0597 -0.3427
19284W        W35758   3.370   2.346  12.138 -0.2271 -0.1936  0.2498
19285W        W35759   8.729  15.307   2.334  0.2607  0.0891  0.0202
19286W        W35760   8.067   4.220  15.802  0.2147  0.1823  0.0094
19287W        W35761  11.891   2.418  11.860  0.1981  0.3399 -0.0383
19288W        W35762   0.322   7.450  12.789  0.1766 -0.1791 -0.3020
19289W        W35763   0.686   4.839   3.907 -0.1175 -0.1656 -0.0700
19290W        W35764   4.924  17.004   2.513  0.3705 -0.1046 -0.0419
19291W        W35765   4.595  16.077  16.241  0.3902  0.1245  0.1489
19292W        W35766   3.367  17.829   0.499 -0.2020 -0.0670 -0.2379
19293W        W35767   6.233  15.581  14.180 -0.0108 -0.1666 -0.0068
19294W        W35768  16.411  16.478   0.793 -0.1202  0.0948  0.0899
19295W        W35769   9.269  18.138  12.971  0.1141  0.0132 -0.0020
19296W        W35770   6.614   1.163   2.938  0.2282  0.0498 -0.0811
19297W        W35771  13.025   2.943  14.675 -0.1220 -0.0483 -0.2740
19298W        W35772  10.953   5.184  13.570  0.0673  0.1786  0.2754
19299W        W35773   3.067  13.636   0.365 -0.0437 -0.1382  0.0515
19300W        W35774  11.215   1.295   3.341  0.0489  0.1366 -0.1367
19301W        W35775   9.599  16.112   0.569  0.0806  0.1084  0.3117
19302W        W35776  17.960  13.668  15.322  0.3549  0.0705 -0.3382
19303W        W35777  16.661  16.401   4.559 -0.1222 -0.1154 -0.0861
19304W        W35778   8.792   3.109  14.887  0.0467  0.0723  0.1223
19305W        W35779  10.355   6.735   2.978  0.1954  0.2896 -0.2156
19306W        W35780  15.735  14.130  11.675  0.0613 -0.2853 -0.0960
19307W        W35781   9.151   5.390  15.635 -0.1686  0.2771  0.4822
19308W        W35782  14.611   4.510  12.382  0.1121 -0.2015 -0.0491
19309W        W35783   3.856  11.762   4.145 -0.1578 -0.0424  0.2687
19310W        W35784  12.343   9.071   5.107  0.0871 -0.1486  0.3568
19311W        W35785  10.340  17.900   0.155 -0.2672 -0.1889  0.0331
19312W        W35786   7.588   6.534   3.751 -0.0407  0.0333 -0.2321
19313W        W35787  10.451   0.377   4.143  0.1854  0.2128  0.2614
19314W        W35788   4.519  15.382   1.905  0.1402 -0.2178  0.1982
19315W        W35789  14.987   9.616  13.361 -0.0556 -0.6535  0.1026
19316W        W35790   2.378  14.487  13.198 -0.1357 -0.3770  0.1819
19317W        W35791  13.924   9.044  15.089  0.2570 -0.0667  0.0615
19318W        W35792   7.386  12.847  12.064  0.1919  0.1638  0.2162
19319W        W35793   8.421  17.318  12.159 -0.0715 -0.2124  0.0385
19320W        W35794  15.075   8.390  10.282 -0.0989  0.0438  0.2817
19321W        W35795  16.496  13.602  11.154 -0.0297  0.0664 -0.2127
19322W        W35796  12.923   1.712  13.418  0.0259 -0.0237 -0.2147
19323W        W35797  15.681  14.170  15.086 -0.0444 -0.0914 -0.3392
19324W        W35798   4.697   4.203   0.124 -0.0603  0.0604  0.2312
19325W        W35799   8.326   1.149  15.308 -0.1666 -0.2334  0.2038
19326W        W35800   7.653   9.521  12.735 -0.2039  0.0594  0.2347
19327W        W35801  16.870  12.471   3.222 -0.0099 -0.2566  0.1130
19328W        W35802   6.564  18.059  13.071 -0.3868 -0.0225  0.0376
19329W        W35803   6.031   8.320  15.797  0.0447  0.0477  0.1290
19330W        W35804  16.250  11.585  13.657 -0.2280 -0.0445 -0.0564
19331W        W35805   1.962  16.234   2.053  0.1436  0.1901 -0.0427
19332W        W35806  14.660   8.635  14.118 -0.2510 -0.1806 -0.0346
19333W        W35807  15.629   0.216  15.338 -0.1004  0.2308  0.1295
19334W        W35808  17.821  15.729   4.642 -0.0504 -0.0283  0.0329
19335W        W35809  15.787   1.790  10.806  0.2518  0.0915  0.0426
19336W        W35810  10.258   7.195   1.540 -0.1452 -0.0486 -0.0885
19337W        W35811   0.407   8.714  14.242 -0.0775  0.0248 -0.1969
19338W        W35812   7.390  14.446   4.565 -0.1180  0.4684  0.0521
19339W        W35813  13.097   8.915  14.495 -0.1782  0.0550  0.3414
19340W        W35814  13.785   3.564  15.571 -0.0916 -0.0406  0.2306
19341W        W35815   7.062   5.015   4.554  0.2370  0.0754  0.1222
19342W        W35816   4.607   1.419   2.767  0.3315  0.1586 -0.5467
19343W        W35817   3.528  10.574   3.490 -0.2242 -0.0385  0.2519
19344W        W35818  10.706   7.558   4.415  0.2625  0.2738  0.1040
19345W        W35819   3.572  17.827  15.305  0.0419  0.3300 -0.4990
19346W        W35820  13.833   1.252   1.150  0.1470 -0.0272  0.1220
19347W        W35821   9.928   7.455   5.758 -0.0790 -0.1312 -0.2696
19348W        W35822  17.377  11.402   1.871 -0.1302 -0.1235 -0.2108
19349W        W35823  15.640   3.745   2.111 -0.1114 -0.1423  0.0277
19350W        W35824  15.778  16.687   1.655 -0.0679  0.0763  0.2198
19351W        W35825   7.409   2.245   6.112 -0.1213 -0.5143 -0.0765
19352W        W35826   5.346   4.789   3.755 -0.0890 -0.0404  0.0266
19353W        W35827   7.998  17.475   1.229  0.0101 -0.1375 -0.0050
19354W        W35828  11.538  11.668  15.985  0.0433 -0.0132  0.0711
19355W        W35829   8.026  12.863   2.877 -0.2658  0.0554 -0.0190
19356W        W35830   5.525   7.049   2.899  0.1850  0.2286 -0.1503
19357W        W35831  11.763  12.620  14.797 -0.0906  0.1220 -0.0650
19358W        W35832   3.815  14.075  15.876  0.2426 -0.2987  0.1239
19359W        W35833  14.300   2.946   2.102 -0.1177  0.0045 -0.2787
19360W        W35834   1.847   4.919  15.097  0.1852 -0.0727 -0.2142
19361W        W35835  17.578  11.228  12.651  0.0805  0.1665  0.0427
19362W        W35836   6.404   0.935  16.286  0.1675  0.2093 -0.2171
19363W        W35837  17.568  16.534   4.974 -0.1226  0.0425 -0.3168
19364W        W35838   5.091  10.720   0.033 -0.0640 -0.3003  0.3330
19365W        W35839  14.704   6.891  11.923 -0.1379  0.1565 -0.0745
19366W        W35840  15.649  18.176   0.917 -0.2539  0.2439 -0.0412
19367W        W35841   4.503   9.268  10.888  0.1463  0.1194 -0.0123
19368W        W35842   5.611   7.958  12.808 -0.1785 -0.0374  0.2332
19369W        W35843   3.051  12.827  12.451  0.0676 -0.0715 -0.1241
19370W        W35844   6.903   0.353  13.108  0.1857 -0.0692 -0.0002
19371W        W35845   9.674   0.327  13.583  0.4064 -0.0292  0.1515
19372W        W35846  17.423   8.145  14.511 -0.2187  0.2829  0.2522
19373W        W35847   8.090   3.433  15.994 -0.2345  0.1001  0.2337
19374W        W35848  13.503  10.648  12.638  0.1209  0.1118  0.1249
19375W        W35849   1.806   6.371  12.598 -0.1273 -0.1674  0.0190
19376W        W35850   6.273   6.244   4.362 -0.0791 -0.4775 -0.0633
19377W        W35851  13.941  11.054  14.096 -0.1869  0.2520 -0.0296
19378W        W35852   6.277  15.243   1.719 -0.2241  0.1372 -0.2742
19379W        W35853   3.489   1.587  12.037 -0.1913 -0.1296 -0.0438
19380W        W35854  14.715   5.348  12.559 -0.2908 -0.1611 -0.2085
19381W        W35855  12.451  12.463  11.693 -0.0498 -0.0211 -0.2090
19382W        W35856   1.624  12.329  12.911  0.1822 -0.0675  0.2776
19383W        W35857  11.269   5.093  16.185  0.3581  0.1298 -0.2442
19384W        W35858   5.800  14.538  12.794  0.3969  0.2667 -0.1083
19385W        W35859  15.282  11.088  15.349  0.0258  0.0027 -0.0784
19386W        W35860   5.573   7.485   0.434 -0.1325 -0.0858  0.1987
19387W        W35861   7.617   4.302  15.498  0.0671 -0.0776 -0.1247
19388W        W35862   0.983  18.060  10.685 -0.0752  0.0620  0.3114
19389W        W35863   6.862   7.574   1.778 -0.0278  0.2216 -0.1295
19390W        W35864   6.602  12.610   4.418  0.0590  0.0898 -0.2973
19391W        W35865   1.830  14.084  12.098 -0.0672 -0.1410  0.2391
19392W        W35866  10.297  17.957  14.509  0.0279 -0.0217  0.2730
19393W        W35867  15.661   9.193  14.710  0.1366  0.1511 -0.0509
19394W        W35868   5.967   5.045   2.735 -0.0522 -0.0599  0.1556
19395W        W35869  14.937   1.769  12.119  0.0914 -0.1767 -0.1870
19396W        W35870   7.128  16.831   1.218 -0.2540  0.3620 -0.1478
19397W        W35871  12.591  12.566   2.694 -0.2428 -0.0835 -0.1108
19398W        W35872  17.835  13.549   4.689 -0.3666 -0.0650  0.0115
19399W        W35873   0.550  13.632   2.375  0.1329  0.1013  0.0074
19400W        W35874  17.725   1.803  15.435  0.0162  0.0297  0.0312
19401W        W35875  13.334  11.511  15.131  0.1824 -0.0395  0.1198
19402W        W35876  15.580  13.878   1.972 -0.3532  0.1239 -0.3330
19403W        W35877   6.626   1.353  13.762 -0.0230  0.1659  0.1489
19404W        W35878  16.078   0.599   1.599 -0.0302 -0.1757 -0.0802
19405W        W35879   4.216   0.879  15.159  0.0049  0.0339 -0.1434
19406W        W35880  16.452   8.846   4.870 -0.0155 -0.3056 -0.0693
19407W        W35881  16.290   0.567  14.644 -0.0743 -0.1557  0.1105
19408W        W35882  16.048   3.923  16.134  0.0682  0.0359  0.3946
19409W        W35883  16.532   5.272  10.829  0.1759 -0.1967  0.3296
19410W        W35884  18.096   8.911   5.585  0.1234  0.0308 -0.0298
19411W        W35885  10.825   3.911   4.735 -0.0553  0.1408  0.0435
19412W        W35886  16.207   1.888  15.424  0.1469 -0.1299 -0.1300
19413W        W35887   3.857   1.391   0.000 -0.0370  0.3797 -0.0610
19414W        W35888  11.478   7.794  13.445  0.0697 -0.2222  0.0476
19415W        W35889  13.570  10.693   0.178 -0.0912  0.1322 -0.1055
19416W        W35890  16.050   4.412   0.830  0.3434 -0.0522  0.2074
19417W        W35891   9.409  13.349   2.233 -0.2552 -0.0370  0.0757
19418W        W35892   0.008   2.402   2.132 -0.0513 -0.1757 -0.2479
19419W        W35893   9.076   2.112   3.087 -0.1696  0.2384  0.3410
19420W        W35894   4.869   5.519   2.102  0.1206  0.1775 -0.1294
19421W        W35895  10.157   3.188  15.207 -0.0154  0.3073 -0.3988
19422W        W35896   6.586   5.496   2.353 -0.3827 -0.0094  0.1286
19423W        W35897   6.266  13.266   2.841  0.0378  0.1519  0.0524
19424W        W35898   7.920  16.987   6.059  0.0015  0.0776  0.0038
19425W        W35899  14.560  10.930   0.331 -0.3090 -0.1301 -0.0110
19426W        W35900   2.936  17.297   4.873  0.0328 -0.1482  0.1237
19427W        W35901   1.225   0.752  15.075 -0.0629 -0.0266 -0.2719
19428W        W35902  14.128   3.546   5.424  0.1607 -0.1478  0.1972
19429W        W35903   5.064  15.140   2.556  0.1290  0.3817  0.0615
19430W        W35904   5.954   7.082  14.400 -0.2653 -0.0177 -0.3105
19431W        W35905   6.753  14.842   2.196  0.0373  0.0544 -0.0578
19432W        W35906   8.285  16.281  10.465  0.2379 -0.0134 -0.2268
19433W        W35907  13.353   3.581   2.476 -0.0627 -0.3455  0.1021
19434W        W35908  13.079   7.476   2.552 -0.0128  0.1599  0.1788
19435W        W35909   5.435   8.488  12.678  0.1122  0.0400  0.1654
19436W        W35910   1.256  13.880  16.172 -0.0116  0.0485  0.0621
19437W        W35911   4.460   5.973  13.763  0.2947 -0.0223  0.2097
19438W        W35912   8.086   5.836   1.737 -0.0295 -0.1435  0.0362
19439W        W35913   3.390  18.013   1.550  0.2259 -0.3640 -0.0896
19440W        W35914   5.024   3.752   2.305 -0.1940 -0.0646  0.0457
19441W        W35915  12.587  12.641  13.417 -0.1986 -0.0143 -0.2496
19442W        W35916   0.701   7.259   1.090 -0.1473  0.0257  0.4187
19443W        W35917   5.715  15.601  12.582 -0.0757 -0.1245  0.0291
19444W        W35918   7.666   0.551   5.303  0.1105 -0.0486 -0.0877
19445W        W35919   5.337   5.645  13.695 -0.0153  0.0217  0.0306
19446W        W35920  17.386  16.287  15.179  0.0804 -0.0116 -0.2272
19447W        W35921   5.224  14.019   4.651  0.2039  0.1793  0.0028
19448W        W35922   7.499   2.319   3.125 -0.1247 -0.2053 -0.0903
19449W        W35923   1.289   4.392  13.282  0.1890  0.2978 -0.3202
19450W        W35924   6.176   0.132  15.747 -0.0445 -0.1990  0.1416
19451W        W35925   9.069  10.661   0.573 -0.0216 -0.3208  0.0359
19452W        W35926   8.234  12.825  14.685 -0.2396 -0.1553 -0.1242
19453W        W35927   6.803   5.086  15.196 -0.0590 -0.0788  0.1717
19454W        W35928  12.738   3.258   4.545  0.1281 -0.3298  0.0590
19455W        W35929  11.492   3.225  13.144  0.2138  0.0857 -0.3140
19456W        W35930  16.238  13.627  15.617 -0.1128 -0.0137 -0.2679
19457W        W35931   0.910   9.971   6.203  0.1691  0.1570 -0.1647
19458W        W35932   8.097   0.061  14.655  0.0239  0.3752 -0.0968
19459W        W35933   1.650   5.253  14.281  0.0571 -0.2260  0.1527
19460W        W35934   1.119  17.280   1.892  0.2258 -0.0861 -0.1067
19461W        W35935   8.958   5.555   3.922 -0.0982 -0.0498  0.1542
19462W        W35936  15.926  16.844   3.495 -0.0678 -0.0882  0.1506
19463W        W35937   5.980   5.683  11.971 -0.1851 -0.1329  0.0652
19464W        W35938   5.984   7.616  12.749 -0.1071  0.1440  0.1230
19465W        W35939  14.869  10.063   3.772 -0.0206  0.2477 -0.1368
19466W        W35940   7.013   0.589   4.253 -0.1025  0.0490 -0.0159
19467W        W35941   0.058   5.014   1.310 -0.0372 -0.1269 -0.0346
19468W        W35942   6.151  15.211  15.557  0.0928  0.0859 -0.0979
19469W        W35943  11.673   6.910   2.169  0.3224  0.2626 -0.0365
19470W        W35944   8.856   6.117  15.117  0.0859  0.3343 -0.1351
19471W        W35945   8.991   5.373  10.527  0.0079  0.0632 -0.0309
19472W        W35946   3.451  14.177  13.524 -0.0264  0.1621 -0.0306
19473W        W35947  14.121  13.556  15.030 -0.0064 -0.2381  0.4149
19474W        W35948  14.907   4.323   3.051  0.0045  0.0574 -0.1816
19475W        W35949  15.489   1.702   0.023  0.2135  0.1117  0.1881
19476W        W35950   1.334  12.408   2.148 -0.5721 -0.0437  0.2283
19477W        W35951  10.416   8.877   1.568  0.1686 -0.1958 -0.2672
19478W        W35952   9.859   1.082  11.257 -0.2696 -0.2381  0.0506
19479W        W35953   3.452  17.919   1.038  0.4160 -0.1484 -0.0889
19480W        W35954  10.160   1.388  14.901  0.2174  0.2281 -0.1193
19481W        W35955   8.098  16.755  11.724  0.0765  0.0654 -0.0794
19482W        W35956  15.949  15.844  15.857 -0.2057 -0.3272  0.0147
19483W        W35957  17.319  14.969  15.529 -0.1682  0.0922  0.0559
19484W        W35958   2.091   7.270  13.619 -0.2091 -0.2628  0.0407
19485W        W35959   3.420   9.534   2.253 -0.0595 -0.0619 -0.1079
19486W        W35960   2.690  16.830  15.794 -0.4048 -0.0078  0.1699
19487W        W35961  15.183   2.314  13.988  0.0165 -0.2984  0.4696
19488W        W35962  15.781  16.453   2.134 -0.2740  0.1753 -0.3974
19489W        W35963   2.575  15.645   0.221 -0.1558 -0.3744 -0.0377
19490W        W35964  14.714  15.405   0.204 -0.0483  0.0335 -0.0537
19491W        W35965   2.345   3.644   2.615  0.1280 -0.2124  0.0020
19492W        W35966  17.462   6.086   2.920  0.1227 -0.0960  0.2956
19493W        W35967   7.550  16.964  14.458 -0.0212 -0.2034 -0.2443
19494W        W35968   8.532  13.872  15.066 -0.2365  0.1907  0.1226
19495W        W35969   4.497   0.069   3.921  0.1955 -0.0151  0.0401
19496W        W35970   0.847   0.526   2.421  0.1542  0.0199 -0.0130
19497W        W35971   2.381   9.980   3.122  0.2323  0.0170  0.0884
19498W        W35972   4.109   8.595   4.376  0.2055  0.1503  0.0401
19499W        W35973   8.223   7.746   4.439  0.1470  0.1669  0.0582
19500W        W35974  12.245  17.726  11.429 -0.3357 -0.2307  0.0348
19501W        W35975  11.049  16.218  12.230  0.0673 -0.0725  0.1060
19502W        W35976   0.085   4.679  14.625 -0.0701 -0.2414  0.1246
19503W        W35977   6.458   1.096  14.133  0.1481  0.1174  0.1211
19504W        W35978  16.723  15.215   0.627 -0.0938 -0.1766  0.0713
19505W        W35979   6.539   6.270   3.067 -0.3207  0.2704 -0.1532
19506W        W35980  10.878   7.658   0.401  0.1121 -0.2594 -0.1200
19507W        W35981  15.575  16.502  11.176 -0.2048 -0.1092  0.1923
19508W        W35982   2.951   7.531  16.171  0.1814 -0.0673 -0.1178
19509W        W35983   4.824  12.837   3.554  0.0698  0.2058  0.0601
19510W        W35984  10.521  15.382  14.683  0.0754  0.1595 -0.0689
19511W        W35985  15.310  10.844   1.394 -0.0722 -0.0846 -0.0239
19512W        W35986  16.644   3.342   0.175  0.1510  0.1216  0.0427
19513W        W35987  17.358  15.096   4.693  0.0436 -0.1780  0.1180
19514W        W35988   5.089   3.290  13.073 -0.1733  0.3577 -0.0274
19515W        W35989   6.744   1.097  14.995 -0.1577 -0.0116  0.0040
19516W        W35990  11.277  12.075  11.819  0.0104 -0.0435 -0.2708
19517W        W35991  17.041   0.775   0.200 -0.0829  0.1552  0.1489
19518W        W35992  11.767   6.166  10.954 -0.0073 -0.2354 -0.1769
19519W        W35993  14.021   4.722   4.549 -0.0248  0.0426 -0.0735
19520W        W35994   5.986  15.879   3.875  0.1208  0.0322  0.0707
19521W        W35995  11.473  17.542  11.720 -0.0377  0.1178 -0.1643
19522W        W35996   3.819   1.051   0.623 -0.0194  0.0009  0.2042
19523W        W35997   1.589   7.464   4.268  0.3934 -0.2481 -0.1408
19524W        W35998  14.601   2.573  16.015  0.1374 -0.1537  0.1917
19525W        W35999  15.652   4.226   3.626 -0.0071  0.2096  0.2749
19526W        W36000   1.316   7.290  12.901 -0.0397  0.0233  0.2750
19527W        W36001   1.482   0.329  12.803 -0.1637  0.2231 -0.2230
19528W        W36002  17.184   3.546   2.346  0.1415  0.3606 -0.0227
19529W        W36003  12.310   0.846   2.533 -0.0063 -0.2638 -0.1699
19530W        W36004  17.823   4.912  14.002  0.0861 -0.0057  0.2694
19531W        W36005   3.123  12.945  15.949  0.2583 -0.2826  0.1637
19532W        W36006  15.226  10.658   4.521 -0.0863  0.1901  0.0317
19533W        W36007  10.640  13.022  13.657 -0.1563 -0.0096 -0.1832
19534W        W36008   6.912  11.472   1.215  0.1916 -0.1935  0.0789
19535W        W36009  11.362   9.816  14.296 -0.2530 -0.2023  0.5198
19536W        W36010   2.786  16.670  12.837 -0.0969 -0.2420  0.0897
19537W        W36011   0.237   3.415  11.767 -0.0457 -0.4356  0.0805
19538W        W36012  14.939  11.467  13.216 -0.0255 -0.1960  0.1430
19539W        W36013   6.699   2.147   5.511  0.0989 -0.0227  0.0272
19540W        W36014  13.695  17.152  15.817 -0.2740  0.0882  0.1935
19541W        W36015   6.464  16.030  13.998  0.2024 -0.2833  0.2407
19542W        W36016   6.891   6.880  15.248 -0.1750 -0.0722 -0.2198
19543W        W36017   0.775   6.421  14.143 -0.2377  0.3838  0.1596
19544W        W36018  11.623   8.215  10.748 -0.0236  0.2338 -0.1771
19545W        W36019  13.808  12.344  15.030  0.0491 -0.2718  0.1363
19546W        W36020  17.943   6.332   4.118  0.1287  0.1154  0.1695
19547W        W36021   2.809   9.106  13.062  0.0656 -0.0344  0.3611
19548W        W36022   8.940   1.042   5.853  0.2017 -0.1445 -0.0136
19549W        W36023  16.549   6.432   5.801 -0.0676 -0.0503  0.1310
19550W        W36024   4.281   7.009   3.602  0.3275 -0.0899 -0.0371
19551W        W36025   2.038   6.645   3.537  0.1634  0.1618  0.1042
19552W        W36026  15.592   4.754  12.408  0.0096 -0.0051  0.1025
19553W        W36027  12.880  16.434   4.020  0.0629  0.0200 -0.3750
19554W        W36028  11.310  10.484  12.048 -0.0046 -0.0372 -0.0468
19555W        W36029   1.691  14.903  15.418  0.1353  0.0394 -0.2597
19556W        W36030  10.903  15.810  14.833  0.1694 -0.0108 -0.1193
19557W        W36031   0.779  10.450  15.535  0.1664  0.1584 -0.3138
19558W        W36032   5.344  14.551   3.402 -0.0072 -0.1606  0.0236
19559W        W36033  17.466   1.173   4.087 -0.1288  0.1939 -0.0164
19560W        W36034   2.549  10.216  12.385  0.0230  0.0539  0.2309
19561W        W36035  12.659  15.024   1.649  0.0269  0.0016  0.2929
19562W        W36036   7.898   1.168   2.335  0.0547 -0.1565 -0.0756
19563W        W36037   3.266   1.584  16.308 -0.1089  0.0289 -0.0380
19564W        W36038   5.200   9.180   2.925  0.0397  0.0731  0.0700
19565W        W36039  11.861   0.920  12.560  0.1269 -0.1033 -0.2680
19566W        W36040  10.289  14.340   3.834  0.0159  0.0388  0.3190
19567W        W36041   9.962   1.118  12.007 -0.1305 -0.1967 -0.0925
19568W        W36042  16.796  12.567   4.816  0.0154 -0.3371 -0.1874
19569W        W36043  15.398  12.503  12.771  0.2969 -0.0926  0.1385
19570W        W36044   1.264  15.527   0.779  0.1038  0.1372  0.1608
19571W        W36045   2.681  10.999   4.325  0.1237 -0.2192  0.0356
19572W        W36046   3.237  10.267   1.812 -0.2710  0.1589 -0.0462
19573W        W36047   2.553   4.055   3.226 -0.2183 -0.1837 -0.3245
19574W        W36048   1.215   9.199   1.972 -0.2448 -0.1615 -0.0739
19575W        W36049  14.787  12.768  16.004  0.0217  0.1589 -0.0623
19576W        W36050   6.441  17.882   3.580  0.0156 -0.1513 -0.0967
19577W        W36051  18.175   4.975   5.120 -0.2689 -0.3036 -0.1315
19578W        W36052   8.390   5.935   0.992  0.2960  0.2302  0.1242
19579W        W36053  12.191   5.690   5.022  0.3043  0.0400 -0.2174
19580W        W36054  14.039   9.508   2.530  0.1144  0.0845 -0.0489
19581W        W36055   3.496  16.466   0.971  0.1869 -0.1141 -0.1646
19582W        W36056   3.192  12.726  14.639 -0.0811 -0.0543 -0.0123
19583W        W36057   4.516   8.621   0.987 -0.2137  0.1198  0.3284
19584W        W36058  17.213  16.925   1.591 -0.0952  0.1311  0.0856
19585W        W36059   6.024  15.830  13.825 -0.0428 -0.2840 -0.1346
19586W        W36060   7.693   3.156   2.883  0.1230 -0.1836  0.0520
19587W        W36061   6.666   6.803   1.583  0.3961 -0.1975 -0.1240
19588W        W36062   7.937   8.136  13.855  0.2089 -0.1186 -0.2969
19589W        W36063  17.144  15.045  14.975 -0.1567  0.1630  0.0605
19590W        W36064   9.602  17.317  13.533  0.4096  0.0396 -0.0535
19591W        W36065   4.968   1.565   2.428 -0.2086 -0.0856 -0.1657
19592W        W36066  11.583  11.248   2.831 -0.0731  0.1144  0.0291
19593W        W36067  10.820  11.940  13.503  0.0267  0.0525 -0.3388
19594W        W36068  10.387   0.022   3.633 -0.0014  0.0474  0.2306
19595W        W36069  13.886  17.780   1.497 -0.1525 -0.1100  0.2280
19596W        W36070   0.840   8.121   3.887  0.0366  0.2200  0.1335
19597W        W36071  14.896   2.675  11.090 -0.3075  0.1094  0.2128
19598W        W36072  14.527   0.392  13.349 -0.3327 -0.0090  0.2100
19599W        W36073  14.890   9.067  16.092 -0.4503 -0.1489 -0.0447
19600W        W36074  13.799   8.146   2.306 -0.0080  0.2135  0.1536
19601W        W36075  13.766  16.495   2.018 -0.1661  0.0783  0.0651
19602W        W36076   9.322  16.765  12.216  0.1079 -0.1604  0.1889
19603W        W36077   6.167  15.503   0.693 -0.0814  0.1257 -0.0671
19604W        W36078  18.111   3.365   4.864  0.2357 -0.0384 -0.4543
19605W        W36079   5.644  16.800  11.790 -0.0069  0.0261 -0.0189
19606W        W36080  13.135   3.664   5.175  0.0699  0.0345  0.0208
19607W        W36081  11.935   8.310   4.670 -0.0827  0.2700 -0.1028
19608W        W36082  16.151   0.088   0.843  0.1983  0.0979  0.1812
19609W        W36083   8.996  14.455  16.346  0.1026  0.0004  0.1499
19610W        W36084   0.327   9.512   0.040 -0.1062 -0.0534 -0.0224
19611W        W36085  10.362   1.440   3.053 -0.3692  0.1009  0.2633
19612W        W36086   6.592   7.527  11.585  0.1242  0.1139  0.0497
19613W        W36087   7.160  13.937   4.026 -0.0000  0.1584 -0.2996
19614W        W36088   2.189   1.408  13.003  0.3313  0.0923  0.3392
19615W        W36089   2.883  17.148  14.818  0.0205 -0.1184  0.2101
19616W        W36090   1.527   1.011   0.905  0.1053  0.1061  0.0554
19617W        W36091  12.597   9.769   2.669  0.0132 -0.0462 -0.1319
19618W        W36092  12.395   1.093   1.510 -0.3096  0.1032 -0.0259
19619W        W36093   0.403   5.782  15.396  0.1010  0.0386 -0.0894
19620W        W36094  16.002  12.404  12.375  0.0627  0.0523  0.1444
19621W        W36095   6.887  14.225  14.213 -0.2710 -0.0554  0.1417
19622W        W36096  17.600   8.719  12.204 -0.3054 -0.0400  0.1340
19623W        W36097   3.037   2.979   5.187  0.2743 -0.0537  0.0195
19624W        W36098   7.369  12.461   2.133 -0.0692 -0.1646  0.0474
19625W        W36099   8.271   3.890  16.106 -0.1469 -0.0589 -0.1267
19626W        W36100  17.162  14.936   6.531  0.1465  0.3599 -0.0234
19627W        W36101   1.929  11.990   4.004 -0.1369 -0.0186 -0.1411
19628W        W36102  12.166   9.655  13.143  0.0861 -0.2109  0.0224
19629W        W36103   0.403   8.919   5.472  0.1621 -0.1322 -0.3395
19630W        W36104  14.961  17.249   4.023 -0.1090 -0.2657  0.2403
19631W        W36105  11.547   1.932  16.126 -0.0183  0.3074 -0.1172
19632W        W36106  14.884  10.554   5.004 -0.1082  0.2055 -0.0823
19633W        W36107  13.309   0.574   0.161  0.1147  0.0617 -0.0343
19634W        W36108   9.618   2.387  14.830  0.1654 -0.2140 -0.2697
19635W        W36109   6.147  10.075  16.117  0.0104 -0.2417  0.2535
19636W        W36110   3.489   8.143   3.129 -0.2403  0.1480 -0.1075
19637W        W36111   5.859  17.996   3.493 -0.0744 -0.1956  0.1574
19638W        W36112   2.370  14.079   0.791 -0.2516 -0.1399  0.0089
19639W        W36113   7.166  17.768  11.994 -0.0727  0.3445 -0.0934
19640W        W36114   2.782   5.494   3.919  0.0883 -0.0338  0.0322
19641W        W36115   0.313   4.051   4.267 -0.4408  0.1249  0.3785
19642W        W36116   5.931  16.303  14.313  0.0512 -0.0442 -0.2330
19643W        W36117  10.911   4.665  14.481 -0.0467  0.2070 -0.1554
19644W        W36118   3.580   8.662   2.344  0.1883 -0.0063 -0.0370
19645W        W36119   1.875   4.257  12.057  0.0344  0.2824  0.1366
19646W        W36120  14.720   9.776  14.284 -0.1535  0.2652 -0.2835
19647W        W36121   4.897   2.767  15.523 -0.3252  0.0344  0.0789
19648W        W36122  12.971  15.405   3.892  0.3405  0.2242 -0.0733
19649W        W36123  17.662   6.494   0.817 -0.2715  0.0229 -0.1483
19650W        W36124   0.477   7.691   5.309 -0.1637  0.0228  0.4192
19651W        W36125   3.807   3.957   4.559  0.1615  0.0811  0.1171
19652W        W36126  17.565   1.584   4.420  0.3903  0.2769 -0.0499
19653W        W36127  11.115  17.175   0.520  0.0484 -0.0592 -0.1542
19654W        W36128   5.865  14.565   1.877 -0.2130 -0.2266 -0.0808
19655W        W36129  16.142  10.030   1.317 -0.1661 -0.0321 -0.0941
19656W        W36130  15.816  10.466   5.344 -0.1932 -0.1350  0.4551
19657W        W36131  14.832   4.893   5.597  0.2072  0.0936  0.0241
19658W        W36132   5.592  12.082   1.919  0.0386 -0.3289 -0.0037
19659W        W36133   6.373   2.999   0.832 -0.0442 -0.0700  0.2209
19660W        W36134   1.927   7.695   5.507  0.0278  0.1307  0.0095
19661W        W36135  16.047   0.460  15.070  0.1880  0.1300  0.1194
19662W        W36136   0.120  13.008  13.395  0.2330  0.0544  0.1391
19663W        W36137  17.875  17.720  11.102  0.1186 -0.0120 -0.1664
19664W        W36138   0.757   3.613  11.731  0.2849  0.1053 -0.0539
19665W        W36139   5.312   6.484  12.108  0.1663 -0.0499 -0.4053
19666W        W36140   2.716   5.143   2.820 -0.1471  0.1702 -0.2425
19667W        W36141   6.630  10.092   4.835 -0.0928 -0.0113 -0.1148
19668W        W36142   4.146  10.642   4.614  0.0135  0.0952 -0.0032
19669W        W36143  17.776   1.108   3.702 -0.0585  0.0146  0.2509
19670W        W36144   1.592   3.012  13.827 -0.3061 -0.0629  0.2200
19671W        W36145   1.315  17.483   2.737  0.0514  0.2787 -0.2574
19672W        W36146  11.514   6.896   0.802  0.0827 -0.0251  0.0605
19673W        W36147  11.363   4.793   3.680 -0.2480  0.1367 -0.1128
19674W        W36148   7.048  18.048  13.231  0.2438  0.1679  0.2412
19675W        W36149   4.458  11.353   2.433 -0.0562  0.3577  0.0032
19676W        W36150   4.165   4.359   1.981 -0.1803 -0.0301 -0.0448
19677W        W36151   8.915   4.641  14.696  0.1334  0.1167 -0.0655
19678W        W36152   1.678  13.284  15.676 -0.0671  0.0935 -0.0486
19679W        W36153   1.236  13.620   0.264  0.0954 -0.2604  0.1425
19680W        W36154  14.312   9.566   0.980  0.0106 -0.1534  0.1991
19681W        W36155   6.270  15.532   3.540  0.2145 -0.2740  0.1908
19682W        W36156   1.673   8.314  14.290 -0.2904 -0.0641  0.3455
19683W        W36157   8.542   7.633  14.623 -0.0526  0.0136 -0.2682
19684W        W36158   8.612  16.660   3.048  0.2163  0.0109 -0.0274
19685W        W36159   6.892  18.108  12.261 -0.0818  0.3199  0.2538
19686W        W36160  10.716   8.220  12.934  0.2943 -0.1171 -0.2423
19687W        W36161   1.872   6.040   1.687  0.3755  0.2889  0.2325
19688W        W36162  14.942   8.666   5.592 -0.0067  0.0671  0.0039
19689W        W36163  13.921  14.961   5.123 -0.0577 -0.2578  0.2412
19690W        W36164   2.636  17.913   1.579  0.0008 -0.0910 -0.2765
19691W        W36165   3.509  13.057  14.942  0.0491 -0.1747 -0.2001
19692W        W36166   5.062   1.658  12.538  0.1915 -0.2514  0.0283
19693W        W36167  15.641   7.322  13.621  0.0552  0.0964  0.0323
19694W        W36168   7.821  10.746   1.371 -0.0614 -0.0843  0.0157
19695W        W36169  15.736   9.983  13.255 -0.2961 -0.4721  0.0714
19696W        W36170   5.042   5.684   0.925 -0.4163 -0.0620 -0.0345
19697W        W36171   8.221   1.015   4.778  0.0225  0.3886 -0.2053
19698W        W36172   3.900  11.989  15.323  0.0881  0.0187 -0.0228
19699W        W36173  12.241   0.700  14.828 -0.2537 -0.2608  0.0485
19700W        W36174   5.529   2.453   1.497 -0.4281 -0.2277  0.1734
19701W        W36175   4.965  12.422   3.317  0.0761 -0.0867  0.0699
19702W        W36176   5.351  17.691   2.935  0.1411  0.2056 -0.0431
19703W        W36177   6.702  12.535   4.916 -0.0655  0.0664  0.2955
19704W        W36178   5.051  15.042  16.307  0.0841  0.1178 -0.1443
19705W        W36179  13.956   2.546   4.602 -0.1524  0.1543 -0.2366
19706W        W36180  15.012  17.661  15.476  0.1198  0.0015 -0.1287
19707W        W36181  10.755  14.887   5.773 -0.0037  0.2669  0.0607
19708W        W36182   1.972   8.843  15.273 -0.3015  0.1197 -0.0109
19709W        W36183   9.332  15.300   0.424 -0.0203 -0.2205  0.4837
19710W        W36184  17.899   1.219   0.379 -0.0644  0.1809 -0.1145
19711W        W36185   1.557  15.261  13.246  0.3505 -0.3861 -0.3812
19712W        W36186  12.558   6.720   5.152 -0.2298  0.0939 -0.2378
19713W        W36187   5.206   8.838   1.956 -0.1355 -0.0216  0.6012
19714W        W36188   7.095   2.570  15.786  0.3013 -0.2094  0.2310
19715W        W36189   1.638   4.142  12.613 -0.2538  0.0012 -0.1156
19716W        W36190   7.686   6.615  12.758  0.3288 -0.0220 -0.1940
19717W        W36191  12.393  16.017  12.437  0.1749  0.1012 -0.1315
19718W        W36192   3.403  13.972   0.701 -0.1026  0.0868  0.1648
19719W        W36193   9.094  17.996  14.878  0.1869  0.2434  0.2355
19720W        W36194   1.597   0.834   3.108  0.0729 -0.2147 -0.3806
19721W        W36195  16.898  14.554   3.896 -0.3422 -0.0227 -0.2831
19722W        W36196  16.786  12.891   1.284 -0.0506  0.1276  0.1706
19723W        W36197   4.006   9.798  16.193 -0.1338  0.1916 -0.0824
19724W        W36198   9.249  11.333   3.820  0.1043  0.0238  0.0225
19725W        W36199   9.241  17.017   0.364  0.2803  0.0943  0.1122
19726W        W36200  10.838   7.921   4.848 -0.1161  0.0462 -0.1835
19727W        W36201   1.410  14.418  13.466 -0.2161  0.2597  0.1155
19728W        W36202   8.200   9.958   1.417  0.1111  0.0905  0.0229
19729W        W36203  11.660  14.063  12.732  0.0485 -0.4074  0.3342
19730W        W36204   7.774   9.339  11.788 -0.0913 -0.0521 -0.2157
19731W        W36205   5.144  12.764   0.276  0.2237 -0.0604  0.0524
19732W        W36206  11.723  15.932   0.998 -0.1845  0.0013 -0.3419
19733W        W36207   5.316   9.688  14.387  0.0740 -0.0354  0.0516
19734W        W36208   4.342   8.973   2.767  0.0007 -0.0482  0.0918
19735W        W36209   6.170  15.243  12.300  0.0598 -0.1242 -0.1009
19736W        W36210  14.429  11.649  14.921 -0.2633  0.1106  0.3035
19737W        W36211  15.324   5.448  15.397  0.1476  0.2336 -0.0638
19738W        W36212   4.311  10.521  15.576 -0.4685  0.1283 -0.0997
19739W        W36213   6.570   9.451   3.850  0.1236 -0.1078 -0.1186
19740W        W36214  13.853  13.227  14.153 -0.1052 -0.1117 -0.0605
19741W        W36215  13.972   7.434   1.204  0.2001 -0.2010  0.2522
19742W        W36216  10.005  16.422   0.654  0.2449  0.2392 -0.2305
19743W        W36217  17.644   7.684  14.716 -0.1888 -0.1719 -0.3029
19744W        W36218  10.434  17.122  16.095  0.0687 -0.0009  0.0186
19745W        W36219   4.898  13.277   5.426  0.2409  0.1810  0.0692
19746W        W36220  11.414   5.211   2.725  0.0320  0.0640 -0.0860
19747W        W36221   5.527  14.815   4.221 -0.2297 -0.0161 -0.0489
19748W        W36222   6.921   0.922  15.458 -0.0781  0.3188 -0.1656
19749W        W36223   4.098  15.226   1.110 -0.1147 -0.2123  0.2689
19750W        W36224   4.963   2.650   0.787 -0.0513  0.0111 -0.2679
19751W        W36225   8.100  17.730  12.134 -0.3188 -0.2085 -0.3173
19752W        W36226  17.206  10.126  11.509 -0.0768  0.0129  0.1999
19753W        W36227   1.983   6.312  13.337  0.0682 -0.1311 -0.1891
19754W        W36228   4.021   3.606   4.185 -0.0968 -0.0203 -0.1857
19755W        W36229  13.745   0.789   4.536 -0.0277  0.0847 -0.1429
19756W        W36230  12.465   2.456   2.577  0.1482  0.1219 -0.1452
19757W        W36231   9.903   8.605  14.939  0.2576 -0.2153 -0.3512
19758W        W36232   8.917  11.954  15.548  0.0213  0.0634  0.2560
19759W        W36233   7.840   5.092  11.818 -0.1443 -0.0556  0.1565
19760W        W36234   8.881   6.669  14.529  0.2632 -0.0230 -0.3513
19761W        W36235   5.941   6.384   0.803 -0.1795 -0.2092  0.2247
19762W        W36236   6.315  12.668  11.280 -0.3142  0.1169 -0.2007
19763W        W36237   2.609  11.614  12.606 -0.1958 -0.2077 -0.1491
19764W        W36238  17.710   5.251  11.989  0.2372  0.3026 -0.1294
19765W        W36239   4.682   5.022   3.277 -0.1690  0.2172  0.1442
19766W        W36240   6.516   9.549   4.712  0.0077 -0.2853  0.1611
19767W        W36241  17.038  15.711   5.226 -0.1113  0.3178 -0.2946
19768W        W36242  16.557   4.789  15.148 -0.1458  0.1709 -0.0682
19769W        W36243   0.886   7.021   2.752 -0.0526 -0.0817 -0.0326
19770W        W36244   3.848  14.957  12.541 -0.0421 -0.2507  0.1086
19771W        W36245   5.209   4.263  15.799 -0.0527  0.0922 -0.2606
19772W        W36246  15.668  13.557   1.600  0.2581  0.0020  0.1165
19773W        W36247   7.505   2.850   1.025  0.1826  0.1059 -0.0337
19774W        W36248   9.330  17.088  11.758 -0.1692  0.2020 -0.0797
19775W        W36249  15.087  15.104   2.729  0.0246  0.3950 -0.2503
19776W        W36250  12.458   7.100  13.821  0.2154  0.0832  0.1398
19777W        W36251   9.103   1.497   4.076 -0.3710 -0.0002  0.1326
19778W        W36252  11.716   5.864  12.914  0.3734 -0.0059  0.2516
19779W        W36253  15.670  15.314   0.287 -0.2433 -0.1920  0.1232
19780W        W36254   0.645   9.248   3.144  0.1881 -0.1445 -0.0217
19781W        W36255  12.604  14.417  12.220  0.0100 -0.0426  0.0235
19782W        W36256   4.889   5.143  11.810 -0.0152 -0.3891 -0.2122
19783W        W36257   7.400   4.906   4.967 -0.3136  0.1531 -0.0376
19784W        W36258   0.005   8.969   6.085 -0.3348 -0.2106 -0.1086
19785W        W36259  15.271   9.335   5.820  0.0315 -0.0417 -0.1025
19786W        W36260   0.681   5.113   6.012  0.0977  0.2387  0.1334
19787W        W36261   8.854   7.052  14.910  0.2194 -0.0634 -0.3095
19788W        W36262   4.297  14.963  14.762  0.2693  0.1003  0.0783
19789W        W36263   5.873  12.809  11.526 -0.3571 -0.1810  0.2723
19790W        W36264  12.345   0.886   4.403 -0.1028  0.2121 -0.0604
19791W        W36265   5.252   2.323  15.453 -0.2508  0.3085 -0.3985
19792W        W36266   3.729  15.433   1.515 -0.3585 -0.0667  0.0384
19793W        W36267   4.348  11.584   4.246  0.2516  0.1688  0.0030
19794W        W36268   6.840  13.993  13.405 -0.1695 -0.2569 -0.1437
19795W        W36269  12.092  11.294   2.087  0.0445 -0.0965 -0.0459
19796W        W36270  12.254  14.206  13.106 -0.0379  0.0147 -0.2000
19797W        W36271  10.192   1.670   1.458  0.0935  0.0946  0.0715
19798W        W36272   0.461   0.319   1.350  0.0771  0.0217 -0.1237
19799W        W36273   1.739   3.382  12.099  0.1528 -0.2165 -0.2172
19800W        W36274   6.659   2.100   0.553  0.0593 -0.1512 -0.3660
19801W        W36275  11.339  11.240   2.392 -0.0669 -0.2599  0.0964
19802W        W36276   8.927  18.147  15.762 -0.2719 -0.1209  0.1437
19803W        W36277  10.459  13.034   3.114 -0.2269 -0.0862 -0.1389
19804W        W36278   0.217  13.518   4.575  0.2068 -0.2025 -0.1198
19805W        W36279  14.343  16.760   4.660  0.0346  0.0124 -0.0949
19806W        W36280   4.744   0.758  11.717 -0.3693 -0.1340  0.0800
19807W        W36281   5.929   9.676   2.806 -0.0580 -0.4698 -0.2943
19808W        W36282   0.521  17.217  15.739 -0.0647 -0.2323  0.1994
19809W        W36283  17.412   4.996   2.397  0.0004  0.0303 -0.0235
19810W        W36284  16.434   1.810  13.128  0.0318  0.2165  0.0937
19811W        W36285   8.680   1.521   3.782  0.6210  0.0162  0.1552
19812W        W36286   7.266   6.875  12.640 -0.1571 -0.0072 -0.1998
19813W        W36287  17.068  11.648   5.389  0.0851 -0.1021  0.2790
19814W        W36288  12.141   0.177   3.178  0.0021  0.3506  0.2489
19815W        W36289  10.596  12.013  16.094  0.2226  0.0732 -0.0845
19816W        W36290  16.516  11.372   1.961 -0.0407  0.3726 -0.2240
19817W        W36291  14.003   3.845  12.965 -0.0588 -0.2830 -0.0124
19818W        W36292  12.593  13.578  16.226 -0.1332  0.3861  0.3498
19819W        W36293  12.919   2.311  15.206 -0.0995 -0.0047 -0.0435
19820W        W36294   8.067   4.124   3.622  0.0569 -0.0057  0.2066
19821W        W36295   0.506   3.342   1.098  0.2577  0.1509 -0.0593
19822W        W36296   3.681   4.855  11.082  0.0200  0.1327 -0.1093
19823W        W36297   5.826   5.176   3.176 -0.0506 -0.0278 -0.0744
19824W        W36298  10.167   4.092  15.864  0.1559  0.4502 -0.0971
19825W        W36299   2.386  10.527   0.041  0.4205 -0.0030 -0.1477
19826W        W36300   8.300  16.631   6.162 -0.0463 -0.0020 -0.2000
19827W        W36301   3.608   9.359  15.603  0.1762  0.0552  0.1279
19828W        W36302  10.276  12.343   4.705 -0.1248 -0.1230 -0.0616
19829W        W36303   9.583   0.671   1.987  0.0654 -0.1675 -0.4341
19830W        W36304  16.493   5.700  15.608  0.0400  0.1974 -0.0577
19831W        W36305  14.029   3.060  16.178  0.1968 -0.1597  0.4898
19832W        W36306  16.130  16.335  14.674 -0.0751  0.0438  0.2234
19833W        W36307  12.460  10.681   1.683  0.0292  0.1888  0.2018
19834W        W36308  13.288  14.175  11.768  0.1527  0.0213 -0.1007
19835W        W36309   7.130  15.897   1.305 -0.0509 -0.0415  0.0026
19836W        W36310   9.099  11.789   2.452  0.1673  0.1119  0.4183
19837W        W36311  10.964   6.544   1.510 -0.0068 -0.2514  0.1152
19838W        W36312   8.059   7.013  11.640 -0.1480 -0.1667  0.1898
19839W        W36313  14.266   9.721  14.520  0.0249 -0.1502 -0.1341
19840W        W36314   8.946   3.261   2.692  0.6290 -0.3501 -0.0755
19841W        W36315  14.288   2.832   1.386  0.2093 -0.0800 -0.0033
19842W        W36316  16.981  10.663   3.605 -0.2951 -0.0904 -0.1463
19843W        W36317  17.311   5.137  12.710  0.0417 -0.2442 -0.0059
19844W        W36318   7.771   6.719  11.960  0.3609 -0.0061  0.1787
19845W        W36319   2.543   2.206   1.260 -0.3374  0.0039  0.0664
19846W        W36320   2.618   2.437   3.847 -0.0573 -0.0713  0.0324
19847W        W36321  15.011   9.513   5.374  0.0809  0.1672 -0.1890
19848W        W36322  12.816  10.799  14.188 -0.1209 -0.0865 -0.1631
19849W        W36323  16.011   1.367  11.965  0.1206  0.0548  0.0840
19850W        W36324   0.438  13.605  15.587 -0.0808  0.3811  0.0358
19851W        W36325   6.225  13.521  10.852  0.0339  0.3387  0.3463
19852W        W36326   1.668   7.889  14.849  0.1449  0.2362  0.3852
19853W        W36327   4.838  10.225  13.336  0.1310  0.2353  0.2168
19854W        W36328   1.948  16.449  11.779  0.0249 -0.1496  0.1454
19855W        W36329  11.139   8.287   0.962  0.1810 -0.1172 -0.1574
19856W        W36330  13.115   9.131  14.017 -0.0998  0.0927 -0.1624
19857W        W36331  11.171   1.721   3.606  0.4703 -0.2153  0.4269
19858W        W36332  14.904  14.367  15.255  0.0162  0.0752  0.1574
19859W        W36333   6.149  12.690  13.184 -0.1072  0.0385  0.0737
19860W        W36334  11.254  15.184   3.066 -0.1673  0.3692  0.2463
19861W        W36335   5.829   4.203  11.834 -0.1027 -0.0667  0.1689
19862W        W36336   5.058   9.004   4.253 -0.1129 -0.1708  0.1066
19863W        W36337   0.402   1.217  12.077  0.0879  0.1498  0.0735
19864W        W36338  16.628  12.183  12.277 -0.0581  0.1280  0.0672
19865W        W36339   7.976  14.556   2.639 -0.0787  0.1557 -0.2174
19866W        W36340  12.247   3.284  10.467 -0.0396 -0.1722  0.0618
19867W        W36341   3.862   3.993  12.636  0.0873  0.0198 -0.0703
19868W        W36342   4.462  10.176   3.022  0.2549 -0.0559  0.1064
19869W        W36343   5.579   8.663  14.985 -0.0536  0.1360  0.1517
19870W        W36344  14.457   8.304  13.297 -0.0169 -0.0101 -0.0317
19871W        W36345   4.093   6.962   1.094 -0.0942 -0.1258 -0.3304
19872W        W36346  16.040  10.056  15.621  0.1163 -0.0308  0.1187
19873W        W36347   3.608  17.611   5.563 -0.1758  0.1612 -0.2521
19874W        W36348   8.128  10.098   3.688 -0.3752  0.1325  0.0388
19875W        W36349   3.414   7.115  15.111  0.3147 -0.0794 -0.1720
19876W        W36350  16.373  16.701  12.708 -0.0031  0.1246 -0.2597
19877W        W36351  14.878  17.175   1.686 -0.1752  0.0266  0.4039
19878W        W36352   1.419  17.930  14.389  0.1582  0.4317  0.0894
19879W        W36353   7.009   3.355   3.960  0.3378  0.0922 -0.1480
19880W        W36354  17.902  10.537  12.105  0.0853  0.2492  0.1307
19881W        W36355  15.354   1.659   0.820  0.3741  0.0313  0.1185
19882W        W36356   0.088   8.770  15.155 -0.0965  0.0718 -0.1177
19883W        W36357   9.350  10.136   2.324 -0.0885  0.2741  0.1249
19884W        W36358  10.173   3.206  12.942  0.2404 -0.1349 -0.2608
19885W        W36359   2.552  17.964   2.068 -0.2040  0.0257 -0.0278
19886W        W36360   4.924   3.329   3.131  0.0421  0.3131  0.0789
19887W        W36361  12.491  13.310  15.805 -0.1094  0.0712  0.4591
19888W        W36362  14.634   7.904   4.340 -0.1965  0.0806  0.1391
19889W        W36363   8.720  11.235   0.208 -0.1716 -0.2385 -0.0928
19890W        W36364  15.840  10.740  13.176 -0.2751 -0.0281 -0.2015
19891W        W36365   3.683   0.577  12.661 -0.0643  0.1806  0.0105
19892W        W36366  13.829   8.115  13.645  0.0409 -0.2405  0.3114
19893W        W36367   8.656   0.881   4.523 -0.1210 -0.0260 -0.3681
19894W        W36368   4.271   5.358   1.249  0.2751 -0.0440 -0.1086
19895W        W36369   6.542   5.260  10.471  0.0228  0.1261 -0.0231
19896W        W36370   5.015   3.774   5.098 -0.1040  0.1589 -0.2552
19897W        W36371   5.094   7.263  15.878  0.0599 -0.0408 -0.0775
19898W        W36372  14.064   4.939  12.042  0.2066  0.1586  0.1232
19899W        W36373   5.493   2.421  12.880 -0.0669 -0.0032  0.0201
19900W        W36374  10.634   0.934  11.515  0.2179  0.1794 -0.0250
19901W        W36375  13.374   2.525   2.121 -0.0333  0.0387  0.1483
19902W        W36376   8.260  17.996  11.300 -0.1609  0.1157 -0.2398
19903W        W36377   6.166  11.482   4.266  0.0386 -0.0617  0.1113
19904W        W36378   1.387   9.671   1.916  0.2573 -0.0348  0.0038
19905W        W36379   5.744   9.435   3.273 -0.0868 -0.2974  0.2122
19906W        W36380   2.198  11.491   5.543  0.0255 -0.0556  0.2540
19907W        W36381   4.431   9.759   1.112  0.0696  0.1670 -0.2448
19908W        W36382  11.276  12.740  15.595  0.1091  0.1075 -0.2185
19909W        W36383   0.949   6.786  16.072  0.0635  0.3616  0.1468
19910W        W36384   1.262   3.681   4.378  0.0165 -0.0369 -0.0473
19911W        W36385  16.914   8.528   4.404  0.1699 -0.2291  0.1012
19912W        W36386   4.041  17.864  12.782  0.2892 -0.0559  0.0997
19913W        W36387  10.195   0.492   3.701 -0.1820 -0.0510 -0.1804
19914W        W36388   2.020  17.507  13.668 -0.3994 -0.3308  0.1562
19915W        W36389  14.977   1.794  14.920  0.1024 -0.2463 -0.1279
19916W        W36390  12.890  17.847   5.024 -0.0093 -0.0268  0.3517
19917W        W36391   3.227  16.420  12.860  0.1172 -0.1190  0.0110
19918W        W36392   4.270   2.527  12.244  0.0941  0.0641  0.0370
19919W        W36393  16.040  16.760  14.036 -0.0416 -0.1056  0.1235
19920W        W36394   4.446   0.122   0.987  0.1944 -0.0404  0.0030
19921W        W36395   7.980  16.261  13.192 -0.0119 -0.1835  0.1061
19922W        W36396   4.216  12.963   1.717  0.2340  0.2670 -0.1164
19923W        W36397  10.678   1.517  14.754 -0.3694  0.0297  0.2856
19924W        W36398   4.884   3.664  11.085 -0.1828  0.4837 -0.0519
19925W        W36399   7.342  15.776  15.326  0.0776 -0.2516 -0.0687
19926W        W36400   4.500  11.294   4.862 -0.1642  0.0526  0.0883
19927W        W36401   3.385   6.514  15.885 -0.2287  0.0244  0.3430
19928W        W36402  11.881  15.451  13.598 -0.0151  0.2213  0.3883
19929W        W36403   0.482   6.053   5.824  0.1785  0.1056  0.1984
19930W        W36404   7.095   1.433  11.474  0.2376 -0.1269  0.0203
19931W        W36405   3.811  16.144   2.271  0.1916  0.1523 -0.2012
19932W        W36406  12.299  16.601   5.108  0.1857  0.0996 -0.1017
19933W        W36407  15.675   5.138  15.768  0.0110  0.0537 -0.2161
19934W        W36408   9.208  16.530   0.721 -0.2221  0.1102 -0.0027
19935W        W36409  17.512   4.267  12.161 -0.0228  0.4256 -0.1293
19936W        W36410   7.136   3.598   4.849 -0.0557  0.1006  0.0774
19937W        W36411   8.546   8.808  12.712 -0.0212  0.1658 -0.0146
19938W        W36412  15.827   6.566  13.523  0.0196  0.0120 -0.1175
19939W        W36413   7.770   8.541   0.880  0.1900 -0.1871 -0.0190
19940W        W36414  10.865   2.306   4.881 -0.0841 -0.2461  0.0540
19941W        W36415   3.505  14.677  14.778 -0.1958 -0.1298  0.0619
19942W        W36416   3.434  10.825  14.945  0.0655 -0.1250  0.1110
19943W        W36417   0.155   2.391  14.991 -0.0775 -0.1835 -0.2326
19944W        W36418  13.748   6.117   0.816  0.2860  0.3509  0.0086
19945W        W36419  14.245   6.755  12.197 -0.3129 -0.3957  0.1485
19946W        W36420  14.362   5.597   4.162 -0.0410 -0.0661 -0.0743
19947W        W36421  14.203  17.098  13.825 -0.0198  0.2318 -0.0698
19948W        W36422  10.079   4.699   3.863  0.2438  0.1943  0.2503
19949W        W36423  13.851   0.503   2.748 -0.0317  0.0414 -0.0116
19950W        W36424  17.386   2.333  13.272 -0.1137  0.0741 -0.1094
19951W        W36425  10.709   9.264   3.773  0.1935  0.2421  0.1672
19952W        W36426  16.809  14.766   0.697  0.2996  0.0701  0.1731
19953W        W36427   6.782   2.992  13.949  0.0714  0.0110 -0.1918
19954W        W36428   7.136  15.127   2.576 -0.0439  0.1700  0.1366
19955W        W36429   0.563   5.609   6.094  0.2747 -0.3061 -0.5203
19956W        W36430  15.176   6.028   2.629 -0.0730  0.1453 -0.2448
19957W        W36431  13.949   3.890  16.214 -0.1344  0.1910 -0.0215
19958W        W36432  16.314   9.556   0.538  0.4981 -0.0942 -0.1318
19959W        W36433   9.450   9.574  12.760  0.0733  0.0061 -0.2189
19960W        W36434   4.248  10.086  12.022 -0.2497 -0.2219 -0.2338
19961W        W36435  11.296   5.132  11.395  0.0929  0.0423  0.0916
19962W        W36436  10.175  10.409   0.903 -0.4553  0.0554  0.0387
19963W        W36437  10.371   1.258  14.395 -0.0867 -0.1110 -0.0315
19964W        W36438   6.648  16.142   4.326  0.0709  0.3008 -0.1064
19965W        W36439   8.665  15.928   5.935  0.1410  0.1343  0.0583
19966W        W36440  14.078   8.038  14.060 -0.0153  0.1850 -0.1998
19967W        W36441   1.495   2.888   4.155  0.3582  0.2599  0.1571
19968W        W36442   3.649   7.221   2.468  0.0953 -0.5074 -0.1386
19969W        W36443   8.342   9.884   2.571  0.0467  0.1942 -0.1305
19970W        W36444  13.837  10.797   5.448  0.2275  0.1975  0.0245
19971W        W36445  16.574   1.548   1.047 -0.3283  0.1056  0.0295
19972W        W36446  12.136   1.899   3.255  0.1271  0.3958 -0.0202
19973W        W36447  17.359  11.871   0.695 -0.2259 -0.2433  0.0459
19974W        W36448  17.642  11.817  12.868  0.1628 -0.1718 -0.0862
19975W        W36449   7.963  11.590   0.234  0.0176  0.1315 -0.0159
19976W        W36450  13.050   5.678  13.183 -0.3061  0.1476 -0.0643
19977W        W36451  17.470   2.020  14.989 -0.1706  0.2027  0.1075
19978W        W36452   1.594  17.896  13.840 -0.0603 -0.0918  0.1181
19979W        W36453  13.970   6.792  14.862  0.2943  0.0350 -0.1731
19980W        W36454  11.486   4.145   5.471 -0.0808 -0.0684 -0.1551
19981W        W36455   2.962   9.778   0.879  0.0848  0.3406  0.1335
19982W        W36456  15.064   3.251  13.746  0.0752  0.0957 -0.1945
19983W        W36457   5.560  13.265  13.255 -0.3963  0.0959 -0.3543
19984W        W36458   1.690   8.880   5.733  0.0812 -0.1048 -0.0188
19985W        W36459   0.421   2.363  12.759 -0.2072  0.2793  0.1574
19986W        W36460  13.900   5.322  14.412  0.0132 -0.1876  0.0912
19987W        W36461  11.166   9.971  12.718  0.0214 -0.1003  0.2020
19988W        W36462  14.027   7.880  10.572 -0.3341 -0.0366 -0.0231
19989W        W36463   0.787   8.062   2.031 -0.1339 -0.1662 -0.2553
19990W        W36464  12.335   2.359  11.210 -0.1863  0.0928  0.3230
19991W        W36465   6.284  10.387   3.326 -0.0208  0.0963 -0.1457
19992W        W36466  17.053   6.275  13.923  0.1020 -0.2421  0.0814
19993W        W36467   5.450   9.585  11.393  0.1956  0.1206  0.0354
19994W        W36468  13.460   9.551  14.827  0.1718 -0.0555 -0.0180
19995W        W36469  14.780  15.505  14.708 -0.1053  0.5237 -0.1200
19996W        W36470   7.646  10.233   1.304  0.0591  0.0013  0.5179
19997W        W36471  17.247  10.352  11.043 -0.0947  0.1159 -0.0919
19998W        W36472  12.654   6.033  13.171  0.2887 -0.2428  0.0736
19999W        W36473  15.241   2.395   4.042  0.1066  0.2149 -0.0792
20000W        W36474   8.352   2.958   1.680  0.0830  0.1407 -0.0945
20001W        W36475  17.653  15.595   2.045  0.0994  0.3561 -0.0500
20002W        W36476   7.185  13.494   5.212  0.0206 -0.1082  0.0328
20003W        W36477  12.254  10.526  12.086 -0.2902  0.1632  0.2191
20004W        W36478   4.225  12.124   3.018  0.1894 -0.0008 -0.0018
20005W        W36479  16.427   2.804   1.524 -0.0382  0.1637  0.1271
20006W        W36480   7.915   3.635   1.125 -0.1036 -0.1903  0.0732
20007W        W36481  11.951  10.370   1.734  0.0913  0.0854  0.1256
20008W        W36482   2.285   2.350  15.413  0.4666  0.1061 -0.0204
20009W        W36483   4.457   9.431   1.916 -0.2033 -0.0071 -0.0261
20010W        W36484  12.112   9.304   2.406 -0.0085 -0.2535 -0.2928
20011W        W36485  16.790  13.716   3.377 -0.0281 -0.1264 -0.0891
20012W        W36486   1.696  17.926   1.628 -0.0334  0.2852 -0.0100
20013W        W36487   1.380   1.916   2.087  0.0403  0.1097  0.1303
20014W        W36488  13.245  15.237   5.576 -0.0321 -0.1633 -0.2048
20015W        W36489  12.257   6.147   0.833  0.3310 -0.1319  0.2286
20016W        W36490  13.347  17.912  14.932 -0.0278 -0.0781 -0.0972
20017W        W36491   9.407   1.814   5.193 -0.1071  0.1117 -0.4196
20018W        W36492   0.141  12.263   4.639 -0.2710 -0.1764 -0.0858
20019W        W36493   0.612  10.052   2.663  0.1389  0.0841 -0.3443
20020W        W36494   4.893  16.979   4.768 -0.2260  0.0719 -0.0040
20021W        W36495  11.900   0.892   0.706  0.1050 -0.3744  0.2058
20022W        W36496  14.732  16.400  14.422  0.1325  0.0149 -0.2351
20023W        W36497   8.953  10.553   1.117  0.1383 -0.2736  0.1172
20024W        W36498   2.955  14.979  11.699 -0.2171  0.3763  0.0900
20025W        W36499  12.628  17.172  15.933  0.1245  0.2465  0.1811
20026W        W36500  12.045   5.980  13.411  0.1231  0.0085  0.3415
20027W        W36501  12.112  16.224  14.094 -0.0595 -0.0205  0.0553
20028W        W36502  12.322   4.875  13.098  0.1904 -0.0403 -0.1468
20029W        W36503   8.161   1.141   1.931  0.2659 -0.1953 -0.0109
20030W        W36504  14.399   5.237   1.695  0.2658  0.1726  0.2290
20031W        W36505  13.115  12.684   2.805 -0.3344 -0.1388  0.1048
20032W        W36506  10.588   5.926  12.909  0.2382 -0.0237 -0.0299
20033W        W36507  12.208   6.305   3.400  0.2508  0.1704  0.0481
20034W        W36508  13.652   7.764   0.361 -0.0070  0.1015 -0.2541
20035W        W36509  12.165  10.785  14.334 -0.1447 -0.1448 -0.0989
20036W        W36510   4.301   5.981   3.145  0.0826  0.2170  0.2596
20037W        W36511   1.545  12.257  14.474  0.2507  0.0198 -0.0826
20038W        W36512  17.541  10.110   0.245  0.1472  0.1158 -0.1388
20039W        W36513  14.834  11.432  13.933  0.1109  0.2653 -0.1374
20040W        W36514   2.788  14.603   5.892  0.2184  0.3125 -0.2871
20041W        W36515  13.417  14.961   0.181 -0.2820 -0.0359  0.0635
20042W        W36516   3.655   9.704  12.497 -0.1763  0.1370  0.3699
20043W        W36517  14.014  18.122  13.738  0.0056 -0.0355 -0.3717
20044W        W36518   6.321  17.091  14.604 -0.3811 -0.1161 -0.0929
20045W        W36519   7.516   6.989   0.410 -0.0121  0.1610 -0.0661
20046W        W36520  12.376   5.282  16.004  0.0973 -0.2799  0.1924
20047W        W36521  13.870  15.081   0.377 -0.2097 -0.1925  0.0393
20048W        W36522  14.341   4.702   1.080  0.2351 -0.0178  0.1723
20049W        W36523  13.189   2.045   2.070  0.0977  0.3568  0.0005
20050W        W36524  11.925   0.039  12.700  0.2928  0.0002  0.2670
20051W        W36525   6.977  10.893  15.396 -0.2508  0.3949  0.0628
20052W        W36526  16.133   8.410  12.135  0.0720  0.0927  0.2334
20053W        W36527  15.633   4.128   4.169 -0.0235  0.3622  0.0862
20054W        W36528   8.661  11.641  15.075  0.0941 -0.0240  0.1474
20055W        W36529   2.324  13.942   2.147 -0.0768 -0.0457  0.1547
20056W        W36530  15.301  17.722   2.354  0.2142  0.2458 -0.4243
20057W        W36531   3.050  13.632  16.219 -0.3079  0.0353  0.0426
20058W        W36532   9.564  11.470  13.629 -0.2456 -0.1002  0.2263
20059W        W36533   8.066   4.385   2.940  0.0370  0.0843  0.1179
20060W        W36534   5.634   9.979   3.188 -0.1709  0.3039 -0.1234
20061W        W36535   7.008   6.349  13.522 -0.2241 -0.0153 -0.0206
20062W        W36536   8.811   6.993  12.246 -0.0046 -0.2120 -0.1974
20063W        W36537   1.512  16.211   5.161  0.2665 -0.2074  0.2293
20064W        W36538   6.255   3.010   2.696 -0.2684  0.1714 -0.0888
20065W        W36539  10.508  16.972   5.090 -0.0994  0.1202  0.1231
20066W        W36540   9.513  13.457   5.078 -0.2466  0.1327 -0.1132
20067W        W36541  12.157   5.931  13.970 -0.0719 -0.3321  0.0443
20068W        W36542   2.943  11.137  15.958 -0.0360 -0.2851  0.1460
20069W        W36543   8.943   6.687  11.424  0.2171 -0.1261  0.1013
20070W        W36544   9.016  14.765   1.203 -0.0673  0.0025  0.0052
20071W        W36545   6.265  11.886  12.275 -0.0383  0.2730 -0.1618
20072W        W36546   9.314   6.261  14.448  0.1275  0.2642 -0.3261
20073W        W36547   7.068  10.880  15.890 -0.0042 -0.1980  0.2579
20074W        W36548  12.434  13.962  13.581  0.0678  0.1659 -0.1075
20075W        W36549  16.038  12.888   5.876 -0.1654  0.3169  0.0352
20076W        W36550   6.247  14.716   1.476 -0.0652 -0.2618 -0.2243
20077W        W36551   1.877   1.285   2.250  0.0660  0.0724 -0.0479
20078W        W36552   2.541   4.812  13.075  0.0237 -0.0990 -0.0671
20079W        W36553   9.329   7.651  11.153 -0.0113 -0.1110  0.0974
20080W        W36554   3.675  11.225  14.850 -0.0898  0.4636 -0.0680
20081W        W36555   0.986   1.039  12.097  0.0063  0.2074 -0.2064
20082W        W36556  16.727   3.789  12.198  0.1711 -0.1143 -0.0708
20083W        W36557   7.674   9.651  13.208 -0.2549 -0.1728  0.0804
20084W        W36558   0.964  17.182  14.061 -0.0182 -0.1677 -0.5546
20085W        W36559   2.549   8.442   4.630 -0.0062  0.0121 -0.0204
20086W        W36560  14.521  15.092   0.965 -0.0423 -0.1752 -0.1981
20087W        W36561   3.563   0.040  13.580 -0.2378 -0.1589  0.0664
20088W        W36562   7.999  15.776  14.235 -0.0027  0.4225 -0.0882
20089W        W36563   3.451   3.748   4.792 -0.0166  0.3878 -0.1867
20090W        W36564   0.408  17.894  12.880  0.0872  0.0381 -0.1759
20091W        W36565  14.902   9.834   2.197  0.0885  0.3553 -0.0302
20092W        W36566  10.339   9.842  15.288 -0.1522  0.1311  0.2988
20093W        W36567   5.490  15.644  15.341  0.0080  0.0133 -0.0766
20094W        W36568  11.464   8.294   5.444  0.0583  0.0985 -0.2735
20095W        W36569   1.843   7.811  14.396 -0.1999 -0.0691  0.0471
20096W        W36570   6.299   5.593  15.669 -0.1803  0.0225  0.4206
20097W        W36571  12.076   3.956  14.195 -0.2186  0.3404  0.2394
20098W        W36572  15.358  17.754   1.182  0.1519 -0.2247  0.0679
20099W        W36573  11.240   7.436   3.605  0.1749 -0.0481  0.0956
20100W        W36574   3.908   7.346   3.709  0.0361 -0.1102 -0.1760
20101W        W36575  13.782   3.183  11.631  0.3250 -0.0372  0.1946
20102W        W36576   9.626  13.005   0.989 -0.0662 -0.0558  0.3443
20103W        W36577   2.988  16.935  11.178 -0.2449 -0.1983 -0.2143
20104W        W36578   5.967  14.889   1.071 -0.0292  0.0736  0.0323
20105W        W36579   4.191  17.064   0.476 -0.2907 -0.4797  0.0482
20106W        W36580   7.366   8.222   5.278 -0.3848  0.1031 -0.3046
20107W        W36581  13.705   1.927  12.092  0.0728  0.1141 -0.3749
20108W        W36582  14.386  14.230   4.045  0.1790 -0.1136  0.2145
20109W        W36583   1.771   2.469  11.578  0.2349  0.0513  0.0169
20110W        W36584  15.519   1.889  13.153 -0.0261 -0.1559  0.0276
20111W        W36585  16.840   1.786  14.675  0.0199 -0.0547 -0.1392
20112W        W36586  13.142  17.645  15.305 -0.1458  0.1798 -0.1068
20113W        W36587  15.324  16.854   1.775 -0.0151  0.0250  0.1960
20114W        W36588  13.160   6.214   3.523 -0.1576  0.2164 -0.1685
20115W        W36589   1.612   6.048  11.779  0.0144 -0.2991  0.3467
20116W        W36590  10.442  17.183   1.168  0.0635  0.1108 -0.0720
20117W        W36591  11.543   7.786   5.554 -0.1797 -0.0365  0.1929
20118W        W36592   7.657   5.680   0.459  0.0766 -0.0410 -0.0079
20119W        W36593   1.462   4.847   0.913 -0.1737  0.0648  0.1153
20120W        W36594  13.949  10.087   6.065 -0.0580 -0.1780 -0.1752
20121W        W36595  16.607   4.170  15.046 -0.0612 -0.1143 -0.1177
20122W        W36596   3.347   6.133  12.391  0.2461 -0.3452  0.2718
20123W        W36597  10.253   4.539  13.654  0.0497 -0.3432  0.2811
20124W        W36598   5.019  10.579  14.810 -0.0083 -0.2544 -0.1600
20125W        W36599   9.632   2.174   3.868  0.1921 -0.1795 -0.1924
20126W        W36600  12.588   3.087  15.184  0.1071 -0.0737 -0.1305
20127W        W36601   7.141  13.097   0.361  0.2123 -0.1150  0.0079
20128W        W36602   8.377   9.778   3.974 -0.2148 -0.2868 -0.2716
20129W        W36603   2.277  11.880   3.672  0.1706 -0.0470 -0.1072
20130W        W36604   1.504  13.089   4.109 -0.1240  0.0486  0.0654
20131W        W36605   8.961  10.184   0.771  0.0686 -0.2391 -0.2360
20132W        W36606   4.879  14.317  13.294  0.0606 -0.0537  0.2060
20133W        W36607   6.070   6.798  13.251  0.0703  0.2523  0.1477
20134W        W36608  10.419   4.704   1.638 -0.0402  0.2628  0.0364
20135W        W36609   3.790  15.052  14.856 -0.2304  0.1454 -0.0399
20136W        W36610   6.467   8.221   3.271  0.1594  0.1740 -0.1222
20137W        W36611  17.379  13.852  11.643 -0.0075  0.1602  0.2942
20138W        W36612   1.765  14.515  10.035  0.3777  0.1017 -0.2149
20139W        W36613   0.227  17.718  12.393  0.2550  0.1360  0.1111
20140W        W36614   3.040   8.031  13.482  0.0483 -0.1069 -0.1102
20141W        W36615  15.594   4.418   5.052  0.1415  0.0474  0.1058
20142W        W36616  15.616  15.727   0.572  0.3314  0.3444  0.0010
20143W        W36617   0.481   4.719  16.249 -0.0074 -0.1928 -0.1494
20144W        W36618  12.232  15.516   3.277  0.1259 -0.0493 -0.0189
20145W        W36619   9.132   2.226  14.044 -0.2967  0.1679  0.1249
20146W        W36620  13.866  10.192   5.312 -0.1476 -0.1157  0.0064
20147W        W36621   4.005  12.699  14.143 -0.0712  0.0284 -0.0375
20148W        W36622   5.247  14.053   3.718 -0.2249 -0.1997 -0.1126
20149W        W36623   2.394  17.513   1.848  0.0874  0.1208 -0.1688
20150W        W36624  10.117   2.826  14.557 -0.1872  0.0286  0.1690
20151W        W36625   8.736  17.347   5.721  0.2027 -0.0054  0.2160
20152W        W36626  15.049  12.722   1.756 -0.3451 -0.0054 -0.1031
20153W        W36627  17.553  14.023   3.357  0.0855  0.1354  0.2112
20154W        W36628   0.589  14.489  10.592  0.1110 -0.2393  0.2352
20155W        W36629  11.670   4.769  16.362 -0.0731 -0.1545 -0.1136
20156W        W36630  10.037  17.778   2.415 -0.0860 -0.2182 -0.0478
20157W        W36631  13.807  12.919   1.338 -0.2676  0.1479 -0.1951
20158W        W36632   1.062  16.554   5.374  0.1212 -0.3394 -0.1377
20159W        W36633  16.137  17.620  13.964  0.0712  0.0226 -0.0561
20160W        W36634  15.451   2.569  15.806 -0.2722  0.0078  0.0399
20161W        W36635   3.864  17.432   5.118  0.0391  0.0346 -0.1994
20162W        W36636  15.363   8.757   3.469 -0.1816 -0.0413 -0.2896
20163W        W36637   3.250  17.949  11.867 -0.1154  0.1016  0.1680
20164W        W36638  11.739   0.068   3.578 -0.1015  0.1751  0.0127
20165W        W36639  15.063  13.755  16.232  0.0474 -0.3798  0.1011
20166W        W36640  10.504  13.356   3.476 -0.2473  0.0874 -0.1152
20167W        W36641   6.193   5.939  13.823  0.0564 -0.0411  0.2559
20168W        W36642  16.115   9.873   3.723  0.1564  0.0641  0.2703
20169W        W36643   5.692  17.853   1.179  0.0542 -0.0141  0.0063
20170W        W36644  15.647  13.155  12.266 -0.0743 -0.3087  0.1433
20171W        W36645  14.431  10.007   2.777 -0.0329 -0.1659  0.0335
20172W        W36646   0.744  16.039  11.389  0.2358 -0.2460 -0.0596
20173W        W36647   3.561  10.596   2.963 -0.1042  0.2246 -0.1467
20174W        W36648  14.800  13.132   5.465 -0.1793 -0.3094  0.1923
20175W        W36649   9.607  15.861   3.771 -0.1012 -0.1772 -0.2068
20176W        W36650  17.765  16.102  14.610  0.0358 -0.0791 -0.2807
20177W        W36651  11.349   0.082  16.282 -0.0869 -0.2722 -0.1852
20178W        W36652  18.093   0.957  15.313 -0.3052 -0.1455  0.3819
20179W        W36653   8.585   9.878   3.065 -0.0013 -0.0844 -0.0495
20180W        W36654   3.802   2.339  13.966 -0.0020 -0.0584  0.3084
20181W        W36655   7.964  10.478   5.404 -0.3097  0.3174  0.2606
20182W        W36656   8.090  13.610  14.960 -0.1378 -0.1325  0.2883
20183W        W36657  14.699  14.072  15.752  0.2892  0.0865  0.1872
20184W        W36658   0.043  14.855  11.191  0.0957  0.2506 -0.2705
20185W        W36659  14.505   0.663  15.464  0.1253 -0.1029  0.1344
20186W        W36660   8.942   1.036   0.232 -0.1924 -0.1586 -0.0915
20187W        W36661   6.927   7.856  15.803  0.1955  0.2364 -0.0590
20188W        W36662   6.786   4.853   4.078 -0.0108 -0.0417 -0.0245
20189W        W36663   0.155   9.133  10.975  0.3094  0.0043 -0.2208
20190W        W36664  11.105  15.637   3.844 -0.0754 -0.0244  0.0540
20191W        W36665  14.265  13.063  14.907 -0.1007  0.1164  0.2520
20192W        W36666   6.847  14.688   2.736  0.0671  0.1682  0.1023
20193W        W36667  12.611  14.571   4.119  0.3910  0.0470  0.0694
20194W        W36668   4.475   4.132  11.099  0.0765 -0.3416 -0.2549
20195W        W36669   1.238  11.045  15.948  0.0881 -0.0627 -0.1906
20196W        W36670  13.001  11.949  14.878  0.1744  0.1406  0.0314
20197W        W36671  16.849   3.528   4.521 -0.3180 -0.0314  0.0768
20198W        W36672  12.793   5.883  12.288 -0.1640 -0.0225  0.1211
20199W        W36673  17.019  16.892   0.152  0.0471  0.1423 -0.2013
20200W        W36674  13.055   6.164  13.485  0.1435 -0.0468  0.0888
20201W        W36675   0.417   5.183  11.490  0.0721  0.0969 -0.2213
20202W        W36676   0.575  12.247  13.429  0.1383 -0.0010  0.2084
20203W        W36677  10.091   6.559   3.497  0.0780  0.2734  0.2844
20204W        W36678  15.217   4.324   1.051 -0.0167  0.1218  0.0150
20205W        W36679   5.973  15.580  15.239 -0.1596  0.0608  0.2974
20206W        W36680  12.940   9.967   1.286  0.2172 -0.0360  0.0046
20207W        W36681  12.428  14.834  15.385  0.3416 -0.0068  0.3400
20208W        W36682   4.100   3.930   1.650 -0.1120 -0.1266  0.1335
20209W        W36683   7.006  11.638  15.188  0.1065 -0.2470 -0.0123
20210W        W36684  11.537  17.134   2.200 -0.0395 -0.3072 -0.0222
20211W        W36685   0.176  17.992   4.604  0.2053  0.1199 -0.0917
20212W        W36686   4.121   0.630  13.992  0.1507  0.1000  0.1316
20213W        W36687  16.783   7.540  12.674  0.4054  0.3783  0.0667
20214W        W36688  11.893   6.952   3.973 -0.0420 -0.0732 -0.2593
20215W        W36689   6.672   5.440  16.160 -0.1165  0.2963  0.0591
20216W        W36690  15.250  14.893  15.163  0.0785 -0.2176  0.0934
20217W        W36691   3.490  10.195  10.624 -0.0763  0.2094 -0.3833
20218W        W36692   1.241   5.983   4.530 -0.1482 -0.0319 -0.0229
20219W        W36693   8.894  17.910  12.754  0.3508 -0.2809 -0.1575
20220W        W36694  15.956   7.537   1.009 -0.0683  0.0588 -0.2010
20221W        W36695  12.950   1.811  14.396 -0.4008  0.2130 -0.0245
20222W        W36696   0.817   5.599  11.542 -0.0667 -0.0807 -0.0904
20223W        W36697   1.899   7.876   4.147 -0.4923  0.0370  0.1362
20224W        W36698  10.090   4.151  13.368 -0.0402 -0.1230 -0.1038
20225W        W36699   9.459  17.109  16.270  0.0550  0.2337 -0.1879
20226W        W36700  11.085  11.544  14.404 -0.1983  0.0520  0.0630
20227W        W36701   6.463   2.651   4.149 -0.0814  0.0923  0.0456
20228W        W36702   7.173  12.994   5.063  0.0274  0.1889  0.0505
20229W        W36703  17.973   0.256  14.560 -0.2757 -0.1781 -0.1567
20230W        W36704   0.834  13.283   1.506 -0.6184 -0.0503  0.0934
20231W        W36705   1.864   5.393   1.088 -0.2406 -0.2901  0.0743
20232W        W36706   6.929  17.549  13.373 -0.1703  0.2139 -0.2093
20233W        W36707   4.293  16.011   0.849 -0.3186 -0.0047 -0.0937
20234W        W36708  10.824  15.578  12.497 -0.1219 -0.1006  0.0032
20235W        W36709   2.148   0.970  14.400 -0.0474  0.3730 -0.0724
20236W        W36710   8.710   6.232   2.309  0.2441  0.3918  0.1581
20237W        W36711   8.101  17.363  14.333  0.0133 -0.1842  0.1075
20238W        W36712  17.911  17.896   1.535 -0.2474  0.1430 -0.0124
20239W        W36713  11.749  14.474   1.894 -0.3451 -0.1771 -0.2948
20240W        W36714   1.531  13.852   0.610 -0.1600 -0.3173 -0.0314
20241W        W36715  17.233   7.615   4.725 -0.1212  0.0639 -0.3959
20242W        W36716   5.615   9.681   3.938  0.1465 -0.0714 -0.1407
20243W        W36717  14.038  10.481   1.963  0.1117 -0.1429  0.6099
20244W        W36718  15.795  15.311  11.140 -0.0420  0.2275  0.0178
20245W        W36719   3.542  11.857  13.967  0.2837  0.1517  0.3736
20246W        W36720  14.789   9.132   5.701 -0.0258 -0.1513  0.0172
20247W        W36721  15.627   5.482  13.560 -0.1958  0.4046 -0.2074
20248W        W36722  12.730  11.159  12.245 -0.0759 -0.1971  0.0478
20249W        W36723  12.402   9.335   2.870  0.1156 -0.1478 -0.2674
20250W        W36724   3.788   8.262   4.793 -0.2944  0.0851  0.0776
20251W        W36725   3.669   1.459  12.495  0.0602  0.0690 -0.5589
20252W        W36726   4.840   5.709   4.531  0.1973 -0.2504  0.2608
20253W        W36727   9.904   1.223  14.483  0.0921 -0.2642  0.0970
20254W        W36728   5.848  15.599  15.713  0.3110  0.0178  0.1470
20255W        W36729   1.872  12.563   5.307  0.0685  0.3382  0.1073
20256W        W36730   7.116  11.999   5.041 -0.3050  0.3516 -0.1219
20257W        W36731  17.814   7.785   5.174 -0.0324  0.1189 -0.0291
20258W        W36732   8.938   2.363  11.066  0.4113 -0.0598 -0.3052
20259W        W36733   6.980  12.992  16.198  0.0344  0.0473  0.1437
20260W        W36734  16.247  15.188  12.926 -0.0428  0.0010 -0.0106
20261W        W36735   1.324   9.622  14.402  0.2104  0.0937 -0.2510
20262W        W36736  16.794   1.543  10.396  0.1642  0.1546  0.1578
20263W        W36737  13.420   5.405   5.593 -0.2505  0.1698  0.2148
20264W        W36738   4.086   9.898   2.940 -0.1868 -0.4807  0.2268
20265W        W36739   6.536  17.656   4.415 -0.2439 -0.0214 -0.1331
20266W        W36740  14.026  14.369   1.363 -0.3326 -0.1087 -0.1442
20267W        W36741   6.825   1.907   1.832 -0.0589 -0.0648 -0.0434
20268W        W36742   2.040  10.400   2.927 -0.0722  0.2061  0.0570
20269W        W36743   9.819   7.477   0.390  0.0077  0.1636  0.0030
20270W        W36744  13.413   4.036   0.941  0.0643 -0.2629 -0.1134
20271W        W36745  11.496  15.484   6.112  0.0353 -0.2073 -0.0485
20272W        W36746   8.244  15.346   1.555  0.1608  0.2527 -0.0918
20273W        W36747   5.268   8.770  14.415 -0.1452 -0.3605  0.1386
20274W        W36748   7.961   8.701  16.188  0.0031  0.2946 -0.2105
20275W        W36749  16.745   7.064   0.605  0.1676 -0.0786 -0.3781
20276W        W36750   1.787  13.081   2.368  0.1177 -0.0694  0.1133
20277W        W36751  10.202  12.602  13.077  0.0371 -0.0925  0.1119
20278W        W36752   2.121  17.467  15.184 -0.0210  0.0442  0.1903
20279W        W36753  11.570  14.045  16.048 -0.0367  0.1261 -0.2055
20280W        W36754   7.838  11.398  13.298 -0.0512 -0.0282 -0.0402
20281W        W36755  10.024  12.603  13.979  0.1442 -0.1031 -0.2963
20282W        W36756   9.694  10.424   1.239  0.1035  0.2178 -0.0590
20283W        W36757   6.827   9.195   2.242  0.1682  0.0712  0.1734
20284W        W36758   3.322  11.668  11.653 -0.1995  0.0119  0.2775
20285W        W36759  18.135  13.226  12.138 -0.0603 -0.2290  0.0542
20286W        W36760  11.234   6.546  14.701  0.0488  0.1378 -0.0193
20287W        W36761  16.383   4.627   2.108  0.1224  0.0580 -0.0184
20288W        W36762  14.666   8.640   0.004  0.1037  0.1530 -0.0510
20289W        W36763   5.955  17.473   1.009 -0.0007  0.1717  0.3335
20290W        W36764  10.984   5.412  14.854  0.1653  0.1037  0.0719
20291W        W36765  10.561   4.359  11.128  0.1518 -0.3865 -0.0575
20292W        W36766  13.098   5.491   4.099  0.2598  0.1836  0.2618
20293W        W36767   0.134   1.313   3.403  0.0364  0.1246  0.1175
20294W        W36768  12.489  16.014  11.808  0.0563  0.0170  0.2317
20295W        W36769   9.176   2.871   2.596 -0.0442  0.2248  0.1695
20296W        W36770  14.220   0.020   0.311  0.0627  0.0838  0.0181
20297W        W36771  11.497   8.790   5.471 -0.3055  0.0572  0.3233
20298W        W36772   0.004  15.535   0.664 -0.0198 -0.1379 -0.1422
20299W        W36773  14.206  17.053   4.220 -0.2214  0.2305 -0.1510
20300W        W36774   0.862   9.100   5.274  0.0430  0.1868 -0.0965
20301W        W36775  16.084  12.087  14.402 -0.0617 -0.0447 -0.2203
20302W        W36776   8.013  11.827   5.178  0.0519  0.0384 -0.0754
20303W        W36777  15.128  10.245   5.520 -0.1100  0.2440 -0.2939
20304W        W36778  14.775   6.050   4.212  0.0670  0.0894 -0.0141
20305W        W36779  12.665   3.112   0.812  0.1268  0.0845 -0.0720
20306W        W36780  16.597   3.055  13.256 -0.0280 -0.0050 -0.1250
20307W        W36781  16.811   4.025  13.398  0.0402 -0.0513  0.2582
20308W        W36782  13.680  11.357  14.771  0.0910 -0.3317 -0.1707
20309W        W36783  17.603  17.396  15.137 -0.1123  0.0732  0.0589
20310W        W36784  17.220   8.551   2.906 -0.0162 -0.4918  0.1215
20311W        W36785  11.819  12.271  12.532  0.1622 -0.1013  0.0988
20312W        W36786   0.307   5.160  15.719  0.1207  0.2045 -0.0508
20313W        W36787  17.727  11.376  12.184  0.2603  0.1615 -0.4082
20314W        W36788   5.223   7.927   3.936  0.0645 -0.2997 -0.0433
20315W        W36789   9.349  10.108   3.593 -0.0910 -0.2416  0.2325
20316W        W36790   6.925   4.489   0.005 -0.0100 -0.1198 -0.1913
20317W        W36791   6.595   0.926   2.052  0.3031  0.1231 -0.3693
20318W        W36792  17.942   4.324  13.307 -0.0777  0.1034  0.2637
20319W        W36793   6.769  11.398  11.771 -0.1519  0.1246  0.1416
20320W        W36794   4.479  14.716   3.731  0.2644  0.0443 -0.2423
20321W        W36795   1.295   8.609  12.216  0.0349 -0.1076 -0.1616
20322W        W36796  15.521  13.064   1.762  0.1711 -0.0211 -0.0485
20323W        W36797   0.954   2.691  12.103  0.0061  0.2197  0.2415
20324W        W36798   1.057  10.933   0.709  0.0424 -0.2130 -0.3732
20325W        W36799   8.899  11.513   3.489  0.1083 -0.3143 -0.0081
20326W        W36800  12.963   2.885  14.110 -0.2700 -0.0132  0.1382
20327W        W36801   2.187  11.494  13.611  0.2363  0.3034  0.0175
20328W        W36802   1.802   1.378  15.548  0.1258 -0.2257 -0.1323
20329W        W36803   9.393   0.475  11.484  0.3427  0.0263  0.3013
20330W        W36804   4.113   5.176   4.460 -0.0765 -0.2092 -0.1515
20331W        W36805   6.216  12.964  13.572 -0.1984 -0.2648 -0.1753
20332W        W36806  10.938   5.545   4.313  0.2190  0.3430  0.1734
20333W        W36807   2.447   4.178  12.950 -0.2122 -0.1867  0.0659
20334W        W36808   6.625   1.829  11.323  0.0786  0.1411  0.0827
20335W        W36809   1.848  17.710   0.716 -0.1083 -0.1211 -0.0683
20336W        W36810   1.665   7.058  13.156  0.0962  0.4037  0.1861
20337W        W36811   8.319   8.953  14.124 -0.1076 -0.0470  0.2587
20338W        W36812  10.535   1.338   1.570  0.0382  0.1364 -0.0723
20339W        W36813  13.864   1.330  13.682  0.0761 -0.2997  0.2775
20340W        W36814  15.088   2.322  11.487  0.1921  0.5567 -0.0244
20341W        W36815   5.236  11.832   0.064 -0.3405  0.2533  0.0395
20342W        W36816  16.252   9.698   2.852  0.2181  0.3284  0.2209
20343W        W36817  14.764  14.943  16.192  0.1231  0.1402  0.0218
20344W        W36818   8.512   4.425   2.651  0.3314 -0.1590 -0.1083
20345W        W36819   2.096  13.256   1.295  0.0392 -0.0592 -0.0776
20346W        W36820   1.424  17.344   5.790  0.0491 -0.0001  0.1789
20347W        W36821   7.045  12.128  14.309 -0.0779 -0.2035 -0.2804
20348W        W36822   5.405  15.524  15.966  0.4883  0.2432 -0.2158
20349W        W36823  18.171   0.372  14.084  0.2719  0.2873 -0.0608
20350W        W36824  16.757   6.183  11.478 -0.0917  0.0068 -0.0886
20351W        W36825   8.559   4.393  13.809 -0.1315  0.0323  0.1480
20352W        W36826  12.511  16.206   3.797 -0.0448 -0.0768  0.1303
20353W        W36827   7.137   9.994   3.464 -0.0613 -0.1574  0.1135
20354W        W36828  10.896   9.603   4.521 -0.2524 -0.1026  0.0732
20355W        W36829  15.883   9.098  15.170  0.0555  0.0587  0.0040
20356W        W36830   7.939   6.473   3.044 -0.0060 -0.1784 -0.2542
20357W        W36831   8.504   8.313  15.123  0.0451 -0.2540  0.0115
20358W        W36832  10.777  12.292  11.070  0.0388 -0.2326 -0.0710
20359W        W36833   1.851   7.266   2.913 -0.2106  0.2387 -0.3572
20360W        W36834  15.235   6.897   0.951  0.1332  0.1135 -0.0947
20361W        W36835  16.363   9.379   4.799  0.0862  0.2230  0.0704
20362W        W36836  13.333   8.967   1.909 -0.0590  0.1357 -0.2250
20363W        W36837  16.459   3.394  11.992  0.0574 -0.1032  0.0468
20364W        W36838   1.288  17.695   5.437  0.2995  0.2222 -0.2015
20365W        W36839  16.439   9.778  14.851  0.1327  0.1597 -0.1131
20366W        W36840  12.091   8.024  15.840 -0.0560  0.1135 -0.1142
20367W        W36841   8.987   6.901   4.141 -0.1018  0.1073 -0.0492
20368W        W36842   5.691   7.695   4.812 -0.2132 -0.0858 -0.1069
20369W        W36843  15.664  14.317  12.175 -0.0569  0.0985  0.1815
20370W        W36844  13.602   6.240  11.856 -0.1325  0.0844 -0.0422
20371W        W36845  15.858   8.963   2.622 -0.4125 -0.2701  0.0412
20372W        W36846  13.296  11.076   1.823 -0.0052  0.2180  0.1533
20373W        W36847  14.836  17.796   3.892 -0.1193 -0.2012 -0.0832
20374W        W36848  17.998  14.140  16.348  0.1164  0.0169  0.1288
20375W        W36849   9.698   2.089   0.938 -0.1732 -0.2239 -0.1378
20376W        W36850  10.778   3.567  16.104 -0.2710 -0.2318 -0.0615
20377W        W36851  16.006   5.857   2.454  0.2135 -0.2290  0.1703
20378W        W36852   4.385   9.790   3.813 -0.0945 -0.3314 -0.1663
20379W        W36853  10.538  17.597   1.392  0.0816  0.3397  0.3611
20380W        W36854  14.527  10.511  15.526 -0.0307  0.1891 -0.0034
20381W        W36855   0.153  18.098  13.930  0.0853 -0.1015  0.3322
20382W        W36856   9.749   4.207  14.716  0.1307 -0.0290 -0.1506
20383W        W36857  13.762   4.968   3.552  0.1730  0.2353 -0.0988
20384W        W36858   4.984  15.601  15.188  0.5273  0.0559 -0.3314
20385W        W36859   0.085   5.992   1.142 -0.4834 -0.1361 -0.0482
20386W        W36860   2.926   4.551   4.726  0.1972  0.0519 -0.0718
20387W        W36861  11.794  12.525   4.196  0.0987 -0.0797 -0.2856
20388W        W36862  15.853  13.988   4.196 -0.1215 -0.0105 -0.1749
20389W        W36863   9.993   4.111  15.360  0.0346  0.0720  0.2820
20390W        W36864   1.908  17.174  12.503 -0.2811  0.2042  0.0966
20391W        W36865   2.631   8.361  13.854 -0.2140 -0.0062 -0.0164
20392W        W36866  10.557   0.813  16.261 -0.1744  0.1199  0.1312
20393W        W36867   1.520   5.988  12.413 -0.0705 -0.0799 -0.1916
20394W        W36868   7.277  16.108  14.225 -0.4790 -0.1655 -0.1140
20395W        W36869   0.028  16.171   0.225  0.0637 -0.2363  0.4486
20396W        W36870   2.764  10.516   4.119 -0.1508 -0.0544 -0.0888
20397W        W36871   3.589   4.013   2.479 -0.1237 -0.0450 -0.0032
20398W        W36872   5.243  17.387   2.498  0.0732  0.2956 -0.2175
20399W        W36873   4.009   2.608  15.842 -0.1939 -0.2627  0.0294
20400W        W36874   8.314   9.746  12.495  0.0029 -0.0174  0.0766
20401W        W36875  16.816   3.810   0.064  0.2749 -0.1005 -0.2079
20402W        W36876   7.856   7.500  15.858  0.0669 -0.2603 -0.1899
20403W        W36877   0.266   2.597   5.698  0.2581  0.0646 -0.3280
20404W        W36878  10.788  11.984   0.281 -0.2964  0.2193 -0.0482
20405W        W36879   5.833   1.922  13.304 -0.2540 -0.2823  0.3510
20406W        W36880  15.792  10.380  15.901 -0.1695  0.0713 -0.1363
20407W        W36881   7.766  13.637  12.027  0.0200  0.2052  0.0115
20408W        W36882  13.531   3.228   0.336 -0.1152 -0.2607 -0.3084
20409W        W36883   4.872   9.276  14.948  0.1730 -0.1241 -0.3202
20410W        W36884   8.369   5.992  15.105 -0.0987  0.0633  0.0962
20411W        W36885  16.787  12.602   1.713  0.0888  0.1015 -0.1638
20412W        W36886   4.762   3.844  13.988 -0.2230  0.0742  0.0449
20413W        W36887   3.750  13.484   4.788  0.0799 -0.3419  0.0206
20414W        W36888   8.837  15.658  14.237 -0.1233 -0.2936 -0.2332
20415W        W36889   9.806  17.611   3.213 -0.3284  0.1871  0.0351
20416W        W36890  11.759   1.436   4.688 -0.1784  0.0346  0.4302
20417W        W36891   2.947   8.856  15.263 -0.0769 -0.1578 -0.0135
20418W        W36892   9.322   7.292   3.909  0.1320 -0.1100  0.0520
20419W        W36893   0.459  13.812   4.266 -0.2135 -0.1203  0.3953
20420W        W36894   8.164  15.404   0.586 -0.3875 -0.0054 -0.0879
20421W        W36895   1.092   7.623   5.307  0.1240 -0.2276 -0.2958
20422W        W36896   3.855   0.208   1.656  0.0531 -0.1668  0.0007
20423W        W36897   7.129   5.153  16.042 -0.2047 -0.3085  0.0048
20424W        W36898   0.203   1.081   4.590  0.0659 -0.1035  0.3156
20425W        W36899  10.982   7.413   4.968 -0.2483 -0.0773 -0.0947
20426W        W36900   8.403   9.396   3.156 -0.3405 -0.0310 -0.1471
20427W        W36901  14.483   7.937  11.731  0.1269 -0.1626  0.1786
20428W        W36902  16.614   3.194  10.598  0.0380  0.0017 -0.0643
20429W        W36903   4.370   4.441   0.901 -0.0261 -0.1517  0.1873
20430W        W36904   9.346  11.077   1.774  0.2237 -0.0596 -0.1499
20431W        W36905   9.924  16.178  15.488 -0.1618 -0.0629  0.2200
20432W        W36906  16.038  14.198  12.406 -0.3427  0.1327  0.1844
20433W        W36907  13.460   4.721   4.653  0.2608 -0.2401 -0.2310
20434W        W36908  11.996  10.943  12.411  0.0318 -0.0322 -0.1970
20435W        W36909   2.464   0.695   3.418  0.3143  0.0176 -0.0292
20436W        W36910   1.455  17.962  12.511  0.2960  0.2778 -0.2965
20437W        W36911   8.719  10.399   5.729  0.4220 -0.1673 -0.1696
20438W        W36912  12.761   2.099   2.370  0.2291 -0.0816  0.0482
20439W        W36913  14.761  17.757   2.456 -0.3043  0.0643 -0.2366
20440W        W36914  10.156  10.913  12.147  0.1445 -0.0395 -0.2743
20441W        W36915  16.225   8.742   1.878 -0.1891  0.2868 -0.0423
20442W        W36916  13.217  13.479  15.210  0.3148 -0.0991  0.1434
20443W        W36917   7.378  14.118  13.833  0.3544  0.2225 -0.2038
20444W        W36918  12.128  11.631   0.805 -0.1149  0.0946  0.0470
20445W        W36919   0.417   9.263   2.607 -0.3138  0.0705 -0.0011
20446W        W36920  14.467   2.035  12.154 -0.3423  0.1301 -0.0073
20447W        W36921  15.637  13.647  15.153  0.2372 -0.2182  0.0150
20448W        W36922  13.813   6.430   3.162 -0.2597  0.0746  0.0751
20449W        W36923   0.929   1.969   2.460 -0.3266  0.0306  0.0183
20450W        W36924  10.025  15.269  15.988 -0.1856  0.0680 -0.1235
20451W        W36925   8.503   7.008  15.358 -0.2130  0.0606  0.1762
20452W        W36926  12.262  11.128  14.846 -0.0495 -0.0614 -0.0605
20453W        W36927   6.988  12.173   1.306 -0.2313 -0.1725 -0.0538
20454W        W36928  16.247   3.001   3.273  0.1895  0.0023 -0.0056
20455W        W36929  11.572  10.852  10.955  0.2077  0.1592 -0.1599
20456W        W36930   9.602   7.317  16.254 -0.1897  0.0493  0.0131
20457W        W36931   4.836  12.501  12.536  0.1628 -0.3041  0.2849
20458W        W36932   2.956   7.055  14.586 -0.0167 -0.1450 -0.0645
20459W        W36933   6.872  11.697   2.184  0.2361  0.3777  0.3062
20460W        W36934   0.213   1.492   1.660 -0.2373  0.0664 -0.2509
20461W        W36935  10.432  14.443   3.328  0.1074  0.1880 -0.0992
20462W        W36936   8.012  14.964  13.760  0.2227 -0.1107 -0.0337
20463W        W36937   5.146   1.697  13.964 -0.1906  0.2158  0.1081
20464W        W36938  15.213   9.601  14.597 -0.0916 -0.0540  0.1612
20465W        W36939  10.922  14.512  10.299  0.1585  0.0485  0.1093
20466W        W36940   0.452   6.580  11.745 -0.0971 -0.2482 -0.1084
20467W        W36941  12.161  13.274   3.813 -0.0435 -0.0398 -0.1575
20468W        W36942   5.957  11.277  15.476  0.0513  0.4450 -0.0042
20469W        W36943  15.466  18.090  12.293 -0.2705 -0.0486 -0.1437
20470W        W36944   8.456  16.997   1.551  0.3451  0.1258 -0.2566
20471W        W36945   1.758   1.176   4.784  0.2409  0.2386  0.1177
20472W        W36946  10.472  11.448   5.031 -0.3255  0.0896 -0.2762
20473W        W36947  10.146  12.936  14.956  0.1458  0.1986 -0.1300
20474W        W36948   0.884   2.955   1.146  0.0538 -0.0066  0.3474
20475W        W36949  11.129  11.632   0.147  0.1909  0.0463 -0.0117
20476W        W36950   5.536  11.702   1.522 -0.1174  0.1009  0.2391
20477W        W36951   6.424   5.965   2.235  0.1628 -0.0016 -0.1017
20478W        W36952  11.810   9.958  16.333  0.0591 -0.0761 -0.0991
20479W        W36953  12.004   8.658   1.468  0.3234 -0.3235 -0.1264
20480W        W36954   2.944  10.764  15.630  0.2565 -0.1967 -0.0754
20481W        W36955   1.438   7.722  11.676 -0.2752 -0.0336 -0.1167
20482W        W36956   6.090  12.466  13.652 -0.1288 -0.0100 -0.0160
20483W        W36957   3.030   6.253   1.835 -0.2648  0.0633 -0.0632
20484W        W36958  13.398  17.852   3.185 -0.0403  0.2545 -0.1717
20485W        W36959   7.878   5.699  12.704 -0.1517  0.1671 -0.2121
20486W        W36960  11.558   9.284   2.369  0.1682  0.2118  0.4022
20487W        W36961  13.730  13.764  16.002 -0.1386 -0.0122 -0.0384
20488W        W36962  17.533  17.925   1.887 -0.0135  0.1667 -0.0773
20489W        W36963   3.593   5.100  10.278 -0.2661 -0.1262 -0.0062
20490W        W36964   8.427   8.398   0.862  0.2848  0.1986  0.0543
20491W        W36965  10.079   2.082   2.466 -0.0999 -0.2017 -0.2306
20492W        W36966   7.562  17.846   4.906 -0.2208  0.1945 -0.0360
20493W        W36967  16.104  13.108  14.588  0.0301 -0.0548  0.0769
20494W        W36968  17.938  16.718   5.217 -0.4435 -0.1039  0.1390
20495W        W36969   2.470  17.403   3.175 -0.2678 -0.0058  0.0173
20496W        W36970   8.527   0.635  12.056  0.2561 -0.1355 -0.1325
20497W        W36971   7.057   1.576  13.567 -0.2034 -0.1766 -0.0949
20498W        W36972  16.779   7.497   1.029 -0.2662 -0.1816  0.3623
20499W        W36973   3.751   9.339  10.099 -0.1290 -0.0099 -0.0225
20500W        W36974  17.269  12.599  15.355  0.0197 -0.1361  0.2008
20501W        W36975   2.361   3.944  13.665 -0.0668  0.1926  0.1863
20502W        W36976  16.368  13.217  13.358 -0.2507 -0.0091  0.2265
20503W        W36977   4.874   3.716   0.189  0.0271  0.3880 -0.1876
20504W        W36978   8.832  18.079  10.423  0.0007 -0.0940 -0.2080
20505W        W36979  14.045  16.740   2.458 -0.0862 -0.1083  0.0815
20506W        W36980   4.011   3.166  13.730  0.1223  0.0584 -0.0832
20507W        W36981   7.039  10.163   2.073  0.2561  0.0877 -0.0880
20508W        W36982  11.636   7.997  12.718  0.1454 -0.0177 -0.0690
20509W        W36983   2.032   3.654  15.508 -0.1632 -0.2906  0.4470
20510W        W36984  12.042   3.471   1.035 -0.2464  0.1760 -0.2160
20511W        W36985  13.180   7.653  14.895  0.0971 -0.2909  0.1987
20512W        W36986   3.692  16.133  11.790 -0.0122  0.0065  0.1973
20513W        W36987   0.570   0.778   5.035 -0.1406 -0.3447 -0.0137
20514W        W36988   2.593  16.785   4.184 -0.2756  0.1626 -0.1082
20515W        W36989   3.329   3.029   2.729 -0.0511  0.0898 -0.3996
20516W        W36990   1.822  16.611   1.016 -0.0396  0.2967  0.0827
20517W        W36991  15.945  10.602   0.609  0.0089  0.2481  0.0906
20518W        W36992  17.568  12.088  10.567 -0.0125  0.0883 -0.1322
20519W        W36993   3.363   5.798  14.664  0.0779  0.1407  0.0191
20520W        W36994   8.827   9.572  15.690 -0.1251  0.0109 -0.0144
20521W        W36995   6.277   7.732   0.047  0.0624  0.1141  0.0419
20522W        W36996   6.852   0.170   0.235 -0.4014 -0.1106  0.3012
20523W        W36997   2.733   6.128   0.021 -0.4314 -0.0620  0.2675
20524W        W36998  12.769   9.275   3.306 -0.0812 -0.0205 -0.2249
20525W        W36999   6.252   4.180  12.693 -0.0724  0.2104 -0.1732
20526W        W37000   7.241  18.000  14.276 -0.1467 -0.0539 -0.0566
20527W        W37001  16.233   9.765  13.541  0.1697  0.1585  0.2280
20528W        W37002   3.949   8.261  13.366 -0.0284 -0.2127 -0.0961
20529W        W37003   9.207   4.179   4.971 -0.0895  0.0627 -0.1271
20530W        W37004   5.784  15.796   0.809  0.1197 -0.1284 -0.1925
20531W        W37005  13.639   4.380  13.490  0.3971  0.2668  0.0187
20532W        W37006   9.462  14.282   0.667 -0.3841  0.1383 -0.0355
20533W        W37007   9.653   4.969  13.626 -0.0497  0.1118 -0.0392
20534W        W37008   4.126  16.534  16.041  0.0014 -0.1117 -0.1586
20535W        W37009   7.600   2.721  16.028 -0.4109  0.3315 -0.2503
20536W        W37010   8.131  12.549  13.317  0.2401  0.1389 -0.0839
20537W        W37011   9.408   3.385   2.469  0.0598 -0.2557  0.0892
20538W        W37012   1.237   9.839   0.349  0.0966  0.1526 -0.1314
20539W        W37013  12.501   4.077   3.336  0.0822 -0.2817 -0.2591
20540W        W37014   0.723   9.658   3.603 -0.0243 -0.0682 -0.1478
20541W        W37015   8.505   3.881  11.457  0.2070  0.2933  0.3287
20542W        W37016   9.422  10.956  15.032 -0.2102 -0.1166 -0.1493
20543W        W37017   4.974   5.661  12.555 -0.2910  0.1211 -0.1194
20544W        W37018  16.832   5.347   4.102 -0.0405 -0.0117 -0.3747
20545W        W37019   8.887  10.858   1.616  0.1415  0.0662 -0.0413
20546W        W37020  15.177   2.157   3.280 -0.0453  0.2702  0.2128
20547W        W37021  13.093   9.603   0.409  0.2732 -0.1896 -0.2515
20548W        W37022  13.964  11.428  13.778 -0.2077  0.0102 -0.3389
20549W        W37023   8.527  10.284   2.315 -0.3940 -0.0465 -0.1016
20550W        W37024   7.698   0.542  13.097  0.0579 -0.1845 -0.0303
20551W        W37025   7.800   9.481   3.879  0.0599  0.4177  0.2944
20552W        W37026   7.580  14.734   3.610 -0.1429 -0.1220  0.3024
20553W        W37027   5.945   1.111   4.938  0.0402 -0.1110  0.0233
20554W        W37028  11.650  11.274   0.863  0.3422 -0.0104  0.0182
20555W        W37029  12.098   1.570  13.949  0.0645 -0.0956  0.2229
20556W        W37030   3.001  15.440   0.197 -0.0545  0.1081  0.0658
20557W        W37031  15.995   2.775  15.515  0.2210  0.0163  0.3772
20558W        W37032   5.845  10.391   0.081  0.0303 -0.1191 -0.0459
20559W        W37033   4.550   8.558   2.562  0.6321 -0.3198  0.1650
20560W        W37034   1.371  16.075  12.604  0.1277 -0.1583  0.0235
20561W        W37035  15.008   0.102  11.138  0.3414  0.3464  0.2012
20562W        W37036  17.089   6.254   1.593 -0.0719  0.0912  0.0878
20563W        W37037  14.683  12.958  11.563 -0.0797  0.4296  0.0419
20564W        W37038   1.272   2.759  12.538  0.0123  0.2278 -0.3916
20565W        W37039   4.856   1.434  14.729 -0.1567  0.0400 -0.0043
20566W        W37040  17.729   2.584   1.242 -0.0186  0.2425 -0.0673
20567W        W37041  17.582   5.596   3.706 -0.3267 -0.0860  0.0324
20568W        W37042  16.082  11.058   4.065  0.2035  0.0463  0.1459
20569W        W37043  14.521   6.448  15.795 -0.2406 -0.0152 -0.0702
20570W        W37044   0.814  18.153   0.996  0.2613 -0.2157 -0.3268
20571W        W37045   4.253   1.926  16.291 -0.2082  0.0155  0.2036
20572W        W37046   7.863   0.608   2.596  0.0336  0.1012 -0.1101
20573W        W37047   0.510   2.175  15.274 -0.4171  0.2605 -0.1460
20574W        W37048  13.876   8.420  16.088 -0.1074 -0.2567 -0.0105
20575W        W37049   2.668   9.060   2.445 -0.2130 -0.0254  0.0913
20576W        W37050   2.160  11.363  12.625  0.0320 -0.3855 -0.1570
20577W        W37051   3.196  16.762  14.911  0.2275 -0.2545 -0.2040
20578W        W37052   7.198   3.772   2.884  0.1516  0.1483 -0.1575
20579W        W37053  17.392   0.343   3.127  0.0568 -0.1600 -0.3118
20580W        W37054  14.736   6.702  15.221  0.2259 -0.1276  0.0284
20581W        W37055   9.010  12.422  12.139 -0.3881 -0.2343 -0.0201
20582W        W37056   5.338   9.217   3.419  0.0697  0.1010 -0.0304
20583W        W37057   1.552  11.014  12.590  0.0261 -0.1116  0.3152
20584W        W37058  13.880  15.152   2.670  0.0449  0.0815 -0.3458
20585W        W37059  14.510   5.455   3.720 -0.1763 -0.2848 -0.0799
20586W        W37060  17.882  15.228  11.498 -0.1879  0.2463  0.2965
20587W        W37061   9.655   9.739  13.629  0.0259  0.3170 -0.0624
20588W        W37062  16.474   7.655  13.148  0.0622 -0.1739  0.0244
20589W        W37063   2.382   7.716   3.007  0.0284 -0.0468 -0.1029
20590W        W37064  11.066   2.147  14.008 -0.2056 -0.0845 -0.0174
20591W        W37065   5.576  12.113   4.063 -0.0209  0.1588  0.1799
20592W        W37066   3.437  13.578  13.517  0.0444 -0.0688 -0.2659
20593W        W37067  10.602   6.350   5.255  0.1446  0.1239 -0.0399
20594W        W37068  12.816   6.288  16.136  0.1048 -0.1640 -0.2320
20595W        W37069  16.248   6.893   0.523  0.0771  0.0239  0.0322
20596W        W37070   9.197   9.222   3.358  0.0517 -0.4107 -0.2161
20597W        W37071   5.740  10.792  15.288  0.0936 -0.1446 -0.0203
20598W        W37072  13.911  17.031  15.371 -0.0956 -0.3980 -0.0056
20599W        W37073  15.609   9.915  12.304  0.1846  0.0625  0.2064
20600W        W37074   7.794   5.914  15.859 -0.0019  0.0758  0.3263
20601W        W37075   6.824   5.906   5.340 -0.1737 -0.3245  0.1332
20602W        W37076   6.439  16.546   2.257 -0.1452 -0.1253  0.0211
20603W        W37077  12.750   0.640  13.862  0.0907 -0.1220 -0.3851
20604W        W37078  15.922  10.510   1.976  0.1097  0.0881  0.0506
20605W        W37079   3.069  15.459  14.026 -0.1845  0.0372  0.1043
20606W        W37080  13.436   8.453   0.762  0.2706 -0.0359 -0.0379
20607W        W37081  10.372  16.924  15.200  0.1200 -0.0958 -0.1259
20608W        W37082  15.833  10.784  14.658 -0.0595 -0.4058  0.1680
20609W        W37083   7.950  12.872  12.922 -0.2838  0.2184  0.0126
20610W        W37084   7.034   2.619   1.361  0.1361 -0.0186  0.0154
20611W        W37085  17.097   9.956   1.039 -0.1415  0.1112  0.0923
20612W        W37086   6.846  12.566   3.544  0.3738 -0.0123  0.0354
20613W        W37087  16.982   3.158   3.461  0.3399  0.1199  0.2101
20614W        W37088  13.649   9.169   2.205  0.0379 -0.0339  0.2089
20615W        W37089   7.170   4.255   0.378  0.0154 -0.3100  0.0142
20616W        W37090   9.138   2.788  13.335 -0.1102 -0.2186 -0.1357
20617W        W37091  12.730  14.506  12.984  0.2117 -0.4073  0.1666
20618W        W37092   1.222   3.688  12.896 -0.0587 -0.0685  0.0056
20619W        W37093   2.455  17.016   2.394  0.2629 -0.1810  0.0324
20620W        W37094  10.606   1.047   1.989 -0.2405 -0.2255 -0.1056
20621W        W37095   7.765   1.521  12.987  0.0724  0.0846  0.0814
20622W        W37096  12.288   8.117  14.693  0.0793 -0.0181 -0.1119
20623W        W37097  15.055   0.219  16.124  0.1397 -0.4030  0.2309
20624W        W37098   2.226  12.333   6.096 -0.1234 -0.2122  0.0410
20625W        W37099  14.298  17.215  13.343 -0.0780  0.3707  0.0819
20626W        W37100   2.140  13.418  13.035 -0.1022  0.2844  0.0178
20627W        W37101   3.997   2.635   5.127 -0.3820 -0.2682  0.0823
20628W        W37102   9.108  12.032   3.271 -0.1063  0.1570 -0.1353
20629W        W37103  17.421  14.686   5.624  0.1010  0.2162  0.1328
20630W        W37104  14.057   6.014  14.983  0.0796 -0.0121  0.2640
20631W        W37105   5.889   7.083   2.489 -0.0511  0.1143 -0.2545
20632W        W37106  14.033   9.619  12.701 -0.4917  0.3530  0.0272
20633W        W37107  10.830  17.851  16.264  0.0593  0.1620 -0.0888
20634W        W37108  15.426   0.534  15.769 -0.2722  0.1171 -0.0768
20635W        W37109  16.851   0.928   0.711 -0.1457 -0.1558 -0.1293
20636W        W37110  12.114   6.962  15.770 -0.2107 -0.2195 -0.3331
20637W        W37111   6.671  16.115   2.600 -0.3491 -0.2925  0.0049
20638W        W37112   7.238   5.481  12.121  0.2053  0.0096 -0.1347
20639W        W37113  13.994  18.086   5.731 -0.0334 -0.3325 -0.1440
20640W        W37114   2.360  12.402   5.257  0.0390 -0.2761 -0.1253
20641W        W37115   1.288   1.239  13.332 -0.2524 -0.1165  0.2467
20642W        W37116  10.091   9.809  11.179 -0.2574 -0.2227 -0.1140
20643W        W37117   0.888   0.335  12.755  0.2815  0.2994  0.2200
20644W        W37118  14.488  17.783   0.451 -0.0287 -0.2402  0.1029
20645W        W37119   8.131   4.186   2.480  0.0268 -0.2674 -0.0697
20646W        W37120   2.089   3.651  14.068  0.0155  0.0715 -0.0798
20647W        W37121  12.318   9.168  14.998  0.0397  0.0746  0.3587
20648W        W37122   2.373  15.353  12.897 -0.1347  0.2935 -0.0680
20649W        W37123  14.396   4.046  13.844  0.0917 -0.1730  0.0531
20650W        W37124   7.103   3.736   0.909  0.0467  0.1315  0.3950
20651W        W37125   8.670  17.670  14.802 -0.0274 -0.1266 -0.0885
20652W        W37126   8.101  14.500  15.758  0.2023  0.3526 -0.0297
20653W        W37127   0.446   5.454   0.262 -0.0246  0.3052 -0.3363
20654W        W37128   8.370  13.466   4.516  0.0324 -0.3255  0.1476
20655W        W37129  11.237   3.070   1.153  0.0408 -0.0191 -0.1397
20656W        W37130  10.297   8.822  12.782 -0.0636 -0.2612 -0.0220
20657W        W37131  12.408  13.187  14.217 -0.1067 -0.0482 -0.0933
20658W        W37132  10.625  12.581   3.291 -0.1639  0.1984  0.1589
20659W        W37133  12.247   9.159  12.414 -0.2818 -0.1054  0.3003
20660W        W37134  15.432  16.892   4.785  0.1327  0.3325  0.1511
20661W        W37135   7.816  15.131   3.877 -0.1176  0.1903 -0.2196
20662W        W37136   2.456  10.530   4.544 -0.0375 -0.0549  0.2762
20663W        W37137   4.586  12.950   3.157  0.0351  0.2016 -0.0155
20664W        W37138   5.454   6.094  10.703  0.0105  0.0842 -0.1738
20665W        W37139   4.085   4.602  11.941 -0.2537 -0.0699  0.2315
20666W        W37140   2.880  16.159  14.804  0.0357 -0.1426  0.2915
20667W        W37141   2.226   3.644   5.227 -0.2640  0.0831  0.0881
20668W        W37142  13.631   0.356  11.147  0.1144 -0.1729 -0.2205
20669W        W37143   7.859   6.199  12.118  0.1398 -0.2362  0.0916
20670W        W37144   6.177  10.809   2.956  0.0686 -0.0633 -0.1721
20671W        W37145  16.077  11.114  13.428 -0.0941 -0.1822 -0.1886
20672W        W37146   2.097   8.124   2.659 -0.2209 -0.0085  0.0924
20673W        W37147  10.346   3.190   5.858  0.0303 -0.0772 -0.0304
20674W        W37148   0.156   8.966   0.088 -0.0286 -0.4542  0.1510
20675W        W37149  16.729  16.794  14.540  0.0835  0.0183  0.0778
20676W        W37150   9.560  14.245  13.495 -0.5278  0.3096  0.1790
20677W        W37151   6.742  13.926  15.094 -0.1380 -0.1613 -0.1681
20678W        W37152   7.354   9.917  12.902  0.2213  0.1765 -0.0893
20679W        W37153   0.333  17.732  14.707 -0.1024 -0.1837 -0.0869
20680W        W37154   9.841   6.715   1.590 -0.0203  0.1559 -0.1015
20681W        W37155   5.793   6.426  13.315 -0.0213  0.0356  0.1817
20682W        W37156   3.754   8.642  12.431  0.0260  0.0474 -0.0777
20683W        W37157  10.444  12.463  15.802  0.0189 -0.1537  0.1595
20684W        W37158   8.628   6.147  14.578 -0.2252  0.2760  0.1189
20685W        W37159  18.061   3.426   1.161  0.0400  0.0099  0.1288
20686W        W37160   3.840  10.883  11.719  0.4200 -0.0187  0.1110
20687W        W37161   6.853   0.802   0.596  0.1685  0.1660 -0.0659
20688W        W37162   1.884  10.133   3.312  0.0579  0.2441  0.3327
20689W        W37163   0.545  12.671  12.865 -0.1659 -0.1461  0.0512
20690W        W37164   5.881   5.490  15.882  0.2063  0.0721 -0.0141
20691W        W37165  13.972   8.305  13.178  0.0523 -0.1319 -0.2010
20692W        W37166   2.502  13.593   2.499  0.0326  0.0346 -0.0866
20693W        W37167  15.811  15.497   3.212 -0.1240  0.0350  0.1008
20694W        W37168  17.377   6.605   2.348  0.0242 -0.0977  0.2914
20695W        W37169  17.873   2.332   1.745 -0.0050 -0.0545  0.0831
20696W        W37170   6.252  15.820   1.602 -0.1068  0.1853  0.0717
20697W        W37171  16.905   3.826  15.896 -0.2548 -0.2357  0.1753
20698W        W37172  18.050  16.235   3.891 -0.0395 -0.0813 -0.0276
20699W        W37173  16.026   9.072   0.219  0.1563  0.0588 -0.1877
20700W        W37174   8.977  14.158   0.423  0.0664  0.2927 -0.3122
20701W        W37175   3.329   2.829  11.976 -0.1546  0.1179 -0.1580
20702W        W37176  16.520  13.308   1.533  0.1338  0.0104 -0.2754
20703W        W37177  14.733  16.535   5.537 -0.0901 -0.0083 -0.0304
20704W        W37178  15.592  16.587   5.171 -0.0828  0.1573  0.0199
20705W        W37179  10.689  16.553  15.208 -0.2447  0.2327 -0.0720
20706W        W37180  16.232  17.392  16.052  0.1634  0.2850  0.2439
20707W        W37181   8.567  16.542  14.367 -0.4646  0.0585  0.0662
20708W        W37182   9.335   1.396  13.076  0.0112 -0.4916 -0.2312
20709W        W37183   7.663  15.962   3.381 -0.1986  0.0487 -0.2125
20710W        W37184  10.289   5.338   2.928  0.1396  0.2198  0.1255
20711W        W37185  11.190   6.940   1.850 -0.3173 -0.1234  0.0392
20712W        W37186  12.995   1.090   0.187 -0.2215 -0.1869 -0.0249
20713W        W37187  16.022  14.431   0.342  0.2050  0.0575 -0.3767
20714W        W37188   0.995   1.901  13.429 -0.1697  0.1262 -0.0309
20715W        W37189   0.191   7.884  12.476 -0.1821 -0.5039 -0.1737
20716W        W37190   1.183  13.826   4.800  0.1960 -0.0941 -0.0580
20717W        W37191  13.112   1.505   2.904  0.2398  0.2242  0.1561
20718W        W37192  11.547  14.416  13.856 -0.0150 -0.4324 -0.1660
20719W        W37193   6.083   7.810  10.939  0.1196 -0.0124  0.2939
20720W        W37194  16.854  15.940  13.022 -0.0086  0.0547  0.2255
20721W        W37195   0.924   2.331  16.362  0.2713  0.1108 -0.1116
20722W        W37196  17.775   4.764  13.335  0.0169 -0.2332 -0.2114
20723W        W37197   7.008   7.771   0.369  0.0516  0.1135 -0.3326
20724W        W37198  16.693   4.690   3.674 -0.1850  0.0455  0.1833
20725W        W37199   7.894   1.909   6.239 -0.3405  0.4041  0.0314
20726W        W37200   4.597  12.559   1.864  0.0638 -0.2264  0.0288
20727W        W37201  13.758  12.138   4.662  0.0538 -0.0625  0.0769
20728W        W37202  15.192  16.587   5.811 -0.1169  0.1034  0.1047
20729W        W37203  17.090   7.684  13.876 -0.1058  0.0954  0.1217
20730W        W37204   9.745   3.096   1.540  0.1120 -0.0072 -0.1257
20731W        W37205   3.400   3.789  12.802 -0.1414  0.2514 -0.1765
20732W        W37206   5.372  11.627  12.438  0.1867 -0.0429 -0.0860
20733W        W37207   9.528  15.702  13.571 -0.0943 -0.0924 -0.1174
20734W        W37208   6.372  13.771   5.895  0.0177  0.2886 -0.0046
20735W        W37209  12.518  14.185   1.114 -0.2886  0.0650  0.0818
20736W        W37210  16.465   0.642   0.753 -0.2197  0.0010 -0.0817
20737W        W37211  11.345  16.719  14.279 -0.0623  0.1604 -0.0490
20738W        W37212  14.563   1.570   1.630  0.0122  0.0890 -0.2518
20739W        W37213   3.130   0.120  13.932  0.1720 -0.0472  0.1646
20740W        W37214   2.592  13.364   1.317 -0.0790 -0.3013 -0.0976
20741W        W37215   3.505   0.391  14.875  0.0823 -0.1145  0.1459
20742W        W37216   1.803   0.595   5.388 -0.4247 -0.0254  0.0913
20743W        W37217   8.484   3.035   0.115 -0.0572  0.4350 -0.1107
20744W        W37218   6.854   1.155   2.440  0.0710  0.2697  0.2046
20745W        W37219   9.052  14.233   5.579  0.2582 -0.1904  0.0683
20746W        W37220   0.813  10.470   0.684 -0.1097 -0.0818 -0.0846
20747W        W37221   1.748   4.718   4.582  0.2149  0.1545 -0.4405
20748W        W37222  17.099   6.760   3.429  0.4209  0.2185  0.0338
20749W        W37223   8.929   9.992   3.997  0.2516 -0.3578  0.1852
20750W        W37224   8.032  14.634  16.262  0.2686  0.1288 -0.0779
20751W        W37225   6.923   9.649   4.994 -0.2878  0.1072 -0.2720
20752W        W37226   6.516   3.831  13.669 -0.2097  0.1636  0.0806
20753W        W37227   0.646   2.720  13.885  0.2034 -0.2100  0.2174
20754W        W37228  14.058  12.453   1.520 -0.0775 -0.1879  0.2645
20755W        W37229   0.500   5.822   2.445  0.1336 -0.0556  0.1316
20756W        W37230  10.563  14.419  13.439  0.2922 -0.0900  0.0474
20757W        W37231   7.452   2.707   4.292  0.2404 -0.1948 -0.0729
20758W        W37232  13.789  16.531  14.355 -0.1114 -0.0337 -0.0240
20759W        W37233   6.702   4.419   2.595  0.1484 -0.1489  0.4294
20760W        W37234  10.211  13.480   3.053  0.1173  0.1201  0.0191
20761W        W37235   2.089   8.806   0.898  0.2287  0.1039  0.0546
20762W        W37236  13.364  17.439   2.893 -0.0714 -0.0121 -0.2948
20763W        W37237  14.591   7.156  13.639 -0.2204 -0.2390  0.0897
20764W        W37238  16.807   0.419  14.706 -0.0845 -0.0527  0.0932
20765W        W37239   0.132  11.664  14.369  0.0655 -0.2434 -0.2105
20766W        W37240   6.319   5.846   5.661 -0.0550 -0.0383 -0.0368
20767W        W37241   8.879  17.481  11.910  0.2269 -0.0285  0.0197
20768W        W37242  13.282   1.789  12.654  0.1851  0.0637  0.0947
20769W        W37243   9.085  14.992   3.204  0.0542  0.1511  0.1894
20770W        W37244  11.435  10.921   3.460  0.0419  0.2267  0.1277
20771W        W37245   0.620   1.938   4.870 -0.0425  0.0766 -0.0261
20772W        W37246  12.678   9.993  11.905  0.4584 -0.1717 -0.0669
20773W        W37247   9.208  16.320  12.145 -0.0367  0.0369  0.2541
20774W        W37248   6.890   4.334  11.408  0.0025 -0.4193 -0.3264
20775W        W37249   6.232   7.122   4.699 -0.0661  0.1662 -0.1194
20776W        W37250   2.502   7.845   2.527  0.0946  0.2525  0.2169
20777W        W37251   8.256  16.314   3.979 -0.0318  0.1285 -0.0364
20778W        W37252   3.176   8.213   4.427  0.0477  0.0271  0.0085
20779W        W37253   2.357  14.839  14.178 -0.0476  0.1860 -0.1171
20780W        W37254   1.371   6.152  13.920 -0.1482  0.0688  0.1820
20781W        W37255  12.067  16.292  14.612 -0.0014  0.0788  0.2289
20782W        W37256  14.577   0.715   1.471 -0.2397  0.1012 -0.1556
20783W        W37257  10.901   4.333  12.449  0.0450 -0.0201  0.1605
20784W        W37258  10.691  13.638   6.101  0.0894 -0.3547 -0.1804
20785W        W37259  17.182   3.399  14.578 -0.0371 -0.0172  0.1225
20786W        W37260   5.122  16.443  14.908  0.1178  0.0094 -0.0502
20787W        W37261   9.486  13.863   2.755 -0.0686 -0.1149  0.0638
20788W        W37262  12.894  14.290   6.157 -0.0601  0.2335 -0.0855
20789W        W37263   6.479   0.269   6.208 -0.0718 -0.0046  0.0637
20790W        W37264   1.163   0.437   0.188  0.2739 -0.0732  0.0623
20791W        W37265  17.888  11.087   6.120  0.0965 -0.1656 -0.0291
20792W        W37266  18.133  17.158   1.153 -0.1329  0.1805  0.0077
20793W        W37267  13.329   7.431  11.635  0.1486 -0.1446 -0.0234
20794W        W37268   0.289   6.686   3.225 -0.0970  0.0088 -0.1225
20795W        W37269   1.527   1.916   6.453  0.1050 -0.0012  0.2526
20796W        W37270   3.658   4.132   0.901  0.0541  0.1214 -0.3062
20797W        W37271  13.702   5.506  12.610 -0.0787 -0.0361 -0.0587
20798W        W37272  11.112  14.974  13.659 -0.0216  0.0485 -0.0177
20799W        W37273   1.113   7.260   2.364 -0.0132  0.0558  0.0854
20800W        W37274   8.119   4.460   1.578  0.0549 -0.2544 -0.1147
20801W        W37275  12.238   0.831   1.102  0.3270  0.0287 -0.1847
20802W        W37276   6.607  16.250  12.560 -0.0182  0.2314  0.2632
20803W        W37277  11.961   1.454  15.373 -0.0641  0.2885  0.1093
20804W        W37278  15.723  11.565   3.059 -0.2210  0.1241 -0.2695
20805W        W37279   4.742  13.970   3.261 -0.1823 -0.0014  0.3470
20806W        W37280  16.762  12.465   2.433 -0.1327  0.0798  0.1789
20807W        W37281  10.049   1.563  11.382  0.0683  0.1269 -0.1221
20808W        W37282  16.825  14.857  15.324 -0.3852  0.1072  0.0622
20809W        W37283  13.770  13.167  13.611  0.0739 -0.0571  0.0349
20810W        W37284   6.379   8.808   4.710 -0.0454 -0.2092 -0.1547
20811W        W37285  14.344   2.205  14.283  0.0798  0.0164 -0.0098
20812W        W37286  11.133   2.712  15.991  0.0224 -0.0370 -0.0338
20813W        W37287   8.738   5.232   3.471  0.1963  0.1518  0.3636
20814W        W37288   0.181  12.410  11.293 -0.6699 -0.0458 -0.1552
20815W        W37289  11.136   7.315  12.600 -0.1542 -0.1311 -0.1405
20816W        W37290   4.728  10.296   0.884 -0.1918 -0.1056  0.2685
20817W        W37291  10.194   8.466   1.253 -0.2755 -0.1296 -0.0656
20818W        W37292   5.574  13.342  15.433  0.1155 -0.0358 -0.2010
20819W        W37293   3.733   5.933   1.662  0.3927 -0.3254  0.0281
20820W        W37294  13.081   8.349   3.102  0.2512 -0.0755  0.0466
20821W        W37295  16.143  12.723   0.169  0.0513 -0.4034 -0.2006
20822W        W37296  13.123  13.382   4.823  0.2849  0.1639  0.2217
20823W        W37297  12.854  13.942   0.064  0.0596  0.0263 -0.1007
20824W        W37298   6.421   1.952  11.859  0.1908 -0.0549 -0.0628
20825W        W37299  10.522   8.971  13.956 -0.0854  0.1421  0.1426
20826W        W37300   4.438   4.629   0.021  0.3057  0.3971  0.2270
20827W        W37301   2.672  15.773   2.221  0.0040 -0.1384 -0.1262
20828W        W37302   2.462   9.267   0.581  0.1685  0.1051  0.1261
20829W        W37303   1.428   3.720   2.589 -0.0794 -0.1042  0.0418
20830W        W37304   7.423  16.153   0.747  0.1751  0.1321  0.4394
20831W        W37305  16.490   4.989  13.310 -0.0294 -0.0869 -0.1802
20832W        W37306  17.821  17.541  14.284 -0.0011 -0.4215  0.1974
20833W        W37307  14.748   6.424  11.591  0.1892 -0.2760 -0.1488
20834W        W37308   3.688   5.974  15.036 -0.3294 -0.2397  0.0693
20835W        W37309  12.876  17.938  13.624 -0.2964 -0.1394 -0.0278
20836W        W37310   5.711   0.034  12.532  0.0772 -0.0042  0.1385
20837W        W37311   1.780   2.583  13.393  0.3633 -0.1516  0.1655
20838W        W37312   2.181   9.503  14.253 -0.0395  0.2384 -0.0086
20839W        W37313  11.008  10.259  13.104 -0.0721  0.0048  0.0275
20840W        W37314  13.242  10.855   1.291  0.0626  0.1421 -0.0858
20841W        W37315  17.722   5.724   2.714 -0.3684  0.0611  0.0625
20842W        W37316   0.352  10.667  14.826  0.1551 -0.1219 -0.1232
20843W        W37317   2.183   9.588  14.728 -0.0236  0.1962 -0.1721
20844W        W37318   9.944   6.164  15.888  0.1575  0.0769 -0.1116
20845W        W37319   7.785   3.490   5.531  0.0025  0.0082 -0.1608
20846W        W37320  12.081   9.739   4.797 -0.0318  0.0438  0.2214
20847W        W37321   3.885   0.026   1.156  0.0656 -0.4059 -0.1146
20848W        W37322   5.754   5.528  14.732 -0.2245 -0.0298 -0.0557
20849W        W37323   1.451   6.788   2.341  0.4288 -0.2126  0.0492
20850W        W37324   4.294   6.701   4.460 -0.0649 -0.0350 -0.2196
20851W        W37325   7.260  13.017   4.153 -0.3390  0.1373 -0.3497
20852W        W37326   0.945  17.921   3.493  0.0204 -0.2002 -0.0615
20853W        W37327   2.774   0.242  12.555  0.2572 -0.1556  0.1186
20854W        W37328   9.997   8.054   0.245  0.0956 -0.0043  0.1487
20855W        W37329   0.436  13.196   2.199  0.0766  0.2347  0.1541
20856W        W37330   2.674   4.554  15.393 -0.1341  0.2093 -0.1758
20857W        W37331   5.750  14.163  15.779 -0.0783 -0.0399  0.0288
20858W        W37332  17.001  14.343   0.054  0.0765 -0.2056 -0.2568
20859W        W37333   4.290  16.623  15.533 -0.1845  0.1719  0.0476
20860W        W37334   1.751   2.014  11.447 -0.4189 -0.1759 -0.0724
20861W        W37335  11.843  14.457  13.025  0.1660 -0.2299  0.2270
20862W        W37336  12.962  17.800  14.125 -0.1830  0.1498  0.3815
20863W        W37337  10.029   3.672   1.239 -0.0593  0.0408  0.1151
20864W        W37338   8.431   3.639   4.327 -0.2418  0.1996 -0.1653
20865W        W37339   9.763  17.179   4.631 -0.0056  0.1565 -0.1685
20866W        W37340  13.848   6.018  16.369 -0.3045 -0.2870 -0.0410
20867W        W37341   0.917   3.774   5.914  0.0447  0.1776 -0.1690
20868W        W37342  13.777   9.759   0.034  0.1655 -0.1448 -0.2876
20869W        W37343  17.137   5.134   0.666  0.2054  0.0789  0.3024
20870W        W37344   1.353   3.361   3.447  0.2858  0.1839 -0.0283
20871W        W37345  12.193   9.227  15.443 -0.1266 -0.2409 -0.4396
20872W        W37346  10.987  13.335  12.674  0.0574 -0.2583 -0.2959
20873W        W37347   2.727   8.026   1.535 -0.1861  0.2613 -0.0906
20874W        W37348   5.580   2.485  12.162 -0.0136 -0.3082 -0.0096
20875W        W37349   7.136  12.165  11.474  0.0359  0.0802 -0.0361
20876W        W37350   0.415  17.998  11.704  0.1676 -0.0347  0.0643
20877W        W37351   3.789   3.014   1.915 -0.0720  0.3667 -0.2928
20878W        W37352  13.299   6.391  13.024  0.0127 -0.1052  0.0161
20879W        W37353   4.556   5.005  15.177  0.1284 -0.3594  0.1641
20880W        W37354  16.221  16.184   4.532  0.1956 -0.1333 -0.1604
20881W        W37355  18.091   3.993   1.204  0.4671 -0.1611 -0.1462
20882W        W37356   6.946  17.232   3.544  0.2438 -0.0679 -0.0540
20883W        W37357  14.904  15.001  14.757 -0.2557  0.0191 -0.0718
20884W        W37358   4.018   4.581  14.890 -0.1503 -0.1721 -0.1046
20885W        W37359   3.340  12.201   0.219  0.0137 -0.0360 -0.2565
20886W        W37360  17.629  13.426  11.610 -0.0795 -0.0693  0.2422
20887W        W37361   2.362   0.687   1.877 -0.0339  0.2414 -0.1629
20888W        W37362   3.149   6.167  14.866 -0.0687 -0.2843  0.0680
20889W        W37363  16.015   8.751   3.044 -0.4072 -0.2663  0.3180
20890W        W37364  10.647  15.638  11.579  0.2638 -0.0108  0.3247
20891W        W37365  15.601  17.077  15.267  0.1585 -0.1065 -0.1135
20892W        W37366  14.526   5.259  13.027 -0.0389  0.2281 -0.0877
20893W        W37367  17.120   2.001   0.561 -0.0808  0.1633  0.0199
20894W        W37368  13.009  11.475  11.544 -0.0093 -0.0963  0.0403
20895W        W37369  16.321  10.209   2.666  0.0359 -0.1016  0.3346
20896W        W37370  15.289  17.259   0.402  0.0907  0.0675 -0.0119
20897W        W37371  15.531   0.338  12.527  0.0861 -0.0759 -0.4072
20898W        W37372   4.510  11.262  14.526  0.0559  0.2661  0.0179
20899W        W37373  15.020   9.490   3.983 -0.0001  0.2987  0.2017
20900W        W37374   6.070  17.824  12.370 -0.1022  0.1155 -0.1070
20901W        W37375  11.626   7.813  14.315  0.2112  0.0223  0.3762
20902W        W37376   4.130  12.856  15.538 -0.4803 -0.0627  0.2482
20903W        W37377  17.024  16.262   6.163 -0.1105 -0.1426 -0.0641
20904W        W37378  11.960  16.436  11.185  0.0351  0.1252 -0.1253
20905W        W37379   9.244   8.816   2.495  0.1397  0.2520  0.2008
20906W        W37380  17.150   4.092  13.803  0.0239 -0.0728 -0.1120
20907W        W37381   5.243  12.704   2.522 -0.1041  0.0279 -0.0254
20908W        W37382   0.158   4.683  11.716 -0.0847  0.2899  0.2249
20909W        W37383  11.633   8.905  14.232  0.0023 -0.2027 -0.1055
20910W        W37384   3.795  16.667   2.219  0.0393 -0.0331  0.1159
20911W        W37385  17.365  16.753   3.441  0.0096  0.1462 -0.2690
20912W        W37386   3.366  14.128  12.308  0.3532  0.0693  0.2332
20913W        W37387   5.239   2.240   0.565 -0.1404  0.2402 -0.0149
20914W        W37388   8.163   7.288  16.265  0.0991 -0.0983  0.1028
20915W        W37389   7.942  11.146  15.576 -0.1341 -0.0725  0.0802
20916W        W37390   1.656   6.571  13.085 -0.0133 -0.2202 -0.2859
20917W        W37391   6.577   9.568  13.537 -0.1406  0.0154  0.1369
20918W        W37392   4.592   3.160  15.506  0.1274  0.0036 -0.3809
20919W        W37393   4.795  16.368   4.165 -0.0103 -0.0947  0.0067
20920W        W37394   4.403  11.660   2.051  0.1682  0.0334 -0.1268
20921W        W37395   2.752  17.981  13.911  0.0323 -0.1076 -0.2126
20922W        W37396  12.695  10.232   1.610 -0.1607 -0.2043  0.4079
20923W        W37397  17.302  16.442   0.388 -0.1371  0.3299 -0.1237
20924W        W37398  14.754   3.308   4.771  0.0557 -0.0736  0.1829
20925W        W37399   4.579   6.494  13.894  0.1091 -0.1308  0.1823
20926W        W37400  15.960   1.681   1.597  0.1857  0.1498  0.2834
20927W        W37401  12.102   4.660  12.292  0.0105 -0.1245 -0.1737
20928W        W37402  14.580   9.805   4.127 -0.3182  0.0153 -0.0147
20929W        W37403  10.557   5.280   2.024 -0.1493  0.1391  0.0266
20930W        W37404  14.143  10.574   3.714  0.1270  0.4049 -0.0277
20931W        W37405  12.803   2.288   0.190 -0.0507  0.2524 -0.1317
20932W        W37406  15.435   8.339  15.815 -0.0874 -0.0652 -0.2379
20933W        W37407   9.107   6.175   1.260 -0.0380 -0.0498  0.0639
20934W        W37408   9.756   7.267   1.717  0.1774 -0.1348 -0.1489
20935W        W37409  10.318  11.847  13.522 -0.0889 -0.0143  0.1905
20936W        W37410   5.294  10.225  13.482  0.1486  0.2767 -0.3082
20937W        W37411  10.451   3.326  15.616 -0.0879 -0.2745 -0.1011
20938W        W37412  10.295  11.136   0.565 -0.1379 -0.0332 -0.0020
20939W        W37413   4.031   2.889  13.221 -0.0296  0.1855  0.0726
20940W        W37414   9.124  17.572  15.145 -0.2454 -0.0590  0.3674
20941W        W37415   3.695  12.871  13.664  0.0655  0.1065  0.2238
20942W        W37416   1.231   4.772   4.453 -0.2112  0.0008 -0.0805
20943W        W37417   1.338  11.530  13.148  0.0088  0.1635 -0.0732
20944W        W37418   7.795   2.266   2.512 -0.1803 -0.1634 -0.1867
20945W        W37419   4.852  10.733  13.407  0.2505  0.0530 -0.0551
20946W        W37420   5.046   7.022  16.363 -0.1801  0.2630 -0.1722
20947W        W37421   7.342  16.890  14.916 -0.0205 -0.0909 -0.0702
20948W        W37422  16.893  10.739  13.736  0.0889  0.1293  0.0274
20949W        W37423  17.775   9.278   6.121 -0.2144 -0.0629  0.3312
20950W        W37424  10.923  12.127   0.822  0.2457  0.0585  0.1208
20951W        W37425   7.531  16.408  13.136  0.0185  0.1769  0.3165
20952W        W37426  13.743  11.819  15.190  0.0706 -0.1579  0.0881
20953W        W37427   2.119  12.271  13.060 -0.2502 -0.1960 -0.3798
20954W        W37428   6.226  15.172  14.465 -0.2047  0.0638  0.5002
20955W        W37429   8.629  10.065  12.168 -0.2103 -0.3214  0.0665
20956W        W37430   5.300   2.894   1.750 -0.1482  0.0031 -0.0732
20957W        W37431  17.388  10.059  15.158 -0.0749 -0.2709  0.0637
20958W        W37432   0.832   4.306  10.456 -0.0898 -0.1672 -0.1192
20959W        W37433  13.687   9.844   1.464  0.2000  0.1099 -0.1582
20960W        W37434   0.452   1.813  13.461 -0.0594  0.2077 -0.2044
20961W        W37435  12.807  16.837   1.728 -0.1285 -0.3158 -0.2670
20962W        W37436  17.429   0.144   4.003 -0.2694 -0.1070  0.1180
20963W        W37437   3.190  14.024   1.760  0.0605 -0.1562 -0.0107
20964W        W37438   7.298   8.688  14.641  0.0177  0.1085  0.0859
20965W        W37439   1.927  14.396  14.118 -0.1589 -0.0864  0.4315
20966W        W37440  10.492  15.647   3.979  0.0693  0.2348  0.1766
20967W        W37441  15.381  13.989   0.819 -0.0851 -0.2119  0.1153
20968W        W37442   7.447   9.658  11.898  0.1005  0.2411  0.2596
20969W        W37443   6.727   9.213   1.339  0.0845  0.1212 -0.0772
20970W        W37444  10.884  17.484   3.241  0.0498 -0.0391  0.0954
20971W        W37445   3.077  15.096  14.887 -0.0871  0.0850 -0.2100
20972W        W37446   9.080   9.171   5.085 -0.1895 -0.1746 -0.2917
20973W        W37447   9.088   0.410   0.163  0.2694  0.0331 -0.4463
20974W        W37448  14.432   6.146  13.992  0.2136  0.1625 -0.1151
20975W        W37449  15.126   2.825   1.775 -0.1371  0.1934 -0.3458
20976W        W37450   8.821  14.168   1.138  0.0876 -0.4113 -0.0582
20977W        W37451   8.314   9.698   0.968 -0.1484  0.0834  0.1293
20978W        W37452   5.858  12.341  11.234  0.1530 -0.0791 -0.0694
20979W        W37453   2.139  15.117  13.833 -0.1633 -0.3805 -0.2720
20980W        W37454   5.311  12.158  15.495  0.2490 -0.1557  0.0626
20981W        W37455  15.508  12.321   5.733 -0.0226  0.4259  0.0053
20982W        W37456   7.507   3.710  14.315  0.1315  0.2590 -0.1491
20983W        W37457  15.289  14.220  16.295  0.1739  0.1410  0.2300
20984W        W37458  13.781  15.321   5.467  0.0792  0.0265 -0.1295
20985W        W37459   2.277   7.884  12.059 -0.2075  0.0044  0.2663
20986W        W37460   3.866  16.724  14.474 -0.0540 -0.1324  0.1951
20987W        W37461  10.399   0.883   0.330  0.4288 -0.0100 -0.0826
20988W        W37462  17.887   9.912  16.210 -0.2724  0.0166  0.0093
20989W        W37463   6.287  16.295   3.935 -0.0451  0.0124  0.0069
20990W        W37464  17.858   9.081  16.268 -0.1630  0.3013 -0.0280
20991W        W37465  13.733   2.943  11.211 -0.0907 -0.0917  0.0741
20992W        W37466  17.549   4.328  15.063  0.0155 -0.1751 -0.4558
20993W        W37467   4.134   6.253  16.236  0.0759  0.0916 -0.1792
20994W        W37468  14.110   9.847  16.055 -0.2977 -0.1543 -0.1647
20995W        W37469   2.937  15.772  12.338  0.3249 -0.0934 -0.3760
20996W        W37470   5.153  11.509  12.030  0.2370  0.2658  0.0845
20997W        W37471   0.918  18.155   3.998 -0.1472 -0.0409  0.1486
20998W        W37472   3.253   4.796   5.594 -0.1461 -0.1088 -0.1193
20999W        W37473   2.233  13.006   3.613  0.3471  0.1464 -0.1366
21000W        W37474  14.933   7.330   4.846 -0.1071  0.0959 -0.0836
21001W        W37475  17.876  16.111  11.341 -0.2420 -0.0067 -0.0019
21002W        W37476  15.734   8.305  12.454 -0.0315 -0.2885  0.0133
21003W        W37477  16.710   6.940   3.008  0.0850  0.0910  0.0880
21004W        W37478   7.759   2.574  13.050 -0.1321 -0.0327  0.0603
21005W        W37479   0.164   9.747   5.260 -0.0183 -0.0474  0.0280
21006W        W37480  16.927   2.847  11.336  0.1193  0.0095  0.0722
21007W        W37481  10.472   3.678  12.984 -0.1281  0.0153 -0.1711
21008W        W37482   2.799   8.854   0.583 -0.4902  0.1098  0.0078
21009W        W37483  12.087   1.684  12.045 -0.1872  0.0835 -0.0519
21010W        W37484   6.138  13.229  12.261 -0.0224  0.0271 -0.1345
21011W        W37485  13.585   2.746  14.534 -0.0934 -0.2051 -0.1902
21012W        W37486   2.645   3.784  11.577  0.1515 -0.1948 -0.1044
21013W        W37487   0.135  15.259  14.604  0.0368  0.1939 -0.2528
21014W        W37488  10.743   0.013  11.613  0.0932 -0.0278  0.1217
21015W        W37489  10.357  16.230   6.234 -0.1562  0.1576  0.0654
21016W        W37490  15.781   1.732   4.023  0.2075  0.1099 -0.1236
21017W        W37491   8.842   7.359   2.758 -0.0152  0.1398 -0.1361
21018W        W37492   4.144   2.186   1.028 -0.0068  0.0482  0.1165
21019W        W37493  11.282   5.154   1.577  0.1318 -0.0341  0.0669
21020W        W37494   2.358   5.271   2.453 -0.2843  0.0823 -0.1478
21021W        W37495   5.159  12.044   2.264  0.0573 -0.0149 -0.0795
21022W        W37496   1.074  10.021   3.908  0.2463  0.0279 -0.0378
21023W        W37497  17.717   1.609  13.800 -0.0800 -0.0337 -0.0523
21024W        W37498   0.157   3.884  16.285  0.2264  0.0883 -0.2584
21025W        W37499  11.398  16.983  16.095 -0.0208 -0.0519 -0.0128
21026W        W37500   4.855  14.487   3.530 -0.2655  0.4485  0.2263
21027W        W37501   1.042   7.282  13.862 -0.0798 -0.2494 -0.0682
21028W        W37502   1.184   8.615   2.840  0.1243  0.1648  0.0589
21029W        W37503   1.056  16.831   2.735 -0.0601 -0.0914  0.0026
21030W        W37504   2.060   0.869   1.097  0.1819  0.1021 -0.0136
21031W        W37505   7.754   7.134   4.829  0.0109 -0.1281 -0.1454
21032W        W37506   8.521   5.681   1.888 -0.0079 -0.0083 -0.3364
21033W        W37507  13.420  12.357  11.497  0.0438  0.0354 -0.3820
21034W        W37508  10.437   3.186   2.577  0.1176 -0.1158 -0.2824
21035W        W37509   7.041   5.192   2.198  0.0754 -0.4796 -0.1693
21036W        W37510  10.761   1.528  12.850 -0.0994 -0.1312  0.1701
21037W        W37511  17.062  14.708   4.895  0.1922  0.4816 -0.1602
21038W        W37512  15.282   1.414   2.164  0.1345  0.0507 -0.0047
21039W        W37513   4.028  10.094  14.729  0.0531 -0.3055 -0.0610
21040W        W37514   0.255   5.044  14.932  0.1401  0.0732  0.0445
21041W        W37515  12.821   3.026  11.777  0.0797  0.1198  0.0788
21042W        W37516  15.357  11.444  14.866  0.3567  0.0031  0.0087
21043W        W37517   6.296  17.283  15.086  0.2000  0.0793  0.1980
21044W        W37518   2.154   6.211   3.722 -0.0185 -0.2910 -0.1082
21045W        W37519  18.151   0.389   1.162 -0.3332 -0.1406  0.1374
21046W        W37520   5.039   9.249  14.405 -0.3194 -0.0561  0.1644
21047W        W37521   4.575   4.911  13.491  0.1665 -0.2119 -0.1385
21048W        W37522  10.850  11.214   0.975 -0.0409 -0.0633  0.1644
21049W        W37523  17.750   8.706  15.233  0.0859 -0.1435 -0.1287
21050W        W37524  14.425  14.834   2.806 -0.0884  0.0353 -0.1949
21051W        W37525   8.301   0.172  15.463  0.0680  0.3897  0.0450
21052W        W37526  12.539  14.836  13.948  0.3429  0.0552  0.1375
21053W        W37527  13.840   7.455   1.667 -0.1002  0.2443 -0.1234
21054W        W37528  10.152  13.419  13.610  0.0224 -0.1793 -0.1812
21055W        W37529  15.422   2.120   2.767  0.1779  0.1397 -0.0433
21056W        W37530   3.793   8.481  15.295  0.2053  0.2114  0.1179
21057W        W37531  12.068   0.450   3.640 -0.1212  0.0830 -0.1237
21058W        W37532  12.476  12.020  14.859  0.0300  0.1887 -0.2067
21059W        W37533  13.833   3.919  13.792 -0.1318 -0.1141  0.5343
21060W        W37534   8.558  14.093   3.055 -0.0224  0.3879  0.1059
21061W        W37535   3.150   7.034   3.972  0.1601  0.1910 -0.0575
21062W        W37536   1.208   3.217   3.900  0.1985 -0.2516 -0.0558
21063W        W37537  14.490  11.617   4.530  0.1566 -0.1080  0.0940
21064W        W37538   0.953   7.312   4.889  0.2179 -0.1276  0.0965
21065W        W37539   1.412  10.188  11.494  0.1257  0.0904  0.2287
21066W        W37540   4.062  13.540   6.125  0.0004 -0.0583 -0.0198
21067W        W37541  10.155  17.913  13.296 -0.3200  0.0197  0.1895
21068W        W37542   7.952   7.156   1.711 -0.1082 -0.3062  0.0738
21069W        W37543  15.492  16.848   2.846  0.0356 -0.0494 -0.0674
21070W        W37544   6.007   1.091   3.842  0.0266 -0.0947  0.0085
21071W        W37545  17.381  13.600   5.511  0.1119 -0.2462  0.2064
21072W        W37546  10.876   1.344  15.180  0.0372 -0.2589 -0.0851
21073W        W37547   3.718   6.993  12.713  0.3834 -0.0556  0.2581
21074W        W37548  10.314  12.037  11.692 -0.0331 -0.1945 -0.1933
21075W        W37549   0.984   9.840   2.302  0.2242 -0.3347 -0.1507
21076W        W37550   4.182  16.405  13.619 -0.2001 -0.0651  0.2447
21077W        W37551  18.123   7.318   5.223  0.1151 -0.2106  0.0406
21078W        W37552   2.405   1.080   6.080 -0.0120  0.0544 -0.2155
21079W        W37553   2.553  16.899   4.692 -0.0638  0.1394 -0.1749
21080W        W37554   7.385   7.357   3.734 -0.1039 -0.1219 -0.2472
21081W        W37555   8.443  11.139  11.994 -0.0777 -0.1313  0.3169
21082W        W37556   0.634   7.323   0.376 -0.0928  0.1754  0.2602
21083W        W37557  13.670  16.601   3.730  0.3650  0.3287 -0.1097
21084W        W37558  17.361   4.186  14.325  0.0243  0.0899 -0.2099
21085W        W37559   7.459   5.798  15.441 -0.0160  0.3159 -0.0262
21086W        W37560   8.536   5.721   5.203 -0.2124  0.2643 -0.0505
21087W        W37561  13.127  12.043   3.385  0.0940 -0.0209 -0.1833
21088W        W37562  13.032  10.124   4.606  0.0757  0.0859 -0.2072
21089W        W37563  17.815   9.044  12.580 -0.1814  0.1956  0.0184
21090W        W37564   8.940   5.400  11.445  0.2014  0.2688 -0.0027
21091W        W37565   3.002   0.382  15.018  0.2037 -0.0894 -0.1859
21092W        W37566   6.905  15.741  13.474 -0.0551  0.1751 -0.2507
21093W        W37567  15.375   9.766   1.656 -0.0041  0.2128  0.1139
21094W        W37568   5.596   7.520  12.418  0.2099  0.1753 -0.0920
21095W        W37569   7.648   3.156   0.515 -0.1939 -0.1096  0.1498
21096W        W37570  11.046   4.293  11.540  0.2683 -0.0845 -0.2458
21097W        W37571   8.310  16.440   0.216  0.1367 -0.5173  0.3237
21098W        W37572   1.168   2.482  13.190  0.2283  0.0732  0.1406
21099W        W37573   0.862  11.768   0.593  0.3488 -0.1060 -0.2664
21100W        W37574  16.998  13.628  11.964 -0.0770 -0.2843  0.1657
21101W        W37575  17.517   4.388  11.507 -0.1995  0.4341  0.0203
21102W        W37576  15.096   1.671   0.373  0.1268  0.1847  0.1492
21103W        W37577   6.911  11.200  11.293  0.3545 -0.1915 -0.2171
21104W        W37578  14.786   4.412  15.201  0.0140 -0.0460  0.1070
21105W        W37579   6.207   4.281  10.629 -0.3490  0.2133 -0.0898
21106W        W37580  18.032   9.495   0.074  0.1240 -0.0286 -0.3109
21107W        W37581  13.316   5.239   2.980 -0.0200 -0.1061 -0.0394
21108W        W37582   0.578   2.433   2.838  0.0279  0.1933 -0.0676
21109W        W37583  10.650  11.525   4.133 -0.1428  0.1042 -0.0828
21110W        W37584   5.547   7.996   5.178 -0.0658  0.0520  0.0354
21111W        W37585  13.514   8.939   0.558 -0.0703  0.2462 -0.1087
21112W        W37586   1.347  11.045   3.034  0.1708  0.0976 -0.0699
21113W        W37587  13.491   3.247   3.512  0.3116  0.1548 -0.1813
21114W        W37588   2.475   2.528   2.539 -0.0569  0.1132 -0.0162
21115W        W37589  11.517   3.438   1.296 -0.1319 -0.1427 -0.2050
21116W        W37590   1.028  10.909  14.632 -0.0151 -0.0795 -0.1508
21117W        W37591   3.917  12.800   2.328 -0.0631 -0.2705  0.0188
21118W        W37592  13.545   0.078  15.572  0.1632  0.1226 -0.2404
21119W        W37593  14.963  13.080  10.333 -0.0683  0.1833  0.3425
21120W        W37594  15.410   2.133   0.978 -0.1336  0.0079  0.1416
21121W        W37595   2.610   8.012   0.830 -0.1849  0.4716 -0.1077
21122W        W37596   4.888   0.026   2.166 -0.1358 -0.0203  0.0431
21123W        W37597  10.564   2.741   5.118  0.0090 -0.2200 -0.4923
21124W        W37598  10.911   4.578  13.153 -0.0848  0.0980  0.1080
21125W        W37599   9.254   1.921   1.294  0.2463  0.0313  0.0494
21126W        W37600   0.957  13.308   3.438  0.1736  0.2892  0.0345
21127W        W37601   1.169  16.154  15.170 -0.0756  0.1233 -0.2258
21128W        W37602  14.372   4.684  11.256  0.0057 -0.0933 -0.1003
21129W        W37603  15.754   3.808   1.043 -0.0408  0.1629 -0.0630
21130W        W37604   0.924   3.097  14.702 -0.0711 -0.1352  0.0964
21131W        W37605   2.018  13.415   0.014 -0.1895  0.1827  0.1654
21132W        W37606  16.593  12.113   4.117  0.0004 -0.2207  0.0876
21133W        W37607  16.320  12.379  13.240  0.0060  0.0368  0.1447
21134W        W37608  12.254  14.300  11.803 -0.0305  0.2967  0.0505
21135W        W37609  14.618   5.797  12.402 -0.0355  0.1800 -0.0892
21136W        W37610  16.673   2.130  16.173 -0.2825 -0.1696  0.1561
21137W        W37611   9.151  12.169   0.228  0.2815  0.0705  0.4356
21138W        W37612   5.675  13.323  14.967 -0.1058 -0.3318  0.2326
21139W        W37613   9.581   6.251   1.732  0.2566  0.2117 -0.0971
21140W        W37614  13.925   0.812  15.980  0.2307  0.1207  0.3643
21141W        W37615   8.818  13.392   6.084  0.0836  0.0842  0.1792
21142W        W37616   3.762  15.684   6.102  0.0854  0.5113  0.0507
21143W        W37617   9.120  10.745  11.086  0.2393 -0.0136  0.1189
21144W        W37618   3.906  15.194   5.353  0.2274 -0.0018  0.0556
21145W        W37619  13.670   4.949  14.730 -0.0818 -0.1544 -0.1295
21146W        W37620  13.928  12.929  12.673  0.3438  0.1254  0.1778
21147W        W37621  15.878   0.526   2.095 -0.1219 -0.0095  0.0401
21148W        W37622  14.253  14.817   0.654  0.1193  0.2607 -0.0414
21149W        W37623  11.330   5.162  15.714 -0.0200  0.0858  0.3308
21150W        W37624   8.992   0.435   5.022  0.0644  0.3351 -0.2117
21151W        W37625  16.942  17.857   1.734 -0.4070 -0.2266  0.2274
21152W        W37626   8.612  11.730  11.692 -0.3416  0.1369 -0.0238
21153W        W37627  15.266   2.523   4.958  0.2242 -0.0304 -0.0612
21154W        W37628   8.725  17.942   4.503  0.0894  0.0710 -0.0666
21155W        W37629  16.621   7.444   2.971 -0.1682  0.2351  0.0346
21156W        W37630  11.510  17.061  12.991  0.3987  0.2495 -0.0845
21157W        W37631  16.345   5.052  11.327  0.3162  0.1934 -0.1846
21158W        W37632   9.845   5.492  13.447  0.1213  0.1808 -0.2714
21159W        W37633   0.392  11.103  13.227  0.1916 -0.1690 -0.0904
21160W        W37634  14.442   0.302   1.748  0.1388 -0.1107 -0.1285
21161W        W37635  16.048   0.276  13.825  0.1082  0.0417 -0.1540
21162W        W37636   7.683  15.963  13.479 -0.1137  0.0536  0.1541
21163W        W37637  12.055   3.066  11.934  0.1240  0.0376  0.0039
21164W        W37638  17.801   4.025   2.831  0.1950  0.0029  0.0768
21165W        W37639  11.720   3.581   2.474 -0.1522 -0.0720 -0.2023
21166W        W37640   4.948  12.009  12.787  0.0675  0.3623  0.2465
21167W        W37641   0.647  11.258  15.257 -0.2068  0.0621  0.2243
21168W        W37642   4.585   8.339  13.359  0.1302  0.2596 -0.0975
21169W        W37643  12.134   3.984   1.733  0.0372 -0.1557 -0.2377
21170W        W37644   7.290   9.326  12.215 -0.0131 -0.1354 -0.4900
21171W        W37645   2.389   2.378   0.844 -0.2241 -0.0048  0.2802
21172W        W37646   9.933   0.929   4.871  0.0533  0.0631  0.2136
21173W        W37647   1.605  10.984  11.824  0.0619 -0.0139  0.0478
21174W        W37648   5.003   1.622   1.150 -0.3547 -0.0814 -0.0584
21175W        W37649  18.080   7.929  13.383  0.0762  0.1796  0.1900
21176W        W37650   7.616  10.445  13.170  0.1470 -0.1426  0.0114
21177W        W37651   1.170   9.821  12.969 -0.1932  0.0195 -0.3424
21178W        W37652   6.788  17.393   0.130  0.1070 -0.1262  0.1396
21179W        W37653   3.525   4.898   1.518  0.0549  0.2236 -0.0230
21180W        W37654  13.984  14.343  12.892  0.0924 -0.0806  0.0718
21181W        W37655   8.042   5.913  13.164 -0.1104 -0.3970  0.0278
21182W        W37656   3.195  14.977  13.077 -0.3330 -0.3702  0.1527
21183W        W37657   1.596  17.396   3.330 -0.0383  0.0333 -0.0125
21184W        W37658   8.588   6.659  12.535  0.0161 -0.1947 -0.0991
21185W        W37659  12.594  16.717   3.648 -0.0643  0.1462 -0.1147
21186W        W37660   1.473   1.000  15.800  0.0652 -0.1115  0.0816
21187W        W37661   9.629  10.078   4.488  0.0199 -0.0381 -0.0086
21188W        W37662  13.872   8.103   0.756  0.1396 -0.1152  0.0181
21189W        W37663   0.948   2.909   3.531  0.0678 -0.0664  0.1942
21190W        W37664   9.705  15.011  12.650 -0.1963  0.0133  0.0790
21191W        W37665  14.284  10.851   3.301 -0.1583 -0.1978 -0.0299
21192W        W37666  13.436  16.858   0.350 -0.0186  0.0090  0.2573
21193W        W37667   2.571   7.115   0.021  0.0634 -0.2054  0.2256
21194W        W37668  16.854  11.913  15.569  0.2644 -0.2211 -0.1679
21195W        W37669   8.686  16.921  13.770 -0.0951  0.1271  0.2557
21196W        W37670   4.686   2.002   5.354  0.0359 -0.0738 -0.1086
21197W        W37671   9.545   6.468   1.264 -0.2163  0.0362  0.3801
21198W        W37672   3.744  12.664   0.428 -0.0078 -0.0892 -0.0694
21199W        W37673  15.807   6.411   0.221 -0.2221 -0.0662 -0.1035
21200W        W37674  17.143   2.350   4.669 -0.1784 -0.1754 -0.1735
21201W        W37675   1.748   2.322   5.719 -0.0414  0.1081  0.0934
21202W        W37676  14.773  11.786   2.017  0.0776  0.1980 -0.3344
21203W        W37677   8.473  13.115  10.084 -0.1405  0.1696  0.0483
21204W        W37678  17.396   8.775  16.359 -0.1118  0.1803  0.0840
21205W        W37679   0.780   0.001  13.156 -0.4498  0.0367  0.0328
21206W        W37680   1.441  11.424  14.432  0.1150 -0.1033  0.1274
21207W        W37681   5.877   4.510  16.283  0.1544  0.0404  0.0453
21208W        W37682  17.136   6.923  13.276 -0.0863 -0.0686  0.2040
21209W        W37683  12.033  14.325   0.152 -0.1376  0.0335 -0.0700
21210W        W37684  12.897   4.470  15.556 -0.1107 -0.1344 -0.1040
21211W        W37685  17.793   6.524  10.310 -0.0268  0.2925 -0.1163
21212W        W37686   7.358   7.297   4.308 -0.0199  0.0853  0.3320
21213W        W37687  11.732  10.433   0.063 -0.2668 -0.1852 -0.0622
21214W        W37688  10.054  15.667  15.445 -0.0600  0.0289  0.1215
21215W        W37689  12.757  13.142   4.189  0.1880  0.0487 -0.1351
21216W        W37690  16.721  16.378  12.874 -0.0481 -0.1032 -0.1074
21217W        W37691   0.021  11.430  13.897 -0.1022 -0.0171  0.1532
21218W        W37692  15.471   1.018  12.800  0.0331 -0.1288  0.1991
21219W        W37693   4.972  16.402  16.341  0.2762 -0.1144 -0.0608
21220W        W37694   0.772  18.040  13.777  0.2105  0.1531  0.0124
21221W        W37695  16.452  17.854   1.032 -0.0558 -0.0813  0.1163
21222W        W37696  13.413  12.560  12.770  0.2709 -0.0594  0.0546
21223W        W37697  10.605  17.554   0.492 -0.0256  0.2684  0.2531
21224W        W37698  16.277   3.756   3.745  0.0331 -0.3079 -0.0799
21225W        W37699   7.363   4.118  15.955 -0.2570 -0.0902 -0.0252
21226W        W37700   1.610  15.925   0.688  0.3087  0.0076 -0.1002
21227W        W37701   1.222  14.790  13.139  0.0488 -0.1683 -0.0234
21228W        W37702  11.371   9.309  12.883 -0.0927  0.1817  0.1265
21229W        W37703  13.405  10.590  11.723  0.0234 -0.2062  0.1495
21230W        W37704  13.972   2.509  14.318 -0.1115 -0.2576  0.2516
21231W        W37705   7.522   2.182   4.455  0.0408 -0.0367  0.0061
21232W        W37706   2.133  12.894   5.070  0.2155  0.0673 -0.1155
21233W        W37707   8.530   1.484  11.720  0.2423  0.0618  0.0308
21234W        W37708  13.252  16.249   1.285 -0.0687  0.1053  0.2655
21235W        W37709  13.807   0.046  12.407  0.2230 -0.0236  0.0594
21236W        W37710   2.054   8.539   2.992  0.3925  0.0452  0.1060
21237W        W37711   4.468   1.296  15.274 -0.0909 -0.2905 -0.2157
21238W        W37712   2.106   2.244  13.479  0.0142  0.1288  0.3126
21239W        W37713   7.309  15.550  14.291 -0.0155  0.1713  0.1125
21240W        W37714  15.522  16.965  12.471  0.3221  0.0307 -0.1657
21241W        W37715  13.614  12.062  13.600 -0.1300 -0.1026 -0.1407
21242W        W37716   5.761   1.378   5.893  0.0278 -0.0503 -0.3074
21243W        W37717   9.494   6.938  14.865 -0.1638  0.2543  0.0136
21244W        W37718   0.484  15.521  15.767  0.1287 -0.1117  0.2320
21245W        W37719  16.426   4.713   4.620  0.1936  0.1741  0.1016
21246W        W37720   3.947   1.430  15.121  0.0477  0.1967  0.0527
21247W        W37721  13.053  15.058   0.510  0.1772  0.0423 -0.1307
21248W        W37722  11.129  13.412  14.914 -0.1200  0.2496  0.2440
21249W        W37723  14.118   0.094  12.800 -0.0630  0.0516 -0.0142
21250W        W37724  15.828   5.351   2.968 -0.3155 -0.2571  0.0847
21251W        W37725   5.169   6.276   1.816 -0.0296 -0.0824 -0.0626
21252W        W37726  18.176   2.005   2.364  0.2670  0.3514  0.0888
21253W        W37727  11.457  16.098   0.111 -0.2926  0.1088  0.0110
21254W        W37728   7.468  10.507  15.732 -0.0610  0.3588  0.1620
21255W        W37729  16.262   4.005  12.290 -0.1112  0.1264  0.3679
21256W        W37730  14.549   0.027   2.278  0.2254  0.0642  0.2063
21257W        W37731   8.718  15.899  15.263  0.0232 -0.0472 -0.0652
21258W        W37732   2.721   7.688   3.325 -0.0862 -0.0777 -0.1445
21259W        W37733   6.110  11.476  13.581  0.1628  0.1780 -0.0930
21260W        W37734  14.333  11.129  16.259 -0.2105  0.1656 -0.0099
21261W        W37735  16.526   8.698  15.486 -0.2364  0.1229 -0.1307
21262W        W37736   0.306   6.181   2.796  0.1151 -0.0450 -0.2237
21263W        W37737   4.658   8.081   5.842 -0.2766  0.1348 -0.1033
21264W        W37738  13.841   7.662  14.277  0.3030  0.0910  0.3743
21265W        W37739  10.571   5.304   0.873 -0.0673  0.1009  0.1535
21266W        W37740  14.425   2.662  15.153  0.2777  0.0945  0.0552
21267W        W37741  10.424   8.187  13.936 -0.2318  0.4388  0.3876
21268W        W37742  17.736   0.181   1.590  0.2255 -0.1535  0.0713
21269W        W37743   1.504  12.649   4.365  0.2594 -0.1376 -0.1540
21270W        W37744  13.288  11.122   0.104  0.0189 -0.0836  0.3119
21271W        W37745   6.573   1.445   1.954  0.0594 -0.2519  0.0617
21272W        W37746  10.637   0.143  15.486 -0.2015  0.0998 -0.0340
21273W        W37747  12.823   3.945  13.864  0.2898  0.0412  0.3150
21274W        W37748  15.154   6.717  11.726  0.0858  0.2202  0.2542
21275W        W37749   1.946   5.892   4.868 -0.3488 -0.1979  0.4122
21276W        W37750   0.072  15.095   2.199  0.2032  0.0215  0.0989
21277W        W37751  13.682   7.161   4.948 -0.2783  0.0310  0.1880
21278W        W37752   2.090   8.577   4.250  0.2572 -0.1143  0.0159
21279W        W37753   1.561   1.738  11.815  0.3497  0.0028 -0.0658
21280W        W37754  11.247   7.342   0.920  0.1667 -0.1322  0.1733
21281W        W37755  13.520  11.996  14.822  0.0825 -0.1250 -0.1771
21282W        W37756  13.525   2.286   2.601  0.1812 -0.0981 -0.1468
21283W        W37757  10.888   5.147   4.761 -0.1177 -0.0975 -0.3281
21284W        W37758  14.748  11.418  15.283  0.3594  0.1540 -0.0872
21285W        W37759  11.639  15.536  12.044  0.0027  0.0473 -0.0506
21286W        W37760  15.751  13.515  15.669  0.2070 -0.0148  0.1585
21287W        W37761   1.974  14.723   2.681  0.0501 -0.3345  0.0276
21288W        W37762  10.405  18.087  15.928  0.0871 -0.0134  0.2238
21289W        W37763  10.617  17.997  12.719  0.0743  0.0583 -0.2824
21290W        W37764   0.280  14.334   2.744  0.0455  0.0803  0.1120
21291W        W37765   1.270  15.329  11.904  0.0803  0.0042 -0.0474
21292W        W37766  17.595   6.154   1.575  0.0573  0.0226 -0.5456
21293W        W37767  17.571  13.313   2.417  0.0155  0.1865 -0.1658
21294W        W37768   3.631   1.102  11.746  0.3695  0.1812 -0.0278
21295W        W37769   2.828  11.476   1.835 -0.2748  0.0010  0.1306
21296W        W37770   7.778   2.391   3.910  0.2193  0.1862  0.0914
21297W        W37771   5.132  13.887   1.434 -0.1326  0.0034  0.2810
21298W        W37772  10.061   1.650   5.689  0.1222 -0.0255 -0.0416
21299W        W37773  17.004   4.122  11.380 -0.1943 -0.2535  0.0414
21300W        W37774  17.926   0.763   4.041  0.1204  0.1153  0.1825
21301W        W37775  15.954   6.637  11.655 -0.1555 -0.3117 -0.2255
21302W        W37776  13.349  14.680  14.305 -0.2977 -0.2864 -0.0136
21303W        W37777  16.299  10.008  16.144  0.2086  0.1156  0.0635
21304W        W37778   6.965  13.655   4.403  0.0142  0.0343 -0.3609
21305W        W37779   9.388   2.771  11.083  0.3548  0.0471 -0.1744
21306W        W37780  12.254   5.538  15.057  0.2010  0.2314  0.3336
21307W        W37781   9.009   0.149   5.496  0.0838 -0.0194  0.0910
21308W        W37782  10.486  15.406   4.495  0.2452  0.0637  0.1028
21309W        W37783  16.682  15.770   1.295  0.1889 -0.0985  0.2415
21310W        W37784  13.543   9.406   1.733 -0.2357 -0.0113 -0.1737
21311W        W37785   5.413  15.978  12.600  0.0515 -0.0164  0.0303
21312W        W37786  14.947  10.454   3.471 -0.0539  0.2598  0.1041
21313W        W37787   4.683  13.415  11.378  0.2446 -0.1921  0.0204
21314W        W37788  17.635  13.062   3.144  0.1833 -0.0487  0.1976
21315W        W37789   1.322  17.578  15.830 -0.1898  0.2252  0.0969
21316W        W37790  12.795   8.714  14.113 -0.2721 -0.1012 -0.1852
21317W        W37791  13.682  10.083  15.387 -0.1865  0.0193 -0.0811
21318W        W37792  10.181   0.733  11.797  0.0123 -0.0261 -0.0161
21319W        W37793   5.698  15.919  16.148 -0.3455 -0.1806  0.1399
21320W        W37794  13.911   2.730   2.847  0.2500 -0.2388  0.1821
21321W        W37795   1.836  13.161  14.225 -0.2158  0.1808  0.1218
21322W        W37796   1.611  12.350   3.966  0.1582  0.0185 -0.2246
21323W        W37797  10.678   5.450   3.919  0.0723 -0.0704 -0.2465
21324W        W37798   5.720  10.437  10.461 -0.0071  0.1151 -0.1410
21325W        W37799   2.130   6.463   0.352  0.0631 -0.0938  0.1224
21326W        W37800  12.515  13.714   5.082  0.1627  0.1373 -0.2385
21327W        W37801  15.564  16.054   5.143  0.3024  0.0116 -0.0765
21328W        W37802   1.307   9.790   2.831 -0.1744 -0.1759  0.2057
21329W        W37803  10.292  12.777   4.970  0.2620  0.3460 -0.0209
21330W        W37804  15.469  12.614   2.049  0.1313 -0.0725  0.0900
21331W        W37805   9.077   0.599  15.622  0.0239  0.0876 -0.0545
21332W        W37806   4.336   6.448   0.997  0.1729 -0.0605  0.1652
21333W        W37807  17.998  11.798   2.805  0.1037  0.0815  0.0548
21334W        W37808  12.031   7.178  16.361  0.0306  0.0917 -0.1495
21335W        W37809   3.464   8.576   5.451  0.2311  0.1452  0.2963
21336W        W37810  15.039  17.203  12.576 -0.0363 -0.1191 -0.3696
21337W        W37811   3.389   4.999   1.041  0.2176  0.0904 -0.1590
21338W        W37812   5.324  15.499   0.121 -0.1167  0.1459  0.0694
21339W        W37813  11.514   0.755  11.556  0.0025 -0.0984 -0.1884
21340W        W37814  14.770  16.351   2.745  0.6653 -0.3152  0.0775
21341W        W37815   3.662   4.705  12.876 -0.0413 -0.1003 -0.2175
21342W        W37816   6.189  15.313  13.429 -0.2478 -0.2666  0.0072
21343W        W37817   3.158  16.598   2.194  0.2362 -0.1661  0.0477
21344W        W37818   9.247  14.494   3.273  0.2871  0.0282  0.2948
21345W        W37819   4.370  10.907   5.194  0.0957 -0.0031  0.0679
21346W        W37820  17.937   3.936   2.119 -0.1126  0.1101 -0.1325
21347W        W37821   0.793  11.057  12.051 -0.0937  0.0133  0.2969
21348W        W37822  11.712  10.539   5.681  0.2674 -0.2907  0.1374
21349W        W37823  10.336   2.307  13.211  0.1009 -0.3755  0.2964
21350W        W37824   4.535  13.686  11.906  0.2799 -0.2544  0.1128
21351W        W37825  10.938   2.730   0.912 -0.0358  0.0013  0.4773
21352W        W37826   3.240  12.834   4.414  0.1615  0.0803  0.0959
21353W        W37827  13.203   5.098   0.236  0.2352  0.0769  0.0335
21354W        W37828   2.538  15.002   0.951 -0.3429  0.1269 -0.2162
21355W        W37829  11.217  12.967   0.216 -0.0459 -0.0966 -0.0601
21356W        W37830  17.404   8.374   4.405 -0.0564  0.4373  0.0860
21357W        W37831   8.567  15.676   4.340 -0.2050  0.0260 -0.1310
21358W        W37832  16.520  15.306   4.366 -0.1121 -0.2598  0.1863
21359W        W37833  12.523   0.292  14.109  0.0544 -0.3945  0.2046
21360W        W37834   8.590  14.099   5.317 -0.3088 -0.1427  0.0235
21361W        W37835   3.112  14.325  13.939  0.1526 -0.3348  0.1290
21362W        W37836  12.542  17.623   4.630 -0.0999 -0.1518 -0.0741
21363W        W37837   9.337  13.828   3.793 -0.0260 -0.2603 -0.0933
21364W        W37838   5.568   9.948  12.524  0.1422  0.0013 -0.1244
21365W        W37839   1.834  15.710  14.702  0.0838 -0.0740  0.0696
21366W        W37840  17.512   1.234   0.792 -0.2805 -0.0710  0.0433
21367W        W37841   7.037  10.560   0.296 -0.0722  0.2447 -0.0653
21368W        W37842   1.683  17.250  16.185 -0.0782 -0.1798  0.1140
21369W        W37843   9.706  17.986  12.769  0.1098 -0.3297  0.1708
21370W        W37844   7.605  11.491  15.877 -0.1000  0.1255 -0.2066
21371W        W37845   6.176  14.301  11.910  0.1433 -0.0463 -0.2679
21372W        W37846  10.315   9.610  15.719 -0.0400  0.0307 -0.1259
21373W        W37847   0.683   4.115   2.366  0.1356  0.2508 -0.1303
21374W        W37848   6.786  11.668  12.297 -0.1435 -0.0977  0.3153
21375W        W37849   6.271  17.338   4.861  0.0746 -0.1560 -0.1672
21376W        W37850  12.230   2.748  15.420  0.2600 -0.0794 -0.1442
21377W        W37851  14.255  14.645   4.893  0.0805 -0.2292 -0.5297
21378W        W37852  14.128   3.531  15.930 -0.1883  0.0021 -0.2212
21379W        W37853  17.375  15.951  11.443  0.2238 -0.1386  0.0626
21380W        W37854   8.644  10.835   3.568 -0.0515 -0.1011 -0.0899
21381W        W37855   0.802  12.373  16.029 -0.0855  0.1780  0.0027
21382W        W37856  15.619   2.081  14.188 -0.3243 -0.2328 -0.1272
21383W        W37857   8.893  15.466   0.556  0.3314 -0.0822  0.0110
21384W        W37858   7.055   8.298  13.494 -0.0327 -0.2010  0.0465
21385W        W37859  10.912  12.519   4.064  0.1081  0.3260  0.0532
21386W        W37860   6.347  17.776   1.799 -0.0585 -0.1858 -0.1483
21387W        W37861  14.605   4.321  10.957  0.0364  0.2278 -0.2181
21388W        W37862   8.187  15.811   4.022 -0.1886  0.1556 -0.1708
21389W        W37863  11.078   9.930   1.817  0.1625 -0.1491 -0.1233
21390W        W37864  15.146  10.947  14.865  0.0301  0.1783  0.0625
21391W        W37865   4.588  14.694   4.360  0.1381  0.0579  0.1030
21392W        W37866  11.152  10.497   4.200  0.0806 -0.1969 -0.1156
21393W        W37867  15.212  15.647   3.933 -0.1430  0.2903  0.1085
21394W        W37868  13.004  13.328  12.987  0.0143  0.0215  0.2316
21395W        W37869   9.332  10.955   4.578 -0.1544  0.1010 -0.0350
21396W        W37870   5.282  12.776  12.543 -0.0703 -0.0292 -0.0719
21397W        W37871  12.866   4.247  10.979  0.1944  0.1254  0.0705
21398W        W37872  17.035  15.406   4.191 -0.0114 -0.0252 -0.1596
21399W        W37873  16.040  16.635   0.399 -0.0641  0.0519 -0.1727
21400W        W37874   5.155  14.668   3.843  0.1131  0.3184  0.0877
21401W        W37875  12.890   5.991   0.232  0.0834  0.0582  0.0803
21402W        W37876  15.688  13.070  13.663  0.0602 -0.1066 -0.1650
21403W        W37877  14.637  12.976  15.294 -0.0049  0.1770  0.0639
21404W        W37878  12.027  17.231  10.107  0.3264 -0.2085 -0.2661
21405W        W37879   0.710   2.703   4.446  0.0196 -0.0417  0.0154
21406W        W37880   4.255  10.159   4.708 -0.1795 -0.0020 -0.1232
21407W        W37881   0.679   1.785   4.378 -0.2251  0.1985 -0.0974
21408W        W37882   3.340  10.124   4.514  0.1290  0.1519 -0.3917
21409W        W37883   8.076   6.879  12.922  0.1855 -0.3095 -0.0622
21410W        W37884  11.228  14.856  12.569 -0.1809 -0.0504 -0.3510
21411W        W37885  16.192  15.754   0.297 -0.1078 -0.0198 -0.1415
21412W        W37886   3.180  15.049   3.244  0.0127  0.1843 -0.0437
21413W        W37887  12.809   1.002   2.192  0.0251  0.3379  0.1689
21414W        W37888  15.763  17.310   3.733  0.0907 -0.0442  0.1539
21415W        W37889   6.257   6.585  12.828  0.0143 -0.0095  0.0463
21416W        W37890   7.059   6.089  15.425 -0.2349 -0.2612  0.1860
21417W        W37891  11.177  12.065   1.280 -0.0835  0.2613  0.2042
21418W        W37892   2.988   3.607  15.579 -0.4157  0.1025 -0.0429
21419W        W37893   7.174  12.617   0.174 -0.3146  0.1253 -0.4902
21420W        W37894   2.950   1.156   4.294 -0.4603  0.3433  0.1857
21421W        W37895  11.475   1.190   0.504  0.0643  0.0832 -0.1035
21422W        W37896  15.464  12.691   5.143  0.0961  0.0335  0.1900
21423W        W37897   0.553  11.198   1.863  0.1257  0.0435 -0.2744
21424W        W37898   6.195   3.798   3.223  0.5382  0.2875 -0.1898
21425W        W37899  16.976   6.892  12.787  0.1147  0.1179 -0.1122
21426W        W37900   4.859   8.535   1.386  0.2256 -0.1331 -0.1115
21427W        W37901  15.981  13.031  10.711 -0.1009  0.0752  0.1417
21428W        W37902  13.473  17.837  13.515  0.3025  0.2056  0.1279
21429W        W37903   2.016   9.802   5.361  0.0591  0.0016  0.0984
21430W        W37904   8.440  10.064  14.234 -0.0596  0.2950  0.1123
21431W        W37905   7.060  10.842  10.899  0.1980  0.1848 -0.1419
21432W        W37906  10.668   9.238  14.326 -0.1437  0.0602  0.1527
21433W        W37907   6.407   0.777   0.799  0.0685  0.1898  0.1565
21434W        W37908  10.184   1.408  13.487  0.0974 -0.1731  0.0168
21435W        W37909  12.985   3.429  12.054  0.3773 -0.0521  0.4270
21436W        W37910  14.362   8.683   5.326  0.1669 -0.2423  0.0581
21437W        W37911   5.143   0.924  15.696 -0.5123 -0.0236  0.1494
21438W        W37912   8.211   4.864   4.072  0.0143  0.0423  0.1534
21439W        W37913   3.316  14.240   0.297  0.0192  0.1801 -0.0060
21440W        W37914  14.583   7.890   1.562 -0.1284 -0.2094 -0.3060
21441W        W37915   9.076   1.506  12.619  0.0071 -0.2126  0.2367
21442W        W37916  11.186  10.539  15.397 -0.3787  0.0601  0.0929
21443W        W37917   5.328   9.251   0.489  0.0754 -0.1188  0.0019
21444W        W37918   0.301  16.571   4.673  0.1933 -0.0235  0.2461
21445W        W37919  17.400   7.079   2.614  0.2066 -0.0478  0.2228
21446W        W37920  15.698   7.539  10.974 -0.0823  0.0281 -0.0159
21447W        W37921   3.752   4.299   2.896  0.0641  0.1545 -0.0429
21448W        W37922   7.071   4.316   3.024 -0.0556 -0.0650  0.3301
21449W        W37923  14.235  16.835  14.294  0.3137  0.2183 -0.0049
21450W        W37924  14.891  12.467   0.042 -0.2296  0.1501  0.1655
21451W        W37925   2.244  13.299  13.996 -0.1603  0.1430 -0.0118
21452W        W37926  11.990   3.766   4.655 -0.3185  0.0294  0.2192
21453W        W37927   4.091  14.381  14.075  0.2831 -0.1234 -0.1311
21454W        W37928  17.318  16.147  13.599  0.1430  0.1506 -0.0861
21455W        W37929   3.001  10.399  12.305 -0.0659 -0.1688  0.0302
21456W        W37930  14.017   6.420   0.482  0.0031 -0.2080  0.1486
21457W        W37931   9.387  11.439   4.287  0.2162 -0.2625  0.2715
21458W        W37932   1.653  14.679  16.282 -0.2791  0.1437 -0.2508
21459W        W37933  17.486  14.491  15.502 -0.0097  0.1114  0.1695
21460W        W37934  17.793  17.631  12.389 -0.0502 -0.1574 -0.0859
21461W        W37935   5.406  15.563  14.068 -0.0121 -0.4498  0.0068
21462W        W37936  13.776   8.059   4.876 -0.0276  0.0786 -0.0067
21463W        W37937  13.499  13.345   4.339 -0.3479 -0.0239  0.1269
21464W        W37938   1.321   1.432  14.175 -0.1368  0.2706 -0.0828
21465W        W37939   2.831  10.285   5.510 -0.2191 -0.3244 -0.0855
21466W        W37940  13.242   7.112   3.835 -0.0930 -0.0636  0.1655
21467W        W37941   7.847  17.986   4.003  0.2059 -0.0794 -0.1512
21468W        W37942   9.449   5.287  11.609  0.0118  0.1906  0.1836
21469W        W37943   1.578   5.056  13.324 -0.2493  0.1013 -0.1521
21470W        W37944   0.133   7.770   1.642  0.0804  0.0386 -0.1377
21471W        W37945  15.960   4.912   0.722  0.2526 -0.2170  0.1995
21472W        W37946   0.816   8.071   5.241  0.0140  0.1321 -0.6200
21473W        W37947  10.868  13.034   4.137 -0.0593  0.0686 -0.0239
21474W        W37948   1.901  12.417  11.354 -0.2626 -0.1231  0.0665
21475W        W37949  13.228   5.676   2.230 -0.0084  0.0800  0.1118
21476W        W37950  16.600   4.975   5.055  0.1057  0.1255  0.0055
21477W        W37951   1.159  14.404   2.680  0.0699  0.0269  0.2913
21478W        W37952   6.843   6.719  16.115 -0.0257  0.0991 -0.0796
21479W        W37953   2.768   0.231   2.276 -0.1204 -0.0059  0.0176
21480W        W37954   9.275  11.117  15.530 -0.0236 -0.3473  0.2729
21481W        W37955  13.994  13.719   5.248  0.0153 -0.1523  0.0365
21482W        W37956  17.115   3.475   0.348  0.1739  0.1945 -0.1496
21483W        W37957  13.090   5.974   4.984 -0.2519 -0.3328 -0.2402
21484W        W37958  12.314   1.818   1.800 -0.2180 -0.5347 -0.1241
21485W        W37959  17.936   4.012  11.428  0.2215 -0.3701 -0.1438
21486W        W37960   0.850   4.725  10.904 -0.0773 -0.1679 -0.1094
21487W        W37961   0.718  15.297   3.316 -0.3127  0.1621  0.1051
21488W        W37962   0.915  15.656  11.807 -0.1440 -0.1377  0.1527
21489W        W37963  16.889   0.980   5.969  0.0687 -0.1477 -0.1472
21490W        W37964  10.053   2.822  13.477 -0.0955  0.0860 -0.0132
21491W        W37965   7.860   2.936  15.610  0.0039  0.1855  0.0360
21492W        W37966   3.678  14.012   1.554 -0.1555 -0.1344  0.0425
21493W        W37967  15.751   5.260  16.311  0.0212  0.1101  0.0724
21494W        W37968  15.218   8.188   4.386  0.0133 -0.0010 -0.3524
21495W        W37969   3.638  12.630   4.657  0.0547  0.2234 -0.1829
21496W        W37970  14.265   3.658  13.540 -0.2777 -0.5685 -0.0657
21497W        W37971   5.387  16.426   5.389 -0.1399  0.1350  0.2306
21498W        W37972  15.697   8.560  13.920 -0.1196  0.1238  0.0758
21499W        W37973   3.923  14.685  16.020 -0.2505 -0.2294 -0.1050
21500W        W37974  10.204   2.631   5.487 -0.0472  0.1815 -0.0806
21501W        W37975  13.586   2.764   0.592  0.0206 -0.0007  0.3188
21502W        W37976   5.029  10.372  15.430  0.0288 -0.1049  0.0270
21503W        W37977  12.852   1.588   4.892  0.0656  0.2684 -0.0787
21504W        W37978   0.469  12.325   3.359 -0.0550  0.2364 -0.1401
21505W        W37979  16.994  10.859  11.630 -0.1460  0.3086  0.0807
21506W        W37980   0.442   3.077   5.931  0.0047 -0.2073 -0.0831
21507W        W37981   5.327   1.542  13.481 -0.1262 -0.2182  0.3064
21508W        W37982   0.229   7.063   4.411  0.0150 -0.1603 -0.3292
21509W        W37983  13.337   9.642  16.283  0.0602 -0.0397  0.2832
21510W        W37984   8.101   2.802   3.076  0.2250  0.1350 -0.1299
21511W        W37985   8.414   7.738  15.086 -0.0926 -0.0553  0.0226
21512W        W37986   9.423  14.634  11.040  0.2329 -0.1142  0.0528
21513W        W37987   8.566  13.374  14.865  0.0176 -0.1159 -0.2686
21514W        W37988  14.245   7.383  13.377 -0.1166 -0.1388  0.1204
21515W        W37989   4.016  12.008  13.119  0.0930 -0.3131  0.0889
21516W        W37990   3.070   4.749   1.398 -0.0387  0.0632  0.3462
21517W        W37991  16.546   1.867   5.549  0.0993 -0.1712 -0.0602
21518W        W37992  10.846   6.915  12.537 -0.4737  0.1060 -0.0338
21519W        W37993  10.268   1.401  15.857 -0.0656 -0.1809 -0.2304
21520W        W37994  10.112   4.777   2.479 -0.3775 -0.0941  0.1112
21521W        W37995  13.284   8.721  11.514  0.0321  0.0153  0.3343
21522W        W37996   5.313   7.768  11.549 -0.2482 -0.1533  0.0045
21523W        W37997  16.849  15.429  13.185 -0.2290 -0.1866  0.2252
21524W        W37998  15.505   4.101   0.682 -0.1090  0.2020  0.5694
21525W        W37999  11.057  14.764   2.634 -0.0180  0.2946 -0.0772
21526W        W38000   1.552   1.111   3.545 -0.0047 -0.3182  0.0654
21527W        W38001  10.299   3.600  15.993 -0.4291  0.2393  0.3097
21528W        W38002   4.826  14.799   1.558 -0.0943 -0.1494  0.1740
21529W        W38003   1.849   1.642   4.055  0.1282 -0.2122 -0.0738
21530W        W38004   8.952  14.187  13.651  0.0113 -0.2061 -0.2011
21531W        W38005   6.832  14.405  13.672  0.3361  0.0420 -0.2582
21532W        W38006   5.416   3.476   4.242 -0.0346  0.0035  0.0205
21533W        W38007   1.641  11.837  14.106 -0.0565  0.1612 -0.3321
21534W        W38008   0.661  12.050   0.971  0.0036  0.1192  0.0424
21535W        W38009   9.277  13.870   1.072 -0.1094 -0.1154 -0.1055
21536W        W38010  17.184   7.394   5.193  0.0168  0.0856 -0.0316
21537W        W38011  13.591  14.219   0.649 -0.2346  0.1712  0.0732
21538W        W38012  15.461  13.721  14.259  0.0356 -0.2014  0.1893
21539W        W38013  12.519  15.726   3.616 -0.2390 -0.0995 -0.2090
21540W        W38014  12.769   8.016   4.761  0.1243  0.1356 -0.1170
21541W        W38015   3.744  12.338  11.380  0.0153 -0.1870 -0.0867
21542W        W38016   7.730   3.805  15.893 -0.1279 -0.2795  0.0400
21543W        W38017  13.319  13.962  16.214 -0.2235  0.1159 -0.1607
21544W        W38018  17.674  16.322   3.192  0.0300  0.1154  0.0042
21545W        W38019  10.330  15.959  13.317  0.1001 -0.2067 -0.0276
21546W        W38020   7.516  11.238  10.174 -0.1295 -0.1794  0.1466
21547W        W38021  12.788   1.916   0.603 -0.0639 -0.1155  0.0951
21548W        W38022   4.678   0.879  15.454  0.0910 -0.3184  0.0598
21549W        W38023   4.197   1.387  11.815  0.0763  0.2924 -0.1216
21550W        W38024   8.440  11.532  14.621  0.2777  0.0494 -0.1124
21551W        W38025   2.936   2.849   3.826  0.1495 -0.4256  0.2082
21552W        W38026   4.404   7.009  15.134  0.0172  0.0901  0.0338
21553W        W38027  13.798  14.101   2.515 -0.2512  0.3130  0.1244
21554W        W38028   3.609  10.097   3.360 -0.0772  0.1467 -0.0820
21555W        W38029  10.191   1.242   0.656  0.0090  0.2140 -0.0561
21556W        W38030  16.612  15.810  16.352 -0.1575 -0.1169 -0.0506
21557W        W38031   4.520   5.211  14.248  0.1193 -0.1546  0.2052
21558W        W38032  12.742  16.678  16.022  0.1441  0.2178 -0.0725
21559W        W38033   2.052  14.823  11.990 -0.2447  0.0602 -0.0762
21560W        W38034  11.032  16.541  14.590 -0.0148  0.0038  0.0848
21561W        W38035  12.105  17.152  15.024  0.2933 -0.1859  0.2431
21562W        W38036   9.319  10.103   5.295  0.1511  0.0768 -0.1920
21563W        W38037  11.524   5.636   2.457 -0.0581 -0.1620 -0.1339
21564W        W38038  11.742   0.947  13.067  0.0673 -0.3203 -0.0607
21565W        W38039   8.033   6.501   3.557 -0.1205 -0.0481 -0.0332
21566W        W38040  11.517  10.723   4.426 -0.3095 -0.0996 -0.1372
21567W        W38041   2.830  13.155   1.725 -0.2517  0.1978 -0.0362
21568W        W38042   9.661   8.723  11.526 -0.0294  0.0520 -0.0203
21569W        W38043   5.250   2.057   1.363  0.0791  0.1780  0.1408
21570W        W38044  10.539   6.241   1.587 -0.1961 -0.1238 -0.1305
21571W        W38045   2.147   6.366   2.708  0.2640  0.1376  0.1945
21572W        W38046   8.959  17.487   4.774 -0.0658  0.0037 -0.0985
21573W        W38047   2.467  17.704   5.084  0.2565 -0.1973 -0.1081
21574W        W38048   9.784  14.031   0.968 -0.0122 -0.1926 -0.1834
21575W        W38049   2.508  17.835   0.954  0.1056  0.0666 -0.0175
21576W        W38050  10.112   3.563   3.958  0.0222 -0.0555 -0.0384
21577W        W38051   2.854   5.262  11.569  0.0427 -0.2258  0.2506
21578W        W38052   8.640   1.849  15.903  0.1178 -0.1248  0.2999
21579W        W38053  16.938  15.471   5.634 -0.2495  0.0344  0.3741
21580W        W38054   7.274   8.174  15.009 -0.2013  0.0350 -0.0513
21581W        W38055   8.418   4.215   5.340  0.1590 -0.1048 -0.1897
21582W        W38056   9.153   7.527   2.378 -0.0717  0.0512 -0.0083
21583W        W38057  17.069  11.369  11.538  0.2022 -0.1898  0.2771
21584W        W38058  16.836  15.007   3.306  0.1115 -0.0611 -0.5520
21585W        W38059   7.660  11.444   3.792 -0.2715  0.2988  0.0891
21586W        W38060   5.504  14.579  13.320  0.0854  0.2183  0.3210
21587W        W38061   5.521   1.325  15.570 -0.1543 -0.3205 -0.1423
21588W        W38062  15.130   7.282  13.423 -0.0353  0.2552  0.2069
21589W        W38063  11.626  12.564   2.530  0.0374 -0.1000  0.0331
21590W        W38064   6.619  14.295  13.063 -0.1073 -0.3049  0.0977
21591W        W38065  13.164  14.914  12.431 -0.2119  0.2291 -0.0031
21592W        W38066   9.282   2.371   2.683  0.3058  0.1288  0.1712
21593W        W38067  16.048  13.598   1.320 -0.1730  0.2035 -0.1151
21594W        W38068   7.878  11.271   1.983  0.0747 -0.0375  0.1530
21595W        W38069   7.256   8.656  15.767 -0.2449 -0.0598  0.0928
21596W        W38070   1.002  15.667   2.941  0.3427  0.0593 -0.1715
21597W        W38071   5.578   7.649   1.353  0.0305  0.0950 -0.2465
21598W        W38072  17.032  15.083   5.949  0.0420 -0.2729 -0.1555
21599W        W38073   8.468  17.562   1.391  0.1163 -0.0841  0.1117
21600W        W38074  11.783  10.355  15.946  0.1365  0.1609 -0.0666
21601W        W38075  14.388  10.041  15.294  0.0397 -0.1689  0.0891
21602W        W38076   4.058   8.880  12.098  0.0399 -0.0418 -0.3325
21603W        W38077   1.442  18.132   5.515 -0.0578 -0.0653 -0.3413
21604W        W38078   5.070   3.142  11.612  0.2832 -0.2202 -0.0201
21605W        W38079  12.584  13.139   0.058 -0.1671 -0.2643  0.0337
21606W        W38080   8.719  12.622  14.245  0.1594 -0.0286 -0.1842
21607W        W38081   6.377  17.434  11.601  0.0528  0.4548 -0.1654
21608W        W38082   1.104  12.620   4.007  0.0226  0.1715  0.1207
21609W        W38083   9.189  12.779  15.103  0.1524  0.1120 -0.2144
21610W        W38084   6.832   9.588  12.254 -0.0698 -0.3090  0.2847
21611W        W38085   0.208   3.509  13.656  0.2951 -0.0915 -0.1370
21612W        W38086   1.355   9.213  15.244  0.2431  0.2948 -0.2230
21613W        W38087  17.167   5.706  15.877 -0.3752  0.1553 -0.1563
21614W        W38088  15.505  16.064   2.397 -0.1341 -0.2377 -0.1979
21615W        W38089  12.342   5.658  12.417 -0.1558 -0.1143 -0.0759
21616W        W38090   7.592   1.060  13.889  0.0894 -0.1275  0.1223
21617W        W38091   5.924   0.736  11.810 -0.1006  0.2883  0.1522
21618W        W38092   9.415  10.516  12.916 -0.0579 -0.0956  0.0781
21619W        W38093   3.326  12.620  11.195 -0.0259 -0.0874 -0.1391
21620W        W38094   3.753   1.953   3.373 -0.0813 -0.2518  0.0723
21621W        W38095   9.642  13.587   4.129 -0.0381 -0.0866 -0.1485
21622W        W38096   1.986  11.933   4.570 -0.0080 -0.0809  0.1981
21623W        W38097  11.823   6.868   4.784  0.0212  0.2329  0.0506
21624W        W38098   8.977   5.543   1.768  0.2374  0.0995 -0.0111
21625W        W38099   7.722  18.116   3.148  0.1365  0.0017  0.3154
21626W        W38100  17.809   4.756  14.845  0.2757 -0.2726 -0.2316
21627W        W38101  10.754   9.720   4.010  0.1292  0.1851 -0.4202
21628W        W38102   3.805  17.074   5.594  0.2485 -0.1596 -0.0529
21629W        W38103   7.923   7.548  12.538 -0.1413 -0.2786  0.2919
21630W        W38104   9.794   9.040   1.735  0.3409 -0.0767  0.4492
21631W        W38105   2.053   7.118   5.378 -0.1277  0.1485  0.0425
21632W        W38106  10.335   5.132  10.805  0.1273  0.0464  0.0623
21633W        W38107  10.537   3.037  12.168 -0.1063 -0.2499 -0.2671
21634W        W38108  14.955   7.550  15.050  0.1732 -0.1613 -0.0774
21635W        W38109   1.540   5.323   5.320  0.0586  0.0272  0.0087
21636W        W38110  16.689  14.306  15.998 -0.2089 -0.0564  0.0052
21637W        W38111   4.008   8.470   1.226  0.0235  0.2217 -0.2061
21638W        W38112  14.962   3.735   3.483  0.0048 -0.0356 -0.0215
21639W        W38113   9.779   2.692   5.743  0.0946 -0.1197  0.3175
21640W        W38114   5.581  12.973   1.691  0.2046 -0.3226  0.1208
21641W        W38115  17.802   7.994   3.269 -0.0489 -0.1978  0.1632
21642W        W38116   8.169   0.847  14.410 -0.1655 -0.3560 -0.2713
21643W        W38117   3.203  16.779   0.661  0.3288  0.0688  0.1570
21644W        W38118   7.020  16.783   1.702  0.0600 -0.0712 -0.1608
21645W        W38119   4.443   8.194  11.649  0.0877 -0.2191  0.2031
21646W        W38120  11.327   7.275  10.612  0.1027 -0.1353 -0.0105
21647W        W38121   6.616   7.793   4.295  0.1781  0.0487 -0.1277
21648W        W38122   5.672  12.001  14.627  0.0616 -0.0379  0.0009
21649W        W38123  15.715   4.327  16.163  0.2056 -0.0941  0.2094
21650W        W38124  14.890   0.475  11.570 -0.0615 -0.1043  0.0309
21651W        W38125   5.443   0.894  14.798 -0.0494  0.0306 -0.1584
21652W        W38126  10.879   5.432  11.443  0.1944  0.2644 -0.0706
21653W        W38127   5.237  11.173  13.326  0.1371  0.0895 -0.1014
21654W        W38128   5.548  16.148   3.574 -0.2074  0.0179  0.1527
21655W        W38129   2.671   5.728   5.168  0.2090  0.1023 -0.2380
21656W        W38130  12.842  14.970  11.522  0.2234  0.1950 -0.1708
21657W        W38131   8.081   5.644  11.348  0.3649  0.1310 -0.2460
21658W        W38132   5.678   7.459  11.826  0.1350 -0.3476  0.0051
21659W        W38133   5.501  16.720  16.293  0.0085 -0.0595 -0.0219
21660W        W38134   7.019  13.269  12.206  0.1319 -0.0243  0.2244
21661W        W38135  16.529  12.399   1.202 -0.1577 -0.3190  0.0866
21662W        W38136  14.821   3.398  12.484  0.0157  0.3704  0.1302
21663W        W38137   3.847  10.350  14.358 -0.1272 -0.0333  0.0380
21664W        W38138   4.873   9.393   0.424 -0.0400 -0.0695  0.2531
21665W        W38139   3.415  14.365   4.863  0.0697 -0.1680  0.2424
21666W        W38140   3.120  11.663  13.204 -0.1502  0.0490  0.2272
21667W        W38141  15.401  17.788   3.719  0.0084 -0.1068  0.0839
21668W        W38142  17.425   6.337  15.157  0.1972  0.0533  0.0316
21669W        W38143  12.035  14.158  13.851 -0.0113 -0.0947  0.2536
21670W        W38144   5.093   7.294  12.344 -0.1428 -0.1840  0.1839
21671W        W38145  14.955  16.898   2.755  0.0735  0.0624  0.0775
21672W        W38146  16.029  13.863  16.039 -0.1421  0.1442 -0.1222
21673W        W38147   5.897   8.390  12.872  0.1993  0.0326 -0.2287
21674W        W38148   0.400  14.630  13.792  0.1701  0.3219 -0.0513
21675W        W38149  12.887   7.220   0.400  0.0077  0.2296 -0.1884
21676W        W38150   3.897  14.389  14.916  0.0628  0.0831 -0.1512
21677W        W38151   7.901  17.750  13.481 -0.0642  0.0663 -0.0891
21678W        W38152   6.500   5.646   3.803 -0.0689 -0.5897  0.0140
21679W        W38153  17.891   1.556   0.768  0.0380 -0.2546  0.1497
21680W        W38154   6.342  13.284  15.691  0.0052 -0.2818 -0.0626
21681W        W38155  13.216  15.139   3.539  0.3225 -0.0980  0.0603
21682W        W38156  12.731  13.981  13.133 -0.2015  0.1692 -0.0557
21683W        W38157  16.337   8.186  15.148 -0.1868  0.3265 -0.1017
21684W        W38158  17.754   2.259  12.783  0.1570  0.0675 -0.2437
21685W        W38159  11.681   0.316  14.362  0.0312  0.0765 -0.0140
21686W        W38160   5.688   8.546   0.865  0.2510 -0.2182  0.1465
21687W        W38161   6.447  17.688   2.278 -0.0605 -0.1014 -0.1688
21688W        W38162  15.161   0.773   3.269 -0.0006 -0.0605  0.1051
21689W        W38163  16.115  18.087  14.125  0.0721  0.0331  0.2454
21690W        W38164   4.634   3.275  11.297  0.0695 -0.0500 -0.1038
21691W        W38165   9.709   3.387   3.277 -0.1025  0.1170 -0.0536
21692W        W38166   9.030   6.260  12.400 -0.1557  0.2765  0.0730
21693W        W38167   5.248  11.268   2.498 -0.1816  0.1249 -0.0104
21694W        W38168  16.050   4.959  16.052 -0.4003 -0.3082 -0.1364
21695W        W38169  13.048   4.074   3.296 -0.0064 -0.3295  0.0786
21696W        W38170  13.066   4.783  13.153 -0.0703  0.1743  0.1875
21697W        W38171   1.722  16.703  14.565 -0.2131 -0.2819 -0.2636
21698W        W38172  11.027   1.290  12.115  0.3813 -0.0639  0.0231
21699W        W38173   8.489   2.437  15.228  0.1410 -0.0992  0.0517
21700W        W38174  14.372  17.783   1.384  0.1707  0.0609  0.2338
21701W        W38175   7.146   6.190   2.911  0.1654 -0.2161 -0.0800
21702W        W38176  17.928  13.859  15.890 -0.2792  0.0508 -0.2219
21703W        W38177  12.210  12.726  16.320  0.2343  0.0701 -0.0854
21704W        W38178  13.207   9.361   2.458  0.2201  0.2997 -0.2237
21705W        W38179  11.484  17.028   4.526 -0.0006  0.2649  0.1280
21706W        W38180  10.232   8.475  15.323 -0.0086 -0.0609  0.0717
21707W        W38181   0.040   2.215  15.461 -0.1070 -0.0636 -0.0398
21708W        W38182   0.986  16.961   5.873  0.0190  0.1196  0.0404
21709W        W38183  11.897   5.673   3.656 -0.0549  0.2618  0.0466
21710W        W38184  14.041  17.679   0.169  0.1928  0.0691  0.2277
21711W        W38185   1.344   0.247  14.443 -0.1173 -0.0825  0.2645
21712W        W38186   4.188  13.507   4.546  0.0831  0.0849  0.1876
21713W        W38187  10.941  13.737   4.327  0.2584 -0.1841  0.1136
21714W        W38188  17.118  15.931  12.301  0.2655 -0.2126  0.0448
21715W        W38189   9.836  14.430   1.282  0.0772 -0.1992  0.2495
21716W        W38190   1.407   5.564  11.889  0.0372  0.1833  0.1154
21717W        W38191  15.588   7.924  12.757 -0.0853  0.0501  0.2041
21718W        W38192   4.471   5.790  12.560  0.1205 -0.0754  0.1246
21719W        W38193  12.956   4.037   1.896  0.1014  0.2060 -0.0285
21720W        W38194  15.990  11.528   4.564  0.0899 -0.1878  0.1847
21721W        W38195   0.959   1.551   2.987 -0.0374 -0.0321 -0.0802
21722W        W38196   9.485   6.742  14.368 -0.0129 -0.1555  0.4628
21723W        W38197   3.042  13.594  14.184 -0.3356  0.2259  0.0708
21724W        W38198  16.664   1.768  11.116  0.0968 -0.1642 -0.0597
21725W        W38199  15.228   5.332  13.951  0.1095 -0.3478  0.0037
21726W        W38200   4.124   6.927   4.047  0.2802  0.1661  0.0129
21727W        W38201   7.981   7.941   5.490  0.1541  0.3047 -0.2249
21728W        W38202  12.906  12.909  12.579 -0.0562 -0.1957 -0.1123
21729W        W38203  11.217  13.908   2.369 -0.1300 -0.0840  0.2135
21730W        W38204   5.995  15.957   4.856  0.1645  0.2089 -0.1631
21731W        W38205  17.641  16.038  12.335 -0.1621 -0.1110  0.0038
21732W        W38206   3.790   8.675  13.578 -0.0643  0.4030  0.3639
21733W        W38207  14.679   8.283   5.210  0.0241  0.0018  0.0556
21734W        W38208   5.872   1.489   1.352 -0.0055  0.2004 -0.1675
21735W        W38209  15.125   0.264   4.573 -0.0659 -0.0759  0.0720
21736W        W38210   5.845   8.853   5.338  0.0648  0.2687  0.1215
21737W        W38211  14.035   7.741  16.204  0.0004 -0.0637 -0.0392
21738W        W38212  14.136   0.294  14.155  0.2579 -0.3432 -0.1491
21739W        W38213   3.012  15.406   2.000  0.2094 -0.4261 -0.0887
21740W        W38214   4.134   9.232  15.618 -0.1903 -0.1541 -0.0627
21741W        W38215  11.231   8.276   4.076  0.2362 -0.0410  0.0752
21742W        W38216   0.443   2.875   3.359 -0.2181  0.3057  0.2193
21743W        W38217  17.155   3.086   0.710 -0.0298  0.1235  0.0759
21744W        W38218  14.525   7.581  16.177 -0.2736 -0.1316 -0.1631
21745W        W38219   4.561   0.458  15.193 -0.0052 -0.2374  0.1140
21746W        W38220   3.467  16.384   3.036  0.1792 -0.0935 -0.1145
21747W        W38221   8.112  10.984  12.694 -0.0555 -0.1678 -0.2335
21748W        W38222   0.732  13.033   2.582  0.0320 -0.1220 -0.2187
21749W        W38223  16.337  13.433   3.162  0.0973  0.2618  0.0694
21750W        W38224   7.118  10.869   0.751 -0.0076  0.0348 -0.0390
21751W        W38225  11.552  16.058   5.096  0.1988 -0.0001 -0.0082
21752W        W38226   9.190   7.543  12.758  0.0900 -0.1323 -0.1223
21753W        W38227   6.336   8.558   3.681  0.0572 -0.4246 -0.1955
21754W        W38228   6.880   9.433   2.622  0.0160  0.2017  0.0937
21755W        W38229   4.530  13.727  14.624  0.3021 -0.1544  0.1201
21756W        W38230  11.798  17.149  14.552 -0.2114  0.1785 -0.1695
21757W        W38231   8.335   0.080  13.225 -0.0599  0.0906 -0.3848
21758W        W38232  10.444  12.279  13.760 -0.1611 -0.0544  0.3706
21759W        W38233  13.637   5.863  14.095  0.2836 -0.1515 -0.1757
21760W        W38234  17.693   0.003  13.341 -0.0272  0.0958  0.1305
21761W        W38235   1.337   3.947   1.428 -0.0005  0.1473 -0.2928
21762W        W38236  13.547  14.544  12.162 -0.0808  0.3149 -0.0927
21763W        W38237   2.408  15.862   1.395  0.1044  0.1055  0.3261
21764W        W38238  14.267  11.035   2.308 -0.0459 -0.1726  0.4117
21765W        W38239  13.567   2.938   1.872 -0.0993  0.0116  0.0146
21766W        W38240   9.085  11.978  16.100 -0.1783  0.0288  0.0636
21767W        W38241   5.127   8.204  12.938 -0.0886  0.1519  0.1867
21768W        W38242   5.253   3.355  13.886 -0.0229  0.0285  0.0806
21769W        W38243   5.817  10.422  14.347  0.2853 -0.0749  0.1520
21770W        W38244   4.940  10.270   0.198 -0.0176  0.2170  0.1065
21771W        W38245  17.004   8.817  14.741 -0.0426  0.4760  0.0682
21772W        W38246  16.347   7.285  14.597 -0.3764  0.1330  0.1109
21773W        W38247   3.374  16.479  13.558 -0.2242  0.1409 -0.1126
21774W        W38248   8.834   8.942   3.761 -0.2215 -0.2448  0.2364
21775W        W38249  12.712  11.131   4.065  0.0857 -0.0772 -0.0350
21776W        W38250   3.718   1.095  15.379 -0.0795 -0.0814 -0.1950
21777W        W38251  14.005   5.966   3.892 -0.2070 -0.1649 -0.1803
21778W        W38252   9.813   7.630   2.082  0.3667  0.2435  0.1876
21779W        W38253  14.896  16.143   4.103  0.2332  0.0706  0.0736
21780W        W38254  10.704   7.115   0.683 -0.0912 -0.0515  0.1345
21781W        W38255  13.825  17.763   2.876  0.1035 -0.0826 -0.0426
21782W        W38256   0.899  13.959   2.100 -0.2649  0.1424 -0.0973
21783W        W38257  14.154   6.009   5.939  0.1389  0.0279 -0.1434
21784W        W38258   0.929   1.171  13.817 -0.3486 -0.2015 -0.2562
21785W        W38259  10.010  18.089   4.009  0.2389 -0.1835  0.0038
21786W        W38260   4.714   6.802   1.097 -0.1975 -0.1131  0.0797
21787W        W38261   0.403   9.591  13.892 -0.2337 -0.2579  0.1210
21788W        W38262  11.514   2.809  15.683 -0.1668 -0.2695 -0.1371
21789W        W38263  15.218   5.336   4.589 -0.1424 -0.1406  0.2304
21790W        W38264  16.264   6.923  11.390 -0.1396 -0.3158 -0.0732
21791W        W38265  15.386   9.759   5.538  0.0225 -0.0556  0.3782
21792W        W38266   6.670   2.562   3.229  0.0673 -0.2443 -0.3443
21793W        W38267  12.543  16.805  15.185  0.0240 -0.1745  0.1456
21794W        W38268   8.130   3.671   5.121 -0.1876 -0.1301 -0.0745
21795W        W38269  10.475   9.002  11.540  0.0830 -0.0001  0.0166
21796W        W38270   9.874   5.500  12.974  0.0749 -0.0597  0.0865
21797W        W38271  12.824  16.636   2.191  0.1134  0.2338  0.1139
21798W        W38272   7.694  12.661   1.038 -0.0027  0.3176 -0.0826
21799W        W38273  10.602   0.987  12.024  0.0225 -0.0387  0.2756
21800W        W38274   5.475   2.901  14.678  0.3714  0.0655  0.1805
21801W        W38275   6.201  17.556   5.312 -0.1791 -0.3446 -0.0553
21802W        W38276  13.308  14.652   3.294  0.1158 -0.2194 -0.0865
21803W        W38277   0.544   6.600   2.744 -0.1691 -0.5105  0.0781
21804W        W38278   8.566  16.740   1.046 -0.0202 -0.1411  0.1686
21805W        W38279  11.482   6.113   2.808 -0.2058  0.1105  0.4134
21806W        W38280   8.963   0.359  16.045 -0.0960  0.3190 -0.0692
21807W        W38281  16.589  15.072   1.922  0.1997  0.0816  0.1315
21808W        W38282  17.839  15.318  10.452  0.0100  0.1144 -0.2716
21809W        W38283   6.190   6.753   1.105 -0.1051 -0.1920 -0.0807
21810W        W38284   0.002   2.668   3.629 -0.1845 -0.1489 -0.2581
21811W        W38285  11.784   6.017   3.200 -0.2429 -0.1422 -0.0889
21812W        W38286   3.491  17.289  16.190 -0.0951 -0.0320 -0.1068
21813W        W38287   2.646  14.552   2.036  0.0341 -0.3152  0.3398
21814W        W38288  13.883   3.944   0.727  0.2414 -0.0588  0.2670
21815W        W38289   9.718   9.306   3.770 -0.0685 -0.2532 -0.0870
21816W        W38290  16.411   2.616  13.145  0.2421 -0.1781 -0.3296
21817W        W38291   7.343   1.900   4.860  0.0570  0.0332  0.1404
21818W        W38292  17.068   7.441  11.487  0.0848  0.1627 -0.1232
21819W        W38293  13.046  12.507   5.294  0.2898  0.1370  0.0448
21820W        W38294  12.447   8.474   4.767  0.1581  0.3441  0.3345
21821W        W38295   2.031  12.330  14.472 -0.1606  0.0464 -0.1623
21822W        W38296  12.422  10.717  11.567 -0.1677  0.3023  0.2445
21823W        W38297   8.619   4.041  15.662 -0.2145 -0.1577  0.0249
21824W        W38298   8.816   2.652  14.889 -0.1576  0.1802  0.1299
21825W        W38299  14.063   9.342   3.451  0.0400 -0.0087 -0.0356
21826W        W38300   5.228  14.341  12.934  0.2163 -0.4048  0.1456
21827W        W38301  17.913   3.050   5.210  0.2740 -0.1603 -0.0659
21828W        W38302  15.374  16.813   3.428 -0.1729  0.3002  0.2138
21829W        W38303  16.571  15.681   4.005 -0.2009 -0.0291 -0.0253
21830W        W38304   8.854   4.280   4.087  0.0938  0.2033  0.1141
21831W        W38305   1.886  14.988   5.386 -0.2040 -0.2667  0.0337
21832W        W38306   9.809   9.476   3.174 -0.1240 -0.0111  0.0967
21833W        W38307   0.922   3.628  11.152 -0.0894 -0.1932  0.0867
21834W        W38308  10.728   3.592   2.468 -0.0663  0.1191  0.0703
21835W        W38309   4.297   0.871   0.524 -0.0483  0.0976 -0.0710
21836W        W38310   9.889   0.466   5.058 -0.1490 -0.1595 -0.0712
21837W        W38311  16.900   1.167  16.333 -0.0819 -0.0360  0.0252
21838W        W38312  17.538   3.343  16.250  0.0260 -0.1500 -0.0605
21839W        W38313  15.915   2.659  12.798 -0.1062 -0.0576 -0.2489
21840W        W38314   3.344  13.086  12.075 -0.2122 -0.1027 -0.0472
21841W        W38315  16.906  11.301  15.855 -0.0110  0.1561  0.1451
21842W        W38316   4.673   4.544   0.490 -0.0625 -0.0132  0.1471
21843W        W38317  11.969  15.561   2.802 -0.1967 -0.0345  0.1413
21844W        W38318  15.355  10.666  12.046  0.3093  0.0571 -0.2694
21845W        W38319  11.163   9.038  14.701 -0.0394  0.0138 -0.0972
21846W        W38320  13.696  10.829  15.470 -0.0363  0.1535  0.0088
21847W        W38321  15.969  14.392   5.462  0.1944  0.0022  0.0419
21848W        W38322  16.353   8.122   3.636 -0.0180  0.1052 -0.0667
21849W        W38323  15.893  16.180  15.265  0.0254 -0.3749 -0.0861
21850W        W38324   0.923  12.046   3.504  0.1603 -0.3644 -0.0011
21851W        W38325  11.331   2.548   1.163  0.1251 -0.2261  0.1164
21852W        W38326   8.952   7.434   3.269  0.2442 -0.0140 -0.0940
21853W        W38327   7.499  10.738   3.135  0.2208  0.0595  0.0500
21854W        W38328   6.351  11.807   3.782 -0.0907  0.0851  0.0307
21855W        W38329   9.929   3.152   5.581 -0.2675 -0.1470 -0.0479
21856W        W38330  11.060  13.192  14.239 -0.0570 -0.2308 -0.2117
21857W        W38331   1.838   5.449  15.640  0.1691 -0.1379  0.0829
21858W        W38332  13.404  12.729   5.612  0.0807  0.1475  0.1072
21859W        W38333  10.329   8.151   2.920  0.1088  0.0897  0.1140
21860W        W38334   7.205  10.336   0.711 -0.1493  0.1319 -0.0354
21861W        W38335  16.022   7.003  13.624 -0.1304 -0.0566  0.0043
21862W        W38336   9.964   7.983  12.827 -0.1302 -0.2003  0.0014
21863W        W38337   7.061   7.600   1.262  0.2042  0.1708 -0.0525
21864W        W38338  17.900  10.275  14.751 -0.1273 -0.1437  0.1063
21865W        W38339   0.881  17.745   0.510  0.1433  0.0575  0.0884
21866W        W38340  14.154   1.942   1.709 -0.1590  0.3230 -0.2808
21867W        W38341   8.401   1.125  13.926  0.1394  0.0150  0.3536
21868W        W38342  13.953  14.425  15.263 -0.0948  0.0222 -0.1952
21869W        W38343   8.293   6.097   3.618 -0.2155  0.0395 -0.1459
21870W        W38344   8.490  17.021   4.747  0.1093 -0.0140  0.1558
21871W        W38345   8.940   2.953   4.172 -0.3730 -0.4909 -0.0129
21872W        W38346   2.633  17.094   0.857 -0.3203 -0.2946  0.3913
21873W        W38347   8.384   8.846  15.191 -0.0118  0.3229 -0.2557
21874W        W38348   4.930  11.788   0.642 -0.2453  0.1218  0.3556
21875W        W38349  13.217  16.178   0.746 -0.0030 -0.0542 -0.3399
21876W        W38350  13.415   0.033  11.441 -0.0995  0.1299  0.2176
21877W        W38351   5.983  11.710  15.762  0.0853 -0.0250 -0.4558
21878W        W38352  15.767   8.408   0.865  0.0624 -0.2576 -0.3417
21879W        W38353   6.757  11.831   0.948  0.0981 -0.1640 -0.3484
21880W        W38354   8.341  12.460  15.056  0.3999  0.2292  0.0313
21881W        W38355   7.385  18.060  15.256 -0.3312  0.2387  0.0827
21882W        W38356   2.602  15.369  12.442 -0.2160  0.1426  0.0700
21883W        W38357   6.431   6.306   1.898 -0.2206 -0.1230 -0.2297
21884W        W38358   4.271  13.402   2.528  0.3705  0.0241 -0.2718
21885W        W38359   1.936   3.128   1.353 -0.1015  0.2834 -0.1627
21886W        W38360  14.607  16.782  12.149 -0.0927  0.0291  0.2387
21887W        W38361  12.318  16.930  16.304 -0.0942  0.0136  0.1767
21888W        W38362   3.369  16.357   3.592 -0.0546 -0.3134 -0.2330
21889W        W38363   6.882   9.484  15.725  0.1873  0.0739  0.3114
21890W        W38364  17.480   6.560   5.351  0.1733 -0.1179 -0.1835
21891W        W38365  15.741   3.103   0.969  0.0004 -0.2034 -0.3801
21892W        W38366   9.221  10.823   6.057 -0.0046 -0.2567  0.0347
21893W        W38367   2.089  16.631  13.642  0.0146  0.1500 -0.0381
21894W        W38368   5.721  16.926  13.185  0.2423  0.0861  0.0314
21895W        W38369   8.951   5.660  13.784 -0.2896  0.1293  0.3801
21896W        W38370   6.014  14.727   5.176  0.1060  0.0048  0.2823
21897W        W38371  13.947   9.022   6.118  0.2021 -0.0650 -0.1061
21898W        W38372  12.869  14.458  14.177  0.2363 -0.1963  0.1699
21899W        W38373   4.729   4.316  13.606  0.1182 -0.2414 -0.0855
21900W        W38374   7.755   1.383  15.065  0.1932  0.2285  0.1201
21901W        W38375   2.946  16.633  11.555 -0.1325  0.0305 -0.0827
21902W        W38376  13.574  11.727   5.558 -0.1750 -0.2563 -0.2807
21903W        W38377   1.274  12.820  10.951  0.1784 -0.1618 -0.1210
21904W        W38378   6.011   5.140   4.569 -0.3488  0.2106  0.1132
21905W        W38379  13.572   1.493  12.331 -0.1791 -0.0512  0.0254
21906W        W38380  13.317  13.345  13.464  0.2540  0.0098  0.2771
21907W        W38381  13.602   3.514  13.605 -0.1100 -0.1570  0.5515
21908W        W38382  15.194  13.587   1.771  0.1992  0.0985  0.1862
21909W        W38383  11.912   5.566  13.216  0.0444  0.0489 -0.0779
21910W        W38384  12.899   0.170  11.655  0.0846  0.0253 -0.1307
21911W        W38385  14.993   7.889  14.197 -0.0898 -0.0384 -0.1101
21912W        W38386   0.538  14.973   3.959 -0.1624  0.1739  0.0231
21913W        W38387   4.554   5.774   5.993 -0.0465 -0.1391 -0.3998
21914W        W38388  17.967   5.744   2.314  0.0223 -0.0826 -0.0242
21915W        W38389   8.859   3.829  16.097  0.1064 -0.1504 -0.3186
21916W        W38390  16.602  14.097   0.880 -0.1251 -0.0360  0.1440
21917W        W38391   4.912   6.227   0.812  0.1136  0.0657  0.1923
21918W        W38392  11.239  13.194   3.839  0.2121 -0.0367 -0.0979
21919W        W38393  11.045   3.952   3.362 -0.1913 -0.0181  0.1576
21920W        W38394  10.347   5.330  12.838 -0.0729 -0.4927  0.2377
21921W        W38395  14.809  11.390   0.259  0.1488 -0.1184  0.0535
21922W        W38396   1.602   3.491   4.738 -0.1088  0.2262  0.1989
21923W        W38397   2.527  14.708  11.847  0.0728  0.0070  0.3269
21924W        W38398   9.329   8.238   4.774  0.1461 -0.1051  0.2900
21925W        W38399  10.118   8.199  11.181 -0.2185  0.0976 -0.1235
21926W        W38400   4.670  13.153   1.834 -0.2366  0.1115  0.1642
21927W        W38401   6.267  14.488   0.992 -0.0405 -0.1469 -0.0695
21928W        W38402  12.988   9.789  14.837 -0.0413 -0.2787  0.0127
21929W        W38403  10.720  13.974   3.883 -0.1962  0.1291 -0.1180
21930W        W38404  14.786  11.129   5.585  0.0895 -0.1640  0.1587
21931W        W38405  10.116   1.699   5.198 -0.1564  0.1450  0.1440
21932W        W38406  12.881  10.456   3.164  0.0795  0.0770  0.0810
21933W        W38407   3.515   5.158   3.378 -0.0880  0.0817  0.2420
21934W        W38408   2.440   5.268  13.020 -0.2018  0.2340 -0.1092
21935W        W38409   9.725   5.932   1.238 -0.0586  0.0090  0.0613
21936W        W38410   5.584  17.654  15.973 -0.2370 -0.0493  0.1529
21937W        W38411   8.284   7.600   6.068  0.0063 -0.1063 -0.0406
21938W        W38412   8.370  14.479  12.834  0.1373  0.1201 -0.0191
21939W        W38413   4.650   6.964  16.060 -0.0860 -0.1920  0.1525
21940W        W38414   7.789   7.694  16.350 -0.3076 -0.1341 -0.0338
21941W        W38415   3.814  12.259   1.160  0.0547 -0.0989 -0.1223
21942W        W38416  12.706   9.001  12.542  0.3019 -0.2823 -0.1855
21943W        W38417   2.046   4.338   3.070 -0.1312  0.3028  0.2129
21944W        W38418   8.761  13.037  15.231 -0.3629 -0.0316  0.2478
21945W        W38419  13.203  12.249   0.032 -0.0187  0.0738 -0.1419
21946W        W38420   3.045  11.676   1.017 -0.1123  0.1043  0.3451
21947W        W38421   8.165  11.234   6.052 -0.1819  0.0465  0.1535
21948W        W38422  15.553   2.967  12.576 -0.2213  0.1311  0.2017
21949W        W38423   9.328   0.555   3.174 -0.2446 -0.5145  0.3701
21950W        W38424  15.992  13.489   3.966 -0.0345  0.0627  0.0936
21951W        W38425   8.953  14.167  15.921 -0.1040  0.0726 -0.2009
21952W        W38426   5.570   2.899   1.220  0.0564 -0.0157 -0.0094
21953W        W38427   4.692   5.349   3.636  0.1772 -0.1562  0.0938
21954W        W38428  11.939   7.299   2.089 -0.2599 -0.1711  0.2957
21955W        W38429   6.023  17.694   2.515  0.1232 -0.0657 -0.0718
21956W        W38430   4.274   8.903  14.404  0.0461 -0.0825 -0.0608
21957W        W38431   8.482  15.810   0.820  0.1110  0.3122 -0.1584
21958W        W38432   0.882   7.995  11.589  0.0549 -0.0741  0.0101
21959W        W38433   9.160   2.246   0.835 -0.0426 -0.0330 -0.1508
21960W        W38434  17.058   8.668   6.297  0.2039 -0.0953 -0.2701
21961W        W38435   6.974  11.170  13.298  0.1086 -0.1731 -0.0286
21962W        W38436   6.369   5.982   1.489  0.1856  0.1090 -0.3054
21963W        W38437  13.519  10.821  14.471 -0.1853  0.3816 -0.1127
21964W        W38438   8.316  12.472   1.605  0.0087 -0.0892 -0.0270
21965W        W38439   1.413   9.646  11.406 -0.3436  0.2715 -0.3258
21966W        W38440   0.303   8.799   2.877 -0.0110  0.0548 -0.1592
21967W        W38441   4.522  14.540   5.690 -0.1106  0.0402  0.0166
21968W        W38442   0.425  13.279  13.649  0.0205 -0.1646 -0.2065
21969W        W38443   5.661  16.582   4.584 -0.3448 -0.0339 -0.0386
21970W        W38444   3.493   8.245  13.664  0.1813 -0.1745  0.0134
21971W        W38445   8.096   9.985  13.347 -0.3103 -0.3030  0.0487
21972W        W38446  17.781  11.364   0.917 -0.1797  0.0779  0.1250
21973W        W38447   2.444  12.222  16.004  0.1840  0.0706  0.2893
21974W        W38448   7.803   6.049   3.349 -0.0808 -0.0734  0.0258
21975W        W38449   1.011   7.467  11.617 -0.0653 -0.1363 -0.1659
21976W        W38450   9.063  15.025   5.499 -0.2754 -0.0046  0.1711
21977W        W38451   1.264  12.402   3.541 -0.2228  0.0714 -0.2335
21978W        W38452  17.472   5.299   2.772 -0.0013 -0.0295  0.0729
21979W        W38453  15.286  11.098  14.026  0.0074  0.0323  0.0634
21980W        W38454  12.205   3.496   1.528 -0.0375 -0.1505 -0.3267
21981W        W38455   7.998   2.299   2.969 -0.3002 -0.0162  0.0170
21982W        W38456   6.347  17.131   5.609  0.2199  0.0781 -0.0824
21983W        W38457  13.074  11.670  13.654 -0.1812  0.1111 -0.1371
21984W        W38458  14.146   1.377  11.342  0.0877 -0.1605 -0.0251
21985W        W38459   0.548   9.763  10.332  0.0296  0.3062 -0.1973
21986W        W38460   2.562   3.314   4.336 -0.0168 -0.1852  0.2084
21987W        W38461   7.692   1.046   1.141  0.0461 -0.0722 -0.0936
21988W        W38462  16.985  13.087   1.698  0.0289  0.1275 -0.0143
21989W        W38463   6.558   4.339  12.316 -0.0854  0.2293  0.0517
21990W        W38464   2.901  12.004   4.272 -0.2970  0.0328  0.1231
21991W        W38465   3.762  15.858   0.607 -0.0197 -0.0123 -0.2265
21992W        W38466   3.716   7.417  14.538 -0.3083  0.1013 -0.2767
21993W        W38467  16.145   9.950  12.929  0.0460  0.0182  0.0628
21994W        W38468  13.510  11.371  13.054  0.0779 -0.2837 -0.2037
21995W        W38469   5.293   1.061  12.445  0.2577  0.0164  0.1235
21996W        W38470  11.263  14.578   1.129  0.0736  0.1726  0.0241
21997W        W38471  10.616   9.867   1.520 -0.1308 -0.0364  0.3303
21998W        W38472  17.944  11.869  12.061  0.1553  0.1204  0.0034
21999W        W38473  11.699   8.257   1.262 -0.0888 -0.0999  0.1614
22000W        W38474   1.082   4.519   2.313  0.0346 -0.2200  0.1202
22001W        W38475  13.634   2.229  13.980 -0.0048 -0.1522  0.0873
22002W        W38476  12.097  16.645  13.796 -0.1310  0.1372 -0.1497
22003W        W38477  16.239  14.859   1.426 -0.1590 -0.1311  0.0065
22004W        W38478   7.877   9.884  11.704  0.2286  0.2956  0.2241
22005W        W38479   8.355  11.184   2.723  0.2745 -0.0704  0.3113
22006W        W38480   6.014   7.614  14.116 -0.0625  0.1222  0.2260
22007W        W38481   5.196  10.400   1.160 -0.0377 -0.0737 -0.1113
22008W        W38482   1.987   6.398   0.870 -0.0147  0.0402  0.0191
22009W        W38483  10.374  11.257  15.170  0.1817  0.2415  0.1423
22010W        W38484   0.096   4.091  11.105  0.1880  0.0116  0.0177
22011W        W38485  12.082  14.920  12.611 -0.1408  0.1672  0.0253
22012W        W38486  14.409  11.322  12.055  0.0893  0.2359 -0.1218
22013W        W38487   6.145   8.132   5.839 -0.3221  0.1860 -0.0340
22014W        W38488  16.821  12.408  11.891  0.1612 -0.0625  0.1783
22015W        W38489  10.870   9.564  12.133  0.2227  0.0422  0.1155
22016W        W38490  15.761  17.169   5.542 -0.2224  0.1051  0.0365
22017W        W38491  17.755   9.999   4.287  0.1764 -0.0021  0.0812
22018W        W38492  12.217  10.364  14.685 -0.2437  0.2104 -0.2331
22019W        W38493  15.975  12.179  15.733 -0.2357  0.2023 -0.0893
22020W        W38494   8.719  16.469   1.579 -0.0004 -0.2991  0.1352
22021W        W38495  12.172   5.129   4.371  0.0338  0.1181  0.1158
22022W        W38496   0.965  13.564  12.263 -0.2670 -0.1879  0.0718
22023W        W38497   9.759   2.332  15.855 -0.1240 -0.1559 -0.0810
22024W        W38498  11.447  13.789  15.009 -0.0154  0.0778  0.1455
22025W        W38499   9.908   8.158   1.569  0.2310 -0.1277  0.2438
22026W        W38500  16.407  17.628   5.011  0.3408 -0.3664  0.0100
22027W        W38501  16.486  12.667  12.223  0.2020  0.0405  0.2105
22028W        W38502  16.889   4.477   2.139 -0.0974  0.1710  0.0272
22029W        W38503  12.563   3.854   1.519  0.0511 -0.0487  0.1297
22030W        W38504   2.558   0.082   5.262 -0.0994 -0.3571 -0.1801
22031W        W38505   9.571  12.211  14.197 -0.1769 -0.0399  0.0188
22032W        W38506  16.227   9.569   5.806  0.0866 -0.1669 -0.2701
22033W        W38507  12.806  12.211  12.519  0.0364 -0.0134  0.1279
22034W        W38508   3.193  16.715  12.469  0.0687  0.1365  0.1110
22035W        W38509   8.484  13.788   1.268 -0.0974 -0.0819 -0.0040
22036W        W38510   4.058   6.538   3.700 -0.1330  0.0683 -0.0857
22037W        W38511   8.876  16.464   4.698  0.2167  0.2480 -0.3815
22038W        W38512   9.243   2.881  14.985  0.1004  0.1434  0.1344
22039W        W38513  15.040   9.457   1.439 -0.3009 -0.0025  0.0496
22040W        W38514  16.261   4.674   0.368  0.1145 -0.1502  0.1130
22041W        W38515  15.889   8.083   5.685  0.3442  0.0714 -0.1684
22042W        W38516   5.937  14.710   6.162  0.0401 -0.0240 -0.2498
22043W        W38517   3.350   5.641  15.709 -0.1200  0.0062  0.0131
22044W        W38518   9.659  17.652   5.375 -0.0912  0.1211 -0.4059
22045W        W38519  10.769   7.717   5.338 -0.0078  0.0834 -0.2801
22046W        W38520   3.267  11.904  16.117  0.0767  0.1781  0.2436
22047W        W38521   8.422   7.826   0.805 -0.4387  0.2618 -0.2006
22048W        W38522  12.997   9.254   0.037  0.1442 -0.0178  0.3407
22049W        W38523   3.440   4.811   6.053 -0.0457  0.1639  0.0017
22050W        W38524  17.202  11.975  15.217 -0.2540 -0.0443 -0.1341
22051W        W38525   6.699  12.114   3.634 -0.0617  0.0163 -0.2826
22052W        W38526  10.124  12.673   2.882  0.3495 -0.0325  0.1921
22053W        W38527  11.437   2.112   6.127 -0.0282  0.1151  0.0289
22054W        W38528   4.231  17.156  14.239  0.0940  0.1227 -0.0088
22055W        W38529  17.292  14.393  16.007 -0.0472 -0.0034  0.2041
22056W        W38530  17.124  10.037  15.621  0.0871 -0.0539  0.0019
22057W        W38531   1.794  14.446  11.716  0.3752 -0.1316  0.1142
22058W        W38532   2.133   9.002  11.235  0.2562 -0.0279 -0.2494
22059W        W38533   6.010  14.073   1.868  0.0390 -0.1845 -0.0480
22060W        W38534   1.161  15.162  11.456 -0.0321  0.0675 -0.1694
22061W        W38535   7.602   7.980  15.927  0.1141  0.0369 -0.1453
22062W        W38536   1.201   1.788   6.078 -0.1984  0.1280 -0.0439
22063W        W38537  12.643   1.627  14.772  0.2401  0.0143  0.0969
22064W        W38538   2.643   9.587  12.051 -0.0410 -0.0948 -0.2032
22065W        W38539   5.318   9.311  11.816  0.1917  0.0872  0.2196
22066W        W38540   7.543  12.228   1.159 -0.0039  0.1756  0.0558
22067W        W38541   7.507   5.794  14.633  0.2873  0.0065  0.2148
22068W        W38542  11.011   3.154  11.874 -0.1909  0.0379  0.1890
22069W        W38543  14.813  15.961   3.588 -0.0921 -0.0061 -0.2653
22070W        W38544   4.582   3.722  12.157 -0.1117  0.0604  0.3085
22071W        W38545   7.030  10.294  12.719  0.0306  0.0082 -0.0836
22072W        W38546   4.596   2.975   5.544  0.0912  0.0790  0.1760
22073W        W38547   3.152   8.837   4.506  0.0797 -0.1867  0.3614
22074W        W38548  11.057  12.541  11.999  0.3281 -0.2117 -0.3034
22075W        W38549   5.402   5.782   0.451  0.0036 -0.0991  0.0572
22076W        W38550  16.018   7.940   4.256 -0.0662  0.0223  0.1191
22077W        W38551   2.230  12.822   2.315  0.1246  0.1191 -0.0951
22078W        W38552   2.618   9.775   4.606  0.0292 -0.1932  0.1594
22079W        W38553  13.996   1.460   2.405 -0.0464 -0.0221  0.0801
22080W        W38554   1.288  13.089  14.912 -0.1035  0.2188 -0.0113
22081W        W38555  12.848   6.996  16.022  0.0347  0.0990  0.0445
22082W        W38556  18.040   6.265   5.278 -0.1337  0.2863 -0.1066
22083W        W38557  15.209   8.725  14.535  0.0984  0.0841  0.0928
22084W        W38558   0.386   1.609   3.928  0.1740  0.0305 -0.1521
22085W        W38559  17.884   8.825  13.591  0.2850  0.2379  0.0079
22086W        W38560   5.868  15.587   4.549  0.0083 -0.1969 -0.2442
22087W        W38561   0.261  13.089  16.235 -0.2110 -0.0174  0.3364
22088W        W38562   1.937  16.676   1.576 -0.1258  0.1569  0.0276
22089W        W38563   9.449   5.927   4.787 -0.0377 -0.3798  0.0954
22090W        W38564  14.449   9.856   6.038 -0.3846 -0.1759  0.0034
22091W        W38565   7.274   2.475  12.586  0.2638 -0.2453 -0.0636
22092W        W38566   6.403   7.438  11.147 -0.1724 -0.2704 -0.0064
22093W        W38567  15.112   6.935   4.072 -0.1098 -0.2079  0.1857
22094W        W38568   5.850   1.666  13.752 -0.0859  0.1235 -0.1037
22095W        W38569   1.038   1.258  15.439 -0.1962  0.2484 -0.1186
22096W        W38570   2.860   0.778  13.320 -0.3108  0.3152  0.1371
22097W        W38571   1.183   8.617   1.816  0.1873 -0.2483 -0.0177
22098W        W38572   1.510  11.232   0.029 -0.0408 -0.0906 -0.1315
22099W        W38573  16.168  16.819  14.552  0.0995  0.2489 -0.2524
22100W        W38574   5.671  18.021  11.080 -0.0523  0.1965  0.1030
22101W        W38575   2.488   5.924   0.397  0.1529  0.1941  0.0757
22102W        W38576   6.994   8.702  14.219 -0.5962  0.0411 -0.1965
22103W        W38577  17.642   9.696  14.009 -0.1557 -0.0580 -0.0704
22104W        W38578   6.598   3.806   0.760  0.0158  0.2129  0.0579
22105W        W38579   0.488   0.214   4.686 -0.0073  0.0828 -0.0906
22106W        W38580   7.196  10.025   1.097  0.2297 -0.1264 -0.0709
22107W        W38581   2.578  18.022   4.523 -0.0196  0.4003  0.1446
22108W        W38582  10.820   9.348  10.809 -0.0473 -0.0575  0.1089
22109W        W38583   2.550  13.147   2.179 -0.1767  0.1092  0.1538
22110W        W38584   3.199   8.982   2.574 -0.2007  0.0773  0.0812
22111W        W38585  11.565   8.647   0.124  0.0799  0.3951  0.2143
22112W        W38586   5.021  15.941  13.952 -0.4346 -0.0094 -0.0398
22113W        W38587   4.272   9.601   4.275  0.0352 -0.2122  0.0607
22114W        W38588   3.415   4.021  13.611  0.3460 -0.2915  0.0138
22115W        W38589   1.349   9.337  12.811  0.0628  0.1459 -0.1176
22116W        W38590  11.222  13.021  11.301  0.0538 -0.2312 -0.2816
22117W        W38591  17.585   8.217   2.176  0.1354  0.3051  0.2356
22118W        W38592  14.467   5.016   2.256 -0.2698 -0.3061  0.0363
22119W        W38593  17.583   4.529  13.749  0.3970  0.1081  0.1967
22120W        W38594  15.237  12.508   0.743 -0.0435 -0.2629  0.0028
22121W        W38595   0.507   8.384   2.256  0.0810  0.1845 -0.4385
22122W        W38596  12.205  15.626  16.175 -0.0923 -0.0596 -0.1241
22123W        W38597  10.775   6.394   3.594  0.1058  0.4305  0.0586
22124W        W38598   4.821   1.184   4.866 -0.0252  0.1842 -0.1736
22125W        W38599  14.134   4.980  13.363  0.2268 -0.3420  0.1153
22126W        W38600   6.233   3.289  14.413 -0.0037 -0.0326 -0.2283
22127W        W38601   5.559  13.572   3.303  0.1715  0.1816 -0.0241
22128W        W38602   4.429  12.062  14.471 -0.2301 -0.0985  0.1608
22129W        W38603   3.396   5.546  13.743  0.2640 -0.0322 -0.0950
22130W        W38604  17.092  15.448   3.140 -0.1864  0.0515  0.4082
22131W        W38605  10.226  13.186   0.045  0.0435 -0.3879  0.3571
22132W        W38606  12.430   7.692  12.136  0.0953  0.2345 -0.2652
22133W        W38607  15.478   3.631   4.260 -0.1337  0.1003  0.0232
22134W        W38608   8.373  11.746  14.018  0.0384 -0.0447  0.2084
22135W        W38609  15.737  15.446  13.693  0.3235  0.2860 -0.2611
22136W        W38610   2.941  13.834  15.594  0.1046  0.1019 -0.0217
22137W        W38611   4.241   3.505  15.283  0.0408 -0.1641  0.1112
22138W        W38612   6.875   2.898   0.187 -0.2775  0.1161 -0.0933
22139W        W38613   6.423   4.407  16.223 -0.2169 -0.2747  0.1693
22140W        W38614  16.126  13.722   0.130 -0.0304  0.0256  0.0581
22141W        W38615   8.983   5.724   4.967  0.0211  0.0752 -0.1872
22142W        W38616  13.607   8.962  12.242 -0.1184 -0.1186 -0.1010
22143W        W38617  14.932   1.692   3.953  0.1410  0.0241  0.2824
22144W        W38618   0.849  11.573  11.539 -0.0358 -0.1864  0.2343
22145W        W38619   9.441   9.865  16.064  0.0011  0.0850  0.1914
22146W        W38620  14.250  15.712  11.373  0.2139 -0.0255 -0.1800
22147W        W38621  10.068  15.965   0.442  0.1183 -0.1615 -0.0859
22148W        W38622  13.107   2.979  13.464  0.0695 -0.1132  0.1093
22149W        W38623   7.632  17.892  13.956 -0.5113  0.1980  0.0180
22150W        W38624  11.887   6.396   4.359  0.1241  0.0026  0.0584
22151W        W38625  17.608  17.923   9.951  0.1352  0.0918  0.0567
22152W        W38626   0.003   1.939   2.901  0.1332  0.1142 -0.2279
22153W        W38627   3.783   3.402   2.923 -0.2358 -0.1130  0.3552
22154W        W38628  16.406  14.311  11.582 -0.1830 -0.0549  0.1405
22155W        W38629  11.864   8.946  11.040  0.4695  0.1831  0.0774
22156W        W38630   6.243  16.344   5.039  0.0637  0.0205 -0.4070
22157W        W38631   7.148   2.307   1.755  0.0010  0.1234  0.0800
22158W        W38632  17.374   9.681  11.601 -0.2646 -0.0726  0.2091
22159W        W38633   0.195   7.728  16.188  0.2212  0.0333  0.0284
22160W        W38634   1.757   7.844  16.188  0.0659  0.2738  0.1404
22161W        W38635  12.761   7.951   3.231 -0.0526 -0.1800 -0.2723
22162W        W38636  13.645  13.980  13.056 -0.1984  0.1655 -0.2251
22163W        W38637  10.214   6.046  11.762  0.0972 -0.1420  0.1711
22164W        W38638  12.200  15.867   4.566 -0.1390 -0.0116 -0.2125
22165W        W38639  11.764   9.305   5.494  0.0079 -0.2946  0.2097
22166W        W38640   2.425   8.974   3.044 -0.3053  0.2023  0.1355
22167W        W38641   0.900   2.457  11.682  0.0250 -0.2094 -0.0902
22168W        W38642  10.247  11.366  14.316 -0.1769 -0.3583 -0.3661
22169W        W38643   0.147   5.945  10.995 -0.0196 -0.1700  0.0786
22170W        W38644  17.741  14.245  11.394  0.3041 -0.0665 -0.1184
22171W        W38645   3.494  17.510   1.719  0.0741 -0.0613 -0.2595
22172W        W38646   8.051   0.709  12.733  0.3025 -0.0337 -0.2650
22173W        W38647   1.223   8.449  14.047 -0.0400  0.0698  0.2325
22174W        W38648   1.868   4.373   1.567 -0.3376  0.2157  0.3120
22175W        W38649  16.406   5.268  12.844  0.0424 -0.0356 -0.1311
22176W        W38650  14.447   7.707  15.126  0.1310 -0.0179 -0.0356
22177W        W38651  16.913  12.695   4.288 -0.0014 -0.0837 -0.2013
22178W        W38652  18.101   1.754  11.374  0.1698 -0.1544 -0.1470
22179W        W38653  16.860  17.357  12.949 -0.3799 -0.0447  0.1707
22180W        W38654   6.737  17.242   4.700 -0.2701  0.1489 -0.0173
22181W        W38655   5.385   9.198  10.463 -0.3625 -0.1662  0.2652
22182W        W38656   5.132  14.403   4.266 -0.2859  0.0703  0.0204
22183W        W38657   9.890  17.013  11.702  0.2190  0.1433  0.0592
22184W        W38658   5.485   7.338  14.374 -0.0204  0.0348 -0.2498
22185W        W38659   4.178   2.154  13.469  0.1947 -0.0398 -0.0381
22186W        W38660  15.428   6.320  13.943 -0.0996 -0.0917  0.1291
22187W        W38661  15.173  14.227  15.790 -0.0150  0.3714 -0.0499
22188W        W38662  14.011   9.741  15.595 -0.2475 -0.2517 -0.0727
22189W        W38663   9.799   4.011   2.057  0.2237  0.2800  0.0884
22190W        W38664  13.574  14.461   5.743 -0.0853 -0.1314 -0.0569
22191W        W38665  10.753  10.889  14.450  0.0338  0.0041  0.0711
22192W        W38666   1.303   2.376   3.168  0.2223  0.0166  0.3284
22193W        W38667   8.493  16.107   1.845  0.0363  0.0849  0.1123
22194W        W38668  14.205   8.515  14.285  0.0754  0.0104 -0.0324
22195W        W38669   4.501   9.179  15.282 -0.0666 -0.0216 -0.0216
22196W        W38670  17.535   7.792  16.291  0.1454  0.5703 -0.0794
22197W        W38671  15.672   3.690   2.629  0.1699  0.2578 -0.2880
22198W        W38672  15.543   8.571  11.236 -0.0934 -0.2554  0.1770
22199W        W38673  17.367   4.785   4.316 -0.0240  0.0397  0.0502
22200W        W38674   2.018   6.379   1.383  0.0053  0.2011 -0.4137
22201W        W38675   3.160  12.147  13.929  0.2025  0.2141  0.4499
22202W        W38676  12.674  12.058  13.540 -0.1429  0.2712 -0.0966
22203W        W38677   5.498  17.418   2.083  0.1945  0.0320 -0.3506
22204W        W38678   0.019   5.800   0.347  0.0730 -0.0731 -0.2341
22205W        W38679  16.534   6.935  11.991  0.3558  0.1952 -0.0186
22206W        W38680   1.516   5.505  15.959  0.1525 -0.3007  0.0905
22207W        W38681  11.583  14.958  16.274 -0.0521  0.0797  0.0566
22208W        W38682  15.514  12.780   2.887 -0.0311  0.1915 -0.2885
22209W        W38683   7.495   2.739  14.404 -0.5040 -0.0531 -0.0001
22210W        W38684  10.302  14.242   0.881  0.3229  0.1015  0.3910
22211W        W38685   6.580  10.451  11.102  0.1805  0.1620 -0.1736
22212W        W38686   2.388  17.260   4.221  0.1602  0.0553  0.1755
22213W        W38687   2.141   0.601  16.017 -0.1963 -0.3099 -0.1832
22214W        W38688   3.006   0.604   2.949  0.1753 -0.1107 -0.5143
22215W        W38689   7.356  13.188  11.308 -0.3483  0.1886 -0.3329
22216W        W38690  16.931  10.844  16.308 -0.0532  0.3033 -0.3425
22217W        W38691   7.052  14.453   1.687 -0.1808  0.2012 -0.2079
22218W        W38692   8.956  17.902   2.784  0.0607  0.2915  0.0176
22219W        W38693  10.806   1.594  11.777 -0.1313  0.3614 -0.1438
22220W        W38694   9.597  13.665  13.084  0.0748 -0.0208  0.3137
22221W        W38695  12.399  17.895   1.915 -0.4586  0.0221 -0.1979
22222W        W38696  17.484  12.979  13.458  0.0392  0.1075  0.1183
22223W        W38697  13.705  13.795   3.607 -0.0422 -0.0947  0.0052
22224W        W38698  10.920  16.083   5.018 -0.0958 -0.3985 -0.0153
22225W        W38699   5.947   9.844   1.427 -0.0890  0.1228  0.1676
22226W        W38700   4.216   3.041   4.279 -0.2465  0.1236 -0.1359
22227W        W38701  15.225   3.788  12.569  0.2853  0.2324  0.0642
22228W        W38702  15.112   2.130   0.096  0.0260 -0.0486 -0.2492
22229W        W38703  13.651  11.558  15.666 -0.0545 -0.0669 -0.0293
22230W        W38704   4.069  16.728   1.353 -0.2379 -0.2926 -0.0855
22231W        W38705  14.663  11.760  15.692  0.2780  0.1378  0.2026
22232W        W38706   1.746   9.928  12.080  0.0959 -0.0667  0.1469
22233W        W38707   2.786  10.990  11.388 -0.3666  0.3096  0.0016
22234W        W38708  13.749  10.886  12.954 -0.0716 -0.2447 -0.1090
22235W        W38709  14.449  14.297  15.104  0.1213  0.0505  0.1501
22236W        W38710   6.665   5.702  11.971  0.0983  0.0008  0.0227
22237W        W38711  14.931   1.626  14.307  0.0747  0.0028  0.0463
22238W        W38712  16.581  16.195   3.820  0.1058 -0.1718  0.2398
22239W        W38713   8.012  15.011  12.890 -0.1318 -0.1407  0.2150
22240W        W38714  10.614  10.193  12.763  0.1787 -0.3407 -0.2078
22241W        W38715  12.769   3.246  16.157  0.4461 -0.0105  0.0469
22242W        W38716  13.210   5.617  12.663 -0.3138  0.1042  0.0015
22243W        W38717  11.803   3.375  13.502 -0.1464  0.4196 -0.1136
22244W        W38718  13.180  11.870  12.346 -0.0525 -0.0578  0.0440
22245W        W38719  13.702  10.898  13.653  0.2603  0.2913  0.0861
22246W        W38720  17.033   6.259   3.222  0.1046  0.1108  0.2172
22247W        W38721  17.825   2.853   4.627  0.1010  0.0663  0.0057
22248W        W38722  17.428   3.413   2.772  0.0679 -0.0320  0.1910
22249W        W38723   6.104  11.645  13.091  0.0782  0.1522 -0.1166
22250W        W38724  17.747   2.424   5.977 -0.2153 -0.0404 -0.0696
22251W        W38725   5.939   2.595   4.362  0.0191  0.0897  0.1016
22252W        W38726  13.204   6.900  14.366  0.0609 -0.2364  0.1559
22253W        W38727   4.430   4.004  14.783 -0.1529 -0.0873 -0.1559
22254W        W38728   7.061  13.531  13.304 -0.1250  0.0168  0.1600
22255W        W38729   4.043  16.156  13.167 -0.0056 -0.1240 -0.0199
22256W        W38730  10.313   9.257   0.424  0.2054  0.0561  0.2045
22257W        W38731   5.522   4.871   2.626 -0.2461 -0.0494 -0.0384
22258W        W38732   2.553   5.153   5.209 -0.0683 -0.0654 -0.1714
22259W        W38733  14.608   4.766  14.791  0.1977 -0.0167  0.0425
22260W        W38734   1.523  16.817  13.297 -0.0434  0.2121  0.2080
22261W        W38735  15.099  14.729   4.945 -0.0142  0.0946  0.1217
22262W        W38736  16.409   7.843   1.105  0.1114 -0.2384 -0.0380
22263W        W38737  16.315   7.628   1.630  0.2683 -0.0110  0.0649
22264W        W38738  14.704  15.936   6.126  0.1239  0.0069 -0.0649
22265W        W38739  11.743   0.958  15.457  0.2654 -0.1259  0.2979
22266W        W38740   2.679   1.490  12.093 -0.1517  0.1570 -0.1300
22267W        W38741   5.053   9.771  12.580 -0.0733 -0.0088  0.2687
22268W        W38742  13.611   3.790  12.315  0.0362 -0.0802  0.0129
22269W        W38743  14.397   0.566   0.986  0.1040 -0.1511 -0.1201
22270W        W38744  15.824  12.990   3.207  0.0977 -0.0997  0.3256
22271W        W38745  10.010   1.009   2.147  0.1546  0.3631 -0.2965
22272W        W38746   1.506   8.965   5.260  0.0638  0.3373 -0.0357
22273W        W38747  10.056  16.501  11.864  0.1031 -0.1245 -0.0984
22274W        W38748   9.288  16.745   4.647  0.0195 -0.3429  0.0225
22275W        W38749  12.492   3.259  12.986 -0.0544  0.1268  0.0960
22276W        W38750   1.468  10.905   4.582 -0.1116 -0.0631  0.0096
22277W        W38751   9.809  11.790   3.842 -0.1819  0.2425 -0.1880
22278W        W38752   8.311  10.527   0.010  0.0787  0.0698  0.2338
22279W        W38753   8.699   0.337  10.739  0.1529  0.2953 -0.0939
22280W        W38754   7.306  16.738   4.146 -0.1539  0.1327 -0.1148
22281W        W38755   9.506   7.033   0.366  0.0755 -0.3270  0.1672
22282W        W38756  12.697  10.434  15.039  0.1071 -0.0350 -0.0638
22283W        W38757   7.927  15.005  15.188  0.1287 -0.1932 -0.2491
22284W        W38758  17.125  18.172   4.555 -0.0520 -0.1992 -0.1130
22285W        W38759  17.031   1.791  15.114  0.3308 -0.1274 -0.1836
22286W        W38760  17.260  14.098  14.742 -0.1119  0.0272 -0.2546
22287W        W38761  14.799   5.067   4.935 -0.1491  0.3046  0.0796
22288W        W38762   3.691   7.829   2.293 -0.1708 -0.1738  0.1338
22289W        W38763   6.677   4.032   1.243  0.1213 -0.2358  0.0273
22290W        W38764   3.819   9.978   4.454 -0.2048  0.0177 -0.1114
22291W        W38765  16.082  13.346  15.995 -0.1386  0.0232  0.1246
22292W        W38766  11.686   1.330  13.399  0.0457  0.0330  0.0101
22293W        W38767   2.642   8.488  15.279  0.2538 -0.0180  0.0513
22294W        W38768   1.293   8.714  14.465  0.3880 -0.2509  0.3537
22295W        W38769  17.406   4.085   2.262 -0.4374  0.1061 -0.1680
22296W        W38770  15.868   8.328  16.253  0.3087  0.1706 -0.2171
22297W        W38771  17.466   7.274  15.541  0.3396  0.3478 -0.3362
22298W        W38772  15.330  17.012  12.996 -0.0984 -0.1841 -0.3928
22299W        W38773   9.388  17.840   6.468 -0.3792 -0.2447 -0.1470
22300W        W38774  13.183  13.336  12.529 -0.0615 -0.1851 -0.0461
22301W        W38775   7.982   4.707  15.611 -0.1232  0.0167 -0.3829
22302W        W38776   9.310   7.716   5.005 -0.1770 -0.2012 -0.0281
22303W        W38777   6.239  13.872  15.353 -0.0096 -0.2974 -0.1012
22304W        W38778  17.864  17.756   2.661 -0.1221  0.0101  0.0685
22305W        W38779   4.420   4.129  11.888  0.0172  0.1737 -0.3456
22306W        W38780  12.595  15.780  15.782 -0.2363  0.2136  0.0859
22307W        W38781   2.065  16.871  13.009 -0.2317 -0.2028 -0.0551
22308W        W38782   0.719   9.953   4.352  0.1371 -0.1460 -0.1997
22309W        W38783   1.197  12.921  13.413 -0.2196 -0.1221  0.0031
22310W        W38784  11.044   1.693   4.134 -0.1475 -0.1227 -0.1629
22311W        W38785   9.957  14.984   6.322 -0.1713  0.2849  0.0042
22312W        W38786  14.605  12.662   2.670 -0.0385  0.2762  0.1447
22313W        W38787  13.058  12.699  13.632 -0.1593 -0.0559  0.1348
22314W        W38788   8.164  13.704  12.414 -0.0309  0.0010 -0.1373
22315W        W38789  12.109   9.942   3.459  0.0945  0.3786  0.1000
22316W        W38790  17.861   0.466   3.623 -0.0563 -0.3125 -0.0645
22317W        W38791   4.435   6.925  12.099 -0.1177  0.1577 -0.0969
22318W        W38792   6.179   8.413  14.133 -0.2239 -0.1207 -0.3818
22319W        W38793  11.615  13.272   0.347 -0.0391 -0.2486 -0.2130
22320W        W38794   2.693   1.283   2.528 -0.1695  0.0070 -0.0827
22321W        W38795   7.436   3.812  12.527  0.2872 -0.4500  0.1156
22322W        W38796  13.591   4.499  15.011 -0.1277 -0.0055  0.3242
22323W        W38797  14.944   5.320  11.158 -0.1794  0.0233 -0.1415
22324W        W38798  13.118  16.988   6.104  0.1960 -0.1791  0.0354
22325W        W38799   6.460  16.835   3.710  0.4639  0.1510  0.0688
22326W        W38800  13.965   9.576   0.496 -0.2586 -0.2603 -0.0393
22327W        W38801   9.915  15.985   1.885 -0.0035 -0.0291 -0.0098
22328W        W38802   7.200   7.635   3.094  0.2041 -0.0552  0.0282
22329W        W38803   9.273  17.354   4.000  0.1785 -0.1192 -0.2409
22330W        W38804   4.436   1.745   3.122 -0.0733 -0.0959  0.1379
22331W        W38805  12.754  16.099   6.237  0.0777 -0.0851  0.2422
22332W        W38806   9.734   1.571  12.262  0.1730  0.3330  0.2571
22333W        W38807   8.026  10.811   0.594 -0.0543 -0.1599 -0.1182
22334W        W38808   4.252  10.888  14.281  0.3754 -0.2580 -0.0353
22335W        W38809   3.715  15.880   1.729 -0.1848  0.1963  0.0446
22336W        W38810   2.598   8.276  12.303 -0.1999 -0.3022  0.0415
22337W        W38811  16.668   2.669   2.310 -0.2371  0.1028 -0.0192
22338W        W38812   8.089  16.903  16.045 -0.0868  0.1139  0.0173
22339W        W38813  14.756  15.813   4.541 -0.2357  0.2123 -0.0398
22340W        W38814  12.838   0.472  14.427 -0.4924  0.1000 -0.0807
22341W        W38815  15.291   4.984   5.791  0.1426  0.1450 -0.1555
22342W        W38816   7.581   1.011  12.949 -0.3504  0.1692  0.1199
22343W        W38817  15.328   1.226  12.282  0.0162  0.0293  0.1668
22344W        W38818   0.891   4.432   4.630  0.1678 -0.0646 -0.1789
22345W        W38819   7.898  12.398   0.143 -0.2004  0.0249 -0.0790
22346W        W38820   4.929  16.057  12.772 -0.2266 -0.0160  0.0621
22347W        W38821  15.793  12.189  11.969 -0.1032 -0.1548 -0.1131
22348W        W38822   8.309  14.303   2.216  0.0391  0.1052 -0.0157
22349W        W38823  12.825  17.179  12.896  0.4998  0.2226  0.1206
22350W        W38824  15.266   7.399   5.227  0.0147 -0.0864  0.3767
22351W        W38825   2.956  12.536  11.993 -0.1026  0.0469 -0.0683
22352W        W38826  14.104  13.542   0.266  0.1748 -0.1738  0.1414
22353W        W38827   8.838  16.339  13.817  0.2342 -0.0137 -0.2352
22354W        W38828   4.515   2.817  11.487  0.0323 -0.0791 -0.0274
22355W        W38829  15.122  16.661   0.898 -0.0288  0.1171 -0.0169
22356W        W38830   0.756   2.703  12.941  0.2676  0.0069  0.0094
22357W        W38831   1.607   9.429  15.693  0.2382 -0.1326 -0.1275
22358W        W38832   1.898  15.297  14.968 -0.1733 -0.0784  0.0966
22359W        W38833  12.684   5.085   0.405  0.0656 -0.1434 -0.2298
22360W        W38834  15.172  11.827   4.991 -0.1122  0.0337  0.0816
22361W        W38835   7.984   4.795   0.791 -0.1503  0.2222 -0.1960
22362W        W38836  14.609  14.942  12.974 -0.0863  0.0794  0.0517
22363W        W38837  12.267   3.928  13.625  0.2318  0.0672  0.0597
22364W        W38838   9.757   1.104   1.661  0.2846 -0.0574 -0.0636
22365W        W38839  14.805   2.349  14.859 -0.1711  0.0499 -0.2922
22366W        W38840  14.139   9.244  12.339 -0.0265  0.1645 -0.1633
22367W        W38841   2.389   6.587   3.893  0.0217 -0.1008  0.0187
22368W        W38842  13.476   9.321  15.351  0.1710  0.0205 -0.2095
22369W        W38843  17.105  17.870  14.429 -0.0315 -0.3447 -0.0729
22370W        W38844  10.195   6.052  14.109 -0.3179  0.2913 -0.1694
22371W        W38845  16.690   5.091   1.300  0.0094  0.0152  0.2048
22372W        W38846  11.938  11.802  14.148  0.0879 -0.0104 -0.4426
22373W        W38847   3.935  16.424   1.799  0.0603  0.0697  0.1417
22374W        W38848  12.478  14.869   5.566 -0.0047 -0.0567 -0.0413
22375W        W38849  15.754  11.238   4.961  0.1625  0.0833  0.0201
22376W        W38850   7.580   5.096   4.531  0.2188 -0.0771  0.1565
22377W        W38851  16.918   7.198  13.634 -0.2801 -0.1684 -0.0546
22378W        W38852  15.085  16.777  14.347  0.0669  0.1528 -0.2656
22379W        W38853   6.822   0.701  14.546 -0.0092  0.0274 -0.0756
22380W        W38854   3.679   7.381  13.005  0.0653 -0.1213  0.0717
22381W        W38855   0.721  16.436   4.439  0.1963  0.1550 -0.0562
22382W        W38856   5.794   7.627   1.879 -0.1912 -0.1985 -0.1717
22383W        W38857  10.377   4.963   1.222 -0.0855 -0.0241 -0.0365
22384W        W38858   8.940  11.277  11.798 -0.2174 -0.4126  0.1123
22385W        W38859  11.670   3.949   2.157  0.0240 -0.0781  0.0025
22386W        W38860   2.287  14.287   4.418 -0.0631  0.1004 -0.4625
22387W        W38861  11.594  18.057   2.265  0.1662 -0.0329  0.0695
22388W        W38862   7.026   9.218   3.092 -0.0372 -0.0072  0.0281
22389W        W38863   0.907  17.115  12.209 -0.0046 -0.1610  0.0832
22390W        W38864  15.092   3.857  15.269  0.1124  0.2458  0.0229
22391W        W38865   7.758   9.403   4.688  0.0864  0.0849  0.1471
22392W        W38866   4.453   6.550  15.397 -0.0587  0.0542 -0.0294
22393W        W38867   7.822   5.480  15.620  0.0451 -0.2218 -0.0524
22394W        W38868  15.590   1.585  14.272  0.0559  0.1661 -0.2276
22395W        W38869   8.957  14.921  13.398  0.3116 -0.2373  0.0139
22396W        W38870   4.439  14.674   1.324 -0.0507  0.0094  0.1523
22397W        W38871  14.422   5.771   1.733  0.1794 -0.3274 -0.1361
22398W        W38872  14.802   3.484  15.124  0.2544 -0.2655  0.0059
22399W        W38873   9.694   4.590   2.756 -0.0772 -0.0174 -0.1721
22400W        W38874   2.758  14.589  14.333  0.4299  0.3678 -0.0836
22401W        W38875   9.337  14.334   4.726 -0.0693  0.1069 -0.1107
22402W        W38876   1.704   2.046   4.445  0.0477 -0.2413  0.1395
22403W        W38877   8.824   7.284   2.086  0.1284  0.0757  0.0172
22404W        W38878  13.401   6.771   1.151 -0.1830 -0.1019  0.0817
22405W        W38879   1.768   7.878  11.188 -0.1155  0.1904  0.1159
22406W        W38880  13.835   5.585  16.006  0.1508 -0.1006 -0.0216
22407W        W38881   5.906  13.851  14.925 -0.1691 -0.3131 -0.1109
22408W        W38882   6.908  17.586  12.429 -0.2742  0.1541  0.0086
22409W        W38883   8.873  11.825  14.457 -0.1924  0.2780 -0.2494
22410W        W38884  14.993   4.589   4.963 -0.0523 -0.1887  0.0117
22411W        W38885  16.994   7.018  11.792 -0.2740  0.2021 -0.0938
22412W        W38886  11.451  13.971  11.793  0.0079 -0.2335  0.0604
22413W        W38887  13.448   7.490  13.842 -0.0888  0.1823  0.0101
22414W        W38888  16.520  14.844  11.562 -0.1517  0.0804 -0.0846
22415W        W38889  17.048   7.815  13.066 -0.0981  0.0484 -0.2892
22416W        W38890   0.439   1.331  13.981 -0.2412 -0.0196 -0.1198
22417W        W38891   0.498   3.151   4.518  0.1008 -0.1837 -0.2107
22418W        W38892  15.575   9.368  11.422  0.0810 -0.2778  0.3043
22419W        W38893   8.633   2.304   5.497  0.0564 -0.0250 -0.3506
22420W        W38894   6.139   9.968   4.656 -0.1366  0.1631  0.0753
22421W        W38895   7.952  14.052  12.786  0.3426  0.0767  0.0777
22422W        W38896  12.555   2.688   4.334 -0.1251  0.0360  0.1162
22423W        W38897  10.509   9.957   5.591  0.0843 -0.0921  0.3967
22424W        W38898   3.617   2.390  11.528 -0.2617 -0.2701  0.3061
22425W        W38899   8.396   6.886   4.213  0.1661  0.0739 -0.1600
22426W        W38900  12.940  12.807   2.212 -0.0447  0.0968 -0.0877
22427W        W38901  11.917   9.454   0.953  0.0406 -0.0280  0.1059
22428W        W38902   1.261   5.865   2.744  0.0368 -0.0518  0.0613
22429W        W38903   7.126  15.121  13.173  0.0496 -0.2279 -0.2626
22430W        W38904  11.981   8.455  14.549 -0.0884 -0.1166  0.3326
22431W        W38905   2.897   8.674  15.727  0.0405 -0.1244 -0.6100
22432W        W38906  14.862  14.890  13.748 -0.0365 -0.1181  0.2180
22433W        W38907   1.320   7.536   1.935 -0.1637 -0.0790 -0.0798
22434W        W38908   6.573   5.364  11.497  0.1409 -0.2241 -0.0559
22435W        W38909   0.665  15.776  12.712  0.1071 -0.2143  0.2211
22436W        W38910  14.554  14.875  11.630 -0.0275  0.2098  0.0322
22437W        W38911   4.138  15.829  12.759  0.2531 -0.2428  0.2449
22438W        W38912   6.105   4.537  15.344  0.1589  0.1072  0.2069
22439W        W38913   6.357  10.067   5.251  0.0257 -0.0558 -0.1372
22440W        W38914   4.613   4.031   5.231 -0.0953  0.1669  0.0349
22441W        W38915  10.906   0.840  15.128 -0.0107  0.0148  0.0729
22442W        W38916   0.176   9.929   4.407 -0.0715  0.1530  0.1809
22443W        W38917   5.269  17.633   4.118  0.0637  0.0307 -0.2779
22444W        W38918   9.760  15.378   5.065  0.2167 -0.0568 -0.1468
22445W        W38919   0.867   8.875  14.072  0.1278  0.0875 -0.1170
22446W        W38920  16.012  15.880  14.782 -0.2117 -0.1897  0.2082
22447W        W38921   9.111  11.024   2.256  0.2540 -0.0529  0.0484
22448W        W38922  15.045   4.311   2.076 -0.0420  0.0334 -0.0257
22449W        W38923   8.367  10.644  14.085 -0.0487  0.1841  0.0284
22450W        W38924   2.453   2.230   5.291 -0.0622  0.0973 -0.0120
22451W        W38925  15.435  16.457   0.079 -0.2117  0.0743  0.1501
22452W        W38926   1.877   6.798  12.323  0.0968  0.0250 -0.0017
22453W        W38927   9.248   6.185  13.249 -0.1435  0.0513 -0.1466
22454W        W38928  14.574   4.700   0.627  0.2162 -0.0681 -0.2344
22455W        W38929   5.329  16.420  11.042 -0.1184  0.1289 -0.1785
22456W        W38930  11.691   1.818  13.215 -0.0120 -0.1700 -0.2477
22457W        W38931   3.268  14.136  11.779 -0.0514  0.1305 -0.0924
22458W        W38932   5.243  12.458  12.956 -0.0063  0.0196  0.1860
22459W        W38933  16.252  17.288   5.344  0.1552 -0.2663 -0.2842
22460W        W38934   2.226   9.618   0.256 -0.1463 -0.1136  0.0308
22461W        W38935  14.032   8.051   3.551 -0.0410  0.2233 -0.0085
22462W        W38936   1.740  14.583   1.117 -0.0358  0.0124  0.1965
22463W        W38937   6.262   9.074  12.539 -0.0493 -0.1179  0.1333
22464W        W38938  11.110  12.500   2.681 -0.0485  0.0299 -0.1005
22465W        W38939   5.431   7.302   2.290 -0.2806 -0.0745  0.1371
22466W        W38940   6.485   2.166   3.580  0.1016  0.0265  0.1700
22467W        W38941   2.718   2.593  14.464 -0.1255 -0.1148  0.0166
22468W        W38942  11.215   4.093   2.125 -0.2096  0.4020 -0.0078
22469W        W38943  12.072   2.658   4.122  0.3550 -0.0207 -0.3685
22470W        W38944  15.852   1.859   3.506 -0.0511  0.0438  0.2053
22471W        W38945  15.851  14.412  13.661 -0.4417 -0.0880 -0.1836
22472W        W38946   5.706   2.547   3.122  0.0189 -0.1442 -0.0263
22473W        W38947   7.462  17.151  15.492  0.2518 -0.1824 -0.1116
22474W        W38948   9.957   9.184  12.615 -0.0811  0.1825 -0.0983
22475W        W38949  10.246   2.463   1.994 -0.0144 -0.0150 -0.0963
22476W        W38950  14.657  12.843   0.265 -0.1130 -0.1383  0.1744
22477W        W38951   6.294   3.975  11.974  0.0946 -0.3264 -0.0693
22478W        W38952  16.025  10.822   3.634  0.1928 -0.2050  0.0367
22479W        W38953   3.352  12.575   1.247 -0.2965  0.0137  0.0094
22480W        W38954  10.189  14.864  15.787  0.1487  0.1342  0.1563
22481W        W38955   5.910   6.759   5.038 -0.3727 -0.1588 -0.0383
22482W        W38956  13.717  18.163   3.845 -0.1951 -0.2081 -0.0205
22483W        W38957  11.921   6.988   2.643  0.0491 -0.1070 -0.0006
22484W        W38958   2.942   5.030  15.425  0.2401 -0.0211  0.1093
22485W        W38959  15.631   3.813  12.954  0.1412  0.3429 -0.1813
22486W        W38960  15.666   6.191  16.091  0.0726 -0.0575  0.2651
22487W        W38961   6.665  11.149  16.122  0.0089  0.0671 -0.0510
22488W        W38962   2.618   3.210  16.238  0.4035 -0.0339 -0.2056
22489W        W38963   4.599   8.877  14.847 -0.0326  0.0218 -0.1134
22490W        W38964  11.777   2.449   0.987 -0.0266  0.2877  0.0563
22491W        W38965   4.939  15.934   2.929 -0.1744 -0.0438  0.2901
22492W        W38966  11.996  15.698   3.754  0.2131  0.0465  0.3392
22493W        W38967   3.804   2.443  12.526 -0.1202  0.0248 -0.1260
22494W        W38968   7.193   7.161  14.197 -0.0197 -0.1354 -0.0471
22495W        W38969  12.981  14.629   4.471  0.0185  0.0695 -0.0921
22496W        W38970   4.030   3.407  11.859  0.1712  0.2003 -0.1193
22497W        W38971  14.760  17.671  14.105 -0.1893  0.1482 -0.1942
22498W        W38972  12.331  16.137  15.984 -0.0048 -0.3072  0.1326
22499W        W38973   5.119   1.402   4.099 -0.3057 -0.0867 -0.0778
22500W        W38974   1.416   5.208   1.375 -0.2324  0.1641 -0.0544
22501W        W38975  12.083   4.607   4.291  0.0483  0.1713  0.3030
22502W        W38976  14.323   0.926  12.700 -0.0703  0.1015 -0.2528
22503W        W38977   4.121  10.464  11.612 -0.0772  0.0048  0.1906
22504W        W38978  13.029   7.509  13.594 -0.0144 -0.1265 -0.0069
22505W        W38979   8.382   2.157  14.295  0.1079  0.1692 -0.1082
22506W        W38980   0.240   3.446  12.687  0.3191  0.2814  0.1138
22507W        W38981  12.927  17.389  13.769  0.0362  0.2045  0.2830
22508W        W38982   9.038   9.911  15.119  0.0077  0.0602 -0.0994
22509W        W38983  16.825  14.556  13.550 -0.1211 -0.0492 -0.4052
22510W        W38984  14.015  15.344   3.126 -0.0453 -0.2911 -0.1763
22511W        W38985  16.567  14.443   0.371 -0.4590  0.0714  0.0672
22512W        W38986   4.647   9.094   3.991 -0.0162 -0.1852  0.2206
22513W        W38987  16.731   9.372  14.937  0.3049 -0.1322 -0.0533
22514W        W38988  11.373   6.377  10.140 -0.0815 -0.3230 -0.2078
22515W        W38989  15.288  13.390   0.166  0.0572 -0.0867  0.1340
22516W        W38990   7.251   8.901   4.865  0.0176 -0.0545  0.2367
22517W        W38991   9.759   7.367   0.867  0.1773  0.0530  0.1853
22518W        W38992  16.153  11.627  14.456 -0.1774  0.1042 -0.0886
22519W        W38993   4.327  10.855  13.531  0.1394 -0.1948 -0.0609
22520W        W38994   0.037  15.565  12.969  0.0020  0.1795  0.1893
22521W        W38995  14.163   2.518   5.034  0.3223 -0.0079 -0.1863
22522W        W38996   5.764   5.580   4.593 -0.0635  0.1383  0.0145
22523W        W38997   3.471  16.536   4.804 -0.1556  0.1513 -0.1891
22524W        W38998   4.140   6.603  12.339  0.0573  0.0662 -0.3526
22525W        W38999  10.878   6.666   3.149 -0.2382 -0.3196  0.0106
22526W        W39000  10.380  12.243  14.352 -0.2337  0.1988  0.0680
22527W        W39001   4.500   2.438   3.582  0.1282  0.1879  0.0829
22528W        W39002  17.168   4.855   0.097  0.2173  0.1763  0.1270
22529W        W39003  11.250   0.499   0.183  0.0220 -0.2438 -0.0963
22530W        W39004  16.062   6.410  12.797 -0.2648 -0.0107 -0.1106
22531W        W39005   7.183   1.295  15.253  0.3620  0.1842 -0.2217
22532W        W39006   1.788   1.478  11.459 -0.1468 -0.1022 -0.0608
22533W        W39007   2.438  13.245   0.442 -0.0423 -0.1233  0.1834
22534W        W39008   3.543   2.483   0.830 -0.0069  0.0409  0.2321
22535W        W39009  10.788   6.500  13.495  0.0839  0.2204  0.2066
22536W        W39010   5.083   3.056   5.774  0.0685  0.0942  0.3083
22537W        W39011  13.451  17.211  16.319  0.1912  0.0125 -0.0128
22538W        W39012   1.555   0.737   5.917 -0.0863  0.4314  0.0048
22539W        W39013   4.594  11.375   3.371  0.0268  0.3063  0.3262
22540W        W39014   6.564  18.127  15.474  0.0467  0.0714 -0.1149
22541W        W39015   0.013  10.550   2.186  0.0955 -0.2544  0.1074
22542W        W39016  17.278  13.702   3.642 -0.2151  0.3168  0.0339
22543W        W39017   0.245   4.926   4.662  0.0237 -0.2807  0.2010
22544W        W39018   1.583  14.117  12.784  0.0772 -0.1519  0.0442
22545W        W39019   2.225   2.496  12.006  0.2526  0.2642  0.0104
22546W        W39020   9.156  13.083   4.840 -0.1940 -0.0093  0.1310
22547W        W39021  16.125   1.418  15.627 -0.0234  0.0402 -0.3004
22548W        W39022  12.556   8.186   5.184 -0.1445  0.2843  0.0656
22549W        W39023   1.900   5.793   3.609  0.0427 -0.0818  0.1992
22550W        W39024  14.181   7.194  14.019 -0.2095  0.2163 -0.1361
22551W        W39025   3.035  15.478  14.571 -0.0831  0.1320 -0.0587
22552W        W39026  10.223  17.079   4.346 -0.1003 -0.0760 -0.0535
22553W        W39027   5.502   8.131   0.626  0.2004  0.1410 -0.0903
22554W        W39028  16.928  17.814   6.017 -0.0565 -0.0619  0.0042
22555W        W39029   8.105   6.822   2.626  0.0747 -0.1474 -0.0009
22556W        W39030  15.129  10.632  12.493  0.1443 -0.1294  0.1710
22557W        W39031   3.218   3.477   1.767 -0.1100  0.0095  0.0910
22558W        W39032   9.218   3.108   0.444  0.2275  0.0472 -0.0376
22559W        W39033   0.249   6.319  14.976  0.1980  0.1352  0.1645
22560W        W39034  11.733   7.677  13.044 -0.0286 -0.0051 -0.4379
22561W        W39035   9.134   6.548  16.144  0.1958  0.0935 -0.0621
22562W        W39036  10.220   8.840   3.394  0.2339  0.0472 -0.0722
22563W        W39037  14.051   2.263  12.215 -0.0113  0.2576  0.2344
22564W        W39038  11.169   3.500  14.322  0.1388  0.0954 -0.0820
22565W        W39039  13.508   7.707   4.550  0.0148 -0.1442 -0.0910
22566W        W39040   4.866   2.579   2.631  0.0060  0.3010 -0.0731
22567W        W39041   2.904   6.846  15.164 -0.1285  0.2178  0.1339
22568W        W39042  10.718  15.166   2.765 -0.0229 -0.0610  0.1222
22569W        W39043   1.028   1.082  11.422  0.1696 -0.0855  0.0773
22570W        W39044  10.172  15.245   4.114  0.2142  0.0465 -0.2643
22571W        W39045   3.471  10.214   3.873  0.2846  0.0210 -0.2436
22572W        W39046  16.984   0.399   4.109  0.0773  0.1762 -0.1114
22573W        W39047  10.401  12.004   5.966 -0.0024  0.0467 -0.2104
22574W        W39048  16.291  14.115   1.970  0.0129 -0.0720  0.1336
22575W        W39049   5.926   5.679   1.527 -0.0521 -0.0184 -0.0659
22576W        W39050  14.983  17.766   0.228  0.0791  0.0334  0.1856
22577W        W39051   3.231  12.663  13.775  0.1613 -0.1443 -0.1532
22578W        W39052   9.041   5.106   2.508 -0.0391 -0.1133  0.0698
22579W        W39053   3.100   6.325  12.804  0.0302 -0.2171 -0.0711
22580W        W39054   3.039   7.464   1.384 -0.1934  0.1068  0.0670
22581W        W39055   9.791   2.821  15.527  0.3564 -0.0806 -0.2070
22582W        W39056  17.035  15.166   5.183  0.0178 -0.2290  0.1624
22583W        W39057  17.330  15.726   4.426  0.3002 -0.0979  0.3276
22584W        W39058  10.477  17.518   2.297 -0.1116  0.1013  0.0823
22585W        W39059   7.140   8.288   3.904 -0.0750  0.2804  0.2408
22586W        W39060   3.571   3.989  14.579 -0.0022  0.0678 -0.1150
22587W        W39061  17.966   4.778   0.938  0.3744  0.1141 -0.2806
22588W        W39062  13.120   9.350  15.833  0.1109 -0.0820 -0.2673
22589W        W39063  14.888  15.470   2.283 -0.3252 -0.2366 -0.0207
22590W        W39064   6.649  10.782  12.928 -0.0813  0.1663  0.0596
22591W        W39065  17.329   4.871   2.935 -0.0668 -0.1972  0.0551
22592W        W39066  10.983   0.469  16.169 -0.2366  0.3917  0.1259
22593W        W39067  10.164  13.579  14.202 -0.1502 -0.2959  0.2112
22594W        W39068  14.924   7.829   3.085 -0.3347 -0.0883  0.2852
22595W        W39069   4.182  12.028  14.924  0.0856 -0.0266  0.0537
22596W        W39070   1.333   2.607   3.724 -0.2879 -0.1037  0.1027
22597W        W39071  12.291   1.293   0.947  0.0337 -0.1332  0.0192
22598W        W39072  11.781   4.762  13.438  0.0829 -0.0677 -0.0369
22599W        W39073  15.499   1.937   2.206 -0.0839  0.1472 -0.0713
22600W        W39074  17.493   2.345   0.865  0.0881  0.1809  0.0651
22601W        W39075  14.892  12.723   2.254  0.0441  0.1839 -0.0170
22602W        W39076   2.912   3.381   2.180 -0.0231  0.0209  0.1828
22603W        W39077  11.670  15.350  15.473  0.1765  0.0962  0.0391
22604W        W39078  11.965   1.332   1.677  0.1285  0.0035  0.0750
22605W        W39079  12.634  11.667  14.567 -0.0875  0.0719 -0.1553
22606W        W39080  12.118  12.589  15.229 -0.0696  0.3844  0.0946
22607W        W39081   3.607   6.100  13.404 -0.2645 -0.3485  0.0459
22608W        W39082  13.598   4.773   2.758  0.0415  0.2627 -0.0789
22609W        W39083   5.835  11.592  12.135 -0.3522 -0.0667 -0.0564
22610W        W39084  10.647   6.002   0.716  0.0023 -0.0520  0.1921
22611W        W39085  12.275  14.088  14.393  0.2094 -0.0186  0.1088
22612W        W39086  14.133  14.213  14.274  0.2275  0.0257  0.0498
22613W        W39087   5.057  18.177  10.657 -0.0092 -0.2091 -0.1278
22614W        W39088   7.237   4.244  12.887 -0.0198 -0.0172 -0.1127
22615W        W39089  17.538   1.564   0.419  0.0674 -0.2419 -0.0074
22616W        W39090  14.758   7.387   1.526  0.0564 -0.3143 -0.1438
22617W        W39091   7.223  13.619   2.677  0.1364  0.2028 -0.2260
22618W        W39092   2.090   4.902   4.249 -0.2198  0.1151  0.0736
22619W        W39093   2.447   7.756   5.250 -0.0003 -0.1223 -0.0319
22620W        W39094  18.168  16.069   1.082  0.2107 -0.3492 -0.1709
22621W        W39095  17.748  13.865   6.019 -0.0444  0.0276 -0.1609
22622W        W39096   3.872   2.005   1.585  0.2130 -0.0832  0.0715
22623W        W39097   3.735  10.893   0.374  0.2024  0.2906  0.1882
22624W        W39098  12.015  14.309  14.740  0.0826  0.2631  0.1420
22625W        W39099   3.180  10.190  13.880  0.1670 -0.0814 -0.1378
22626W        W39100   8.717   0.904   1.926 -0.3904  0.0857 -0.2077
22627W        W39101  15.091  13.579  13.369  0.1209 -0.1910  0.1135
22628W        W39102  10.745  12.015   3.871 -0.0566  0.3286  0.5562
22629W        W39103   4.975   8.503   4.602  0.0244  0.0674 -0.0356
22630W        W39104  17.741  10.531  12.637  0.0465  0.2527  0.0167
22631W        W39105  10.464   0.271  12.528  0.0486  0.1752 -0.1071
22632W        W39106  17.186  16.922  14.364 -0.1292 -0.0811 -0.3730
22633W        W39107  11.477   9.225  11.217 -0.2098 -0.0134 -0.2725
22634W        W39108   1.412  14.164   3.164 -0.1153 -0.0417 -0.2435
22635W        W39109  14.978   1.195   3.098  0.0641 -0.0862 -0.2149
22636W        W39110  13.379   7.758  12.590 -0.1966  0.0055  0.0177
22637W        W39111  11.093   8.121  15.516 -0.0443  0.0266 -0.1374
22638W        W39112  16.671   7.222  15.058 -0.0632  0.3345 -0.1256
22639W        W39113  17.068   5.165  14.947  0.1241  0.2004  0.0605
22640W        W39114  17.693  14.255  14.659 -0.0661  0.2114  0.0425
22641W        W39115   6.610   3.152  15.221  0.1134 -0.0576  0.1063
22642W        W39116  13.279   3.190   4.302  0.2263  0.1726  0.3213
22643W        W39117  14.938  14.634   0.221 -0.1263 -0.4323  0.0131
22644W        W39118   2.635  11.050   3.850  0.4473  0.0586  0.1280
22645W        W39119   5.328  13.270   5.204  0.2568 -0.2263 -0.1698
22646W        W39120  10.608  16.254  13.685  0.1612  0.1402 -0.1234
22647W        W39121  11.418  16.990   5.174 -0.0598  0.1239  0.2710
22648W        W39122  12.167   5.969  15.807 -0.1301  0.1030  0.0183
22649W        W39123  16.380   3.956   5.242  0.3483 -0.3114 -0.0109
22650W        W39124   7.946   4.050   1.936 -0.1947 -0.0280 -0.3673
22651W        W39125  10.084   2.031  13.987  0.1350  0.1587  0.3296
22652W        W39126  10.087  13.065   5.809  0.3013 -0.3640  0.3591
22653W        W39127   0.718   4.919   4.419  0.0592 -0.2096 -0.0064
22654W        W39128   0.615   8.890  14.644 -0.0515  0.0906 -0.0365
22655W        W39129   4.212   1.596  15.577 -0.0847 -0.2123 -0.0386
22656W        W39130  17.458   9.884  14.628  0.1765 -0.0028  0.1213
22657W        W39131   2.552  14.279  15.598 -0.2131  0.3500  0.1072
22658W        W39132   3.855   7.531  12.507  0.0236  0.0923  0.0557
22659W        W39133   1.160  10.555  12.319  0.1037  0.2119  0.2044
22660W        W39134   1.684   1.590  14.522  0.0764 -0.1048  0.2647
22661W        W39135  14.144   2.175  13.303  0.0430  0.2560  0.0763
22662W        W39136   4.040   8.160  11.367 -0.1051  0.0945 -0.0132
22663W        W39137  10.982   5.653   4.808  0.0887  0.0508  0.0351
22664W        W39138   5.035  11.630   3.229  0.1518 -0.0396  0.2608
22665W        W39139  12.536   9.691   3.186 -0.1578 -0.0919 -0.0592
22666W        W39140   0.309  14.657   5.442 -0.1857 -0.1181 -0.1984
22667W        W39141  17.394  12.310   2.350 -0.0474 -0.1937  0.0686
22668W        W39142   9.347   4.198  12.584  0.0900  0.2222 -0.3034
22669W        W39143   1.738  15.468   5.658 -0.0762  0.1456  0.0576
22670W        W39144   7.393  10.244   4.433  0.0307  0.1786 -0.0076
22671W        W39145   3.812  17.918   4.825  0.1999 -0.2158  0.0127
22672W        W39146   4.842  14.957   3.384  0.0035 -0.0599 -0.3246
22673W        W39147   0.186   7.377  11.379 -0.0539  0.2659  0.3009
22674W        W39148  13.663   9.370   4.729 -0.0289 -0.1882  0.0091
22675W        W39149  15.441   1.317   3.035 -0.1110 -0.1052 -0.0956
22676W        W39150  14.589  17.822  11.304 -0.1448 -0.2811  0.2336
22677W        W39151   3.172   1.355   2.291  0.1771 -0.1516  0.1671
22678W        W39152  14.816   3.649  12.964  0.0484  0.0933  0.0223
22679W        W39153  10.441   2.790  13.078  0.2228 -0.1203  0.1640
22680W        W39154   4.178   1.102  15.632 -0.1108  0.1036  0.2200
22681W        W39155   7.147   0.415  14.214 -0.0148 -0.1070  0.3197
22682W        W39156  14.068  11.974   3.628 -0.3936 -0.1887  0.0138
22683W        W39157   1.642  13.706  14.634 -0.2131  0.0657 -0.0018
22684W        W39158  13.028   7.901  15.733  0.1924 -0.2656  0.2111
22685W        W39159   4.105   6.273   5.270 -0.0282 -0.0370 -0.0580
22686W        W39160  15.909   5.455   4.166 -0.0358  0.2617  0.3214
22687W        W39161  16.773   1.600   1.673  0.1024 -0.0695 -0.1666
22688W        W39162   1.234  11.136  13.483 -0.0059  0.2174  0.0027
22689W        W39163   6.878   4.757  15.587  0.2503  0.2812  0.1598
22690W        W39164  17.336   1.083   5.643  0.1384 -0.0096  0.0423
22691W        W39165  13.100  13.757  13.701  0.0226 -0.2601  0.0662
22692W        W39166   3.830   1.400   5.134 -0.1135 -0.0751 -0.2131
22693W        W39167  15.354   4.931   4.859  0.0367 -0.4125  0.0696
22694W        W39168  14.248   9.834   0.162  0.1003 -0.0762  0.1736
22695W        W39169  13.651  15.798   5.217 -0.3837 -0.1481  0.1991
22696W        W39170  11.003   1.157   0.885  0.0720 -0.2637 -0.1435
22697W        W39171  10.201  13.523  15.188  0.2104 -0.1314  0.0457
22698W        W39172  10.061  11.247  10.760  0.1104  0.3543 -0.0505
22699W        W39173   3.020   6.313  14.021 -0.1058 -0.0901  0.2640
22700W        W39174   0.422   4.914  12.050  0.0051 -0.0368  0.1754
22701W        W39175   9.499   2.564   3.609  0.0196  0.1778  0.0945
22702W        W39176  10.046   7.736   2.927 -0.1630  0.0632 -0.2111
22703W        W39177  12.107   6.834   1.808  0.0870 -0.0932  0.0539
22704W        W39178   6.398  12.615   3.832 -0.2892  0.0580 -0.2840
22705W        W39179  10.754   1.697  12.323  0.0313  0.2147 -0.1470
22706W        W39180   0.810   6.181   5.464 -0.0307  0.0814  0.1691
22707W        W39181  13.479  12.951   1.903 -0.0200 -0.1250 -0.2597
22708W        W39182   3.761  16.933   3.920 -0.0184 -0.0433  0.0507
22709W        W39183  14.026   3.044  12.865 -0.3356 -0.1655 -0.0595
22710W        W39184  14.768   0.631  10.467  0.1270 -0.0810 -0.1349
22711W        W39185  17.467  15.588  13.894 -0.0228 -0.2031 -0.0923
22712W        W39186   1.288  13.456   0.787  0.3544  0.0251  0.0426
22713W        W39187   9.462  17.565  14.798  0.0267  0.1110  0.0164
22714W        W39188   8.199   5.063  13.486  0.0814 -0.1549  0.0098
22715W        W39189  13.806   8.469  12.174  0.0084  0.1156 -0.0393
22716W        W39190   8.531   5.643   3.687  0.2238 -0.0054  0.0928
22717W        W39191   7.133   5.023  13.328  0.1684  0.3858 -0.3017
22718W        W39192  16.137   3.485   0.870  0.1845  0.0735 -0.1595
22719W        W39193  14.726   5.403  15.441 -0.2111 -0.0382 -0.1159
22720W        W39194  16.591  16.635   4.045  0.1003 -0.0629  0.4961
22721W        W39195   7.631  14.642  14.823 -0.1476 -0.1671 -0.0037
22722W        W39196   8.312  10.499  15.421 -0.1332  0.2607  0.1681
22723W        W39197   5.375   8.362   4.302 -0.1754  0.1936  0.3455
22724W        W39198   7.805   8.786  11.898 -0.1311 -0.2850  0.0490
22725W        W39199  11.233   1.571  13.115 -0.0888  0.0915  0.2222
22726W        W39200   4.989   8.390   2.960 -0.3490  0.2292  0.0628
22727W        W39201   9.702  15.586   0.326  0.0584 -0.1331 -0.0646
22728W        W39202  14.563   2.253  13.547 -0.1219 -0.3882 -0.3051
22729W        W39203  15.542   1.504  12.667 -0.2731  0.1893  0.0561
22730W        W39204  18.089  10.989  13.367 -0.0081 -0.1678  0.1021
22731W        W39205   0.825  13.754  15.238 -0.0303  0.0430  0.0933
22732W        W39206  15.248  16.147  12.492  0.1189 -0.1052 -0.0867
22733W        W39207  13.273  13.892   1.486  0.2438  0.1146  0.0059
22734W        W39208  10.219  10.590   2.482  0.2408  0.0243  0.2191
22735W        W39209  10.001  11.067  16.126  0.0531  0.2392  0.0609
22736W        W39210  11.309  11.098   5.332 -0.0703 -0.0219  0.1692
22737W        W39211   3.519   9.373  11.370 -0.0958 -0.0888  0.2027
22738W        W39212  12.972   0.737  16.157  0.2081 -0.2459 -0.0282
22739W        W39213   7.186  17.016   5.768 -0.1667 -0.0401 -0.0818
22740W        W39214  14.409  17.753  12.843  0.0604 -0.0981 -0.0733
22741W        W39215   2.322  16.511   4.950  0.2166  0.0728  0.1447
22742W        W39216  15.988   7.068   0.876  0.0065  0.0091 -0.2982
22743W        W39217  17.374  16.108   1.220 -0.0446 -0.0161  0.0414
22744W        W39218  17.496  17.041   5.356  0.2208 -0.0623  0.1421
22745W        W39219   1.018   4.068  11.895  0.0748 -0.2387  0.0425
22746W        W39220   6.640   0.791  13.186  0.0532  0.1444  0.2909
22747W        W39221   5.116  15.792   4.956  0.0144  0.0443 -0.3603
22748W        W39222   4.126   7.912   1.440  0.4621 -0.1231  0.1344
22749W        W39223  13.819   5.659   2.516 -0.0552  0.2002 -0.2124
22750W        W39224  13.839  11.263   4.766 -0.2704 -0.2868  0.2616
22751W        W39225   5.154  13.926  13.447  0.0797  0.0600  0.2585
22752W        W39226  12.454   8.646   5.337  0.1707 -0.0577 -0.4522
22753W        W39227   9.201   0.959  12.833 -0.1049 -0.1942  0.1019
22754W        W39228  10.616   5.783   1.801 -0.2314 -0.1145  0.0378
22755W        W39229  16.682  15.008  14.082  0.1494  0.3057 -0.0640
22756W        W39230   5.647  17.738  14.738 -0.2257  0.1268 -0.1375
22757W        W39231   1.208  12.467  15.709 -0.0405  0.1383  0.1391
22758W        W39232  15.038  15.956   2.155 -0.1759  0.1340  0.2339
22759W        W39233   7.115  12.669  14.881 -0.3211 -0.0587  0.0046
22760W        W39234   9.124  15.244   5.025 -0.0146  0.0825 -0.0993
22761W        W39235   7.276   9.641   5.430 -0.1268  0.2636 -0.0336
22762W        W39236  16.586  13.849  10.739  0.0296 -0.0016  0.1252
22763W        W39237   4.179  13.621  13.770  0.0911  0.0362  0.0128
22764W        W39238  11.951   3.624  16.275 -0.3717 -0.0636  0.0845
22765W        W39239   8.734  12.780  12.489  0.2215 -0.0962  0.1071
22766W        W39240   2.844  11.507   0.369 -0.2731  0.0880 -0.1545
22767W        W39241   8.858   2.026  14.478  0.3711 -0.0050  0.0959
22768W        W39242   0.604  12.169   0.458 -0.0858 -0.0257  0.1775
22769W        W39243  15.714   6.891   3.024 -0.1816 -0.1087 -0.0845
22770W        W39244  17.877  11.075  13.863  0.3448  0.1442 -0.1505
22771W        W39245   4.212   7.730  15.154 -0.2645  0.2365  0.1099
22772W        W39246   3.510  15.084  12.112 -0.0002  0.1779  0.1544
22773W        W39247  10.129  12.578   1.877  0.3155  0.0736  0.0807
22774W        W39248   2.059   7.368  14.840 -0.1544 -0.2010  0.0967
22775W        W39249   8.628   8.526   0.178  0.1715 -0.0337  0.0917
22776W        W39250   6.987  10.840   1.693 -0.2318 -0.2251  0.2261
22777W        W39251   3.100  11.170   4.569  0.1391  0.0398 -0.0211
22778W        W39252   1.772   3.949   3.437 -0.0435  0.2993  0.0095
22779W        W39253  17.842  15.853  12.755 -0.0419  0.4197 -0.2481
22780W        W39254  10.006   4.959   2.904 -0.3927  0.1471 -0.0796
22781W        W39255  13.619  11.438   1.541  0.0483  0.1662 -0.2819
22782W        W39256   2.016  12.864  15.228 -0.0091 -0.1697  0.1841
22783W        W39257  11.098  13.652  15.350 -0.5802 -0.1639 -0.1867
22784W        W39258   6.364  15.449   4.763 -0.3081 -0.1457 -0.0536
22785W        W39259  17.494   9.717  15.473 -0.2922  0.2658  0.2839
22786W        W39260   6.591  11.362  13.669 -0.1956 -0.3670 -0.1308
22787W        W39261   7.574   6.304  14.584 -0.0267  0.0872 -0.0032
22788W        W39262   8.936   3.454  11.235 -0.1871 -0.0855 -0.4222
22789W        W39263   3.968  11.567   0.404  0.1504  0.2359  0.1996
22790W        W39264  10.145   4.530  15.636 -0.0413 -0.4038  0.4015
22791W        W39265   6.624  16.868   3.266 -0.2380  0.3171 -0.0047
22792W        W39266   2.008   3.818   4.862 -0.1191 -0.1506 -0.1978
22793W        W39267   8.082  13.414   1.908  0.4155  0.1144 -0.1985
22794W        W39268   9.760  12.451   2.154 -0.0942  0.0506  0.1316
22795W        W39269   4.484   5.575   0.108  0.1830 -0.1956  0.0374
22796W        W39270  10.573   6.469   4.739 -0.0780 -0.0135  0.0833
22797W        W39271  15.960   4.473   4.372 -0.3218 -0.2690 -0.0048
22798W        W39272   9.307   7.991   1.020  0.0895  0.0830  0.0262
22799W        W39273   3.006  14.578  12.386  0.1744  0.1592 -0.0033
22800W        W39274  12.407   1.814  12.426 -0.1323 -0.0709  0.0933
22801W        W39275  13.739  11.514   3.755 -0.0136  0.1548  0.1014
22802W        W39276  11.632  15.464   5.115  0.3098  0.1925  0.2917
22803W        W39277  14.774  12.818   3.977 -0.0679 -0.1009  0.1375
22804W        W39278  10.118  16.364   1.230  0.0875 -0.3903 -0.0765
22805W        W39279   2.201  18.154  10.737 -0.2073 -0.0357  0.1416
22806W        W39280   3.028  10.673  13.654 -0.0202  0.2123  0.1823
22807W        W39281  17.499  14.418   2.542 -0.3073  0.2966  0.1557
22808W        W39282   7.324   0.307  11.441 -0.1335 -0.1802  0.1049
22809W        W39283   6.841  16.170   6.024  0.1951 -0.2714 -0.0589
22810W        W39284   8.671  16.819   2.525 -0.0209  0.0577  0.1253
22811W        W39285   4.418  15.116   1.470  0.2831 -0.1017  0.0844
22812W        W39286   0.679  11.863   0.098 -0.0531 -0.1423 -0.0872
22813W        W39287  16.919   8.702   3.356 -0.3345 -0.0990  0.0161
22814W        W39288  13.659   2.640  11.650 -0.1795  0.0330 -0.2996
22815W        W39289  13.597   3.598  14.126 -0.1505 -0.0582 -0.0266
22816W        W39290   9.773  11.569  11.045 -0.0939  0.2091 -0.1525
22817W        W39291  14.149  15.978  15.176  0.1268  0.2428 -0.1473
22818W        W39292  13.918   4.388   3.719  0.0097 -0.1769 -0.0209
22819W        W39293   2.249   7.629   3.601 -0.3140  0.0750  0.1238
22820W        W39294   4.877  10.952   4.587 -0.1730 -0.1514  0.1878
22821W        W39295   0.300  10.662   5.667 -0.0342  0.2190 -0.1771
22822W        W39296   0.258   4.211   1.525 -0.0149  0.2701 -0.1002
22823W        W39297  15.841   4.193  13.219 -0.3320  0.2430 -0.0232
22824W        W39298  17.797  17.339   0.663 -0.0043  0.0707 -0.0956
22825W        W39299  14.939  18.103  15.167  0.1136  0.0014 -0.2391
22826W        W39300   3.238   7.983   3.557  0.3789  0.0767 -0.0909
22827W        W39301   7.859   8.325  11.996  0.1586 -0.0535  0.2935
22828W        W39302   7.694  15.084  13.437  0.0517 -0.1453  0.1003
22829W        W39303  18.092  11.015   2.788 -0.1038 -0.0718 -0.0647
22830W        W39304   7.391  17.351  12.150  0.1339 -0.0496  0.2384
22831W        W39305   1.840   1.648   3.558  0.0250  0.0392  0.1244
22832W        W39306   7.562  12.628   2.889  0.1487 -0.1768 -0.0417
22833W        W39307  15.353  13.214  15.475 -0.0047 -0.2613 -0.4001
22834W        W39308  18.087   3.697   4.507  0.1134  0.3343 -0.0347
22835W        W39309  17.626  17.842   3.848 -0.0704  0.1325  0.1522
22836W        W39310  12.348  12.148   2.262  0.1352 -0.0461 -0.0758
22837W        W39311   9.544  16.554  10.433 -0.0030 -0.0718 -0.1485
22838W        W39312   1.213   9.222  11.694 -0.2828  0.0599  0.0192
22839W        W39313  11.660  15.605  15.001  0.1842  0.3786  0.0583
22840W        W39314   9.633   4.195  13.649 -0.1996  0.1093 -0.1186
22841W        W39315   7.819   1.167  11.565 -0.1556 -0.0937 -0.1287
22842W        W39316   5.407  13.041  16.029  0.0134 -0.0706  0.0017
22843W        W39317   6.508  14.549   5.128 -0.1808  0.1426  0.1779
22844W        W39318   2.458  12.754  11.239  0.1081  0.0054  0.0434
22845W        W39319  11.485  11.905   4.314 -0.1898  0.0737 -0.1429
22846W        W39320  17.342   5.605  14.454 -0.3449 -0.2624 -0.1384
22847W        W39321   8.674   5.588  15.284 -0.2237 -0.0561 -0.2342
22848W        W39322  16.381  15.092  14.463 -0.0286 -0.0763  0.3977
22849W        W39323   1.834   1.871   2.287  0.0695 -0.0319  0.1887
22850W        W39324  15.028  13.295   3.713  0.0945 -0.0009  0.3553
22851W        W39325   8.380  12.159   3.803  0.4261 -0.2919  0.1067
22852W        W39326   5.206   9.911  11.090 -0.1223 -0.3715 -0.2223
22853W        W39327   4.910   8.219  11.508  0.1477 -0.0354  0.2270
22854W        W39328   3.500   7.343   4.011 -0.0938 -0.1951 -0.1635
22855W        W39329  11.130   7.180   4.503  0.1868 -0.0013 -0.2340
22856W        W39330  17.964   4.867   0.428 -0.0380 -0.0705  0.0996
22857W        W39331   5.875   8.821   4.847 -0.2100 -0.0119 -0.0823
22858W        W39332   1.263   4.652   2.776 -0.0548 -0.0674 -0.2391
22859W        W39333   1.285  11.297   0.552 -0.0417 -0.0263 -0.1897
22860W        W39334  17.712  15.475   0.499 -0.1003  0.2047  0.2169
22861W        W39335  15.276  14.900   1.703 -0.0093  0.1077 -0.0054
22862W        W39336   2.455  14.305   2.495 -0.1115 -0.2048  0.1521
22863W        W39337  17.574  15.117  12.428  0.0795  0.1868  0.6009
22864W        W39338   2.695  11.852  11.395 -0.1288  0.0990  0.1540
22865W        W39339   7.191   4.178   2.572  0.0437 -0.2999 -0.0010
22866W        W39340   2.370  17.414  12.459  0.0451  0.0774  0.1778
22867W        W39341   3.272   2.026  15.458 -0.0848 -0.1156 -0.0954
22868W        W39342  11.638  12.263  13.328  0.0000  0.0171  0.2195
22869W        W39343   9.248  17.029   6.424 -0.1053  0.0873  0.0193
22870W        W39344   3.340   2.520   2.792  0.1643  0.0371 -0.1127
22871W        W39345  13.414   5.762   3.807 -0.0800  0.2441 -0.2412
22872W        W39346  14.974  18.025   4.315 -0.0465  0.1125  0.0452
22873W        W39347   1.342   9.656  11.914 -0.2261 -0.3885 -0.1167
22874W        W39348   9.639  15.321   1.023 -0.0318  0.3276 -0.0640
22875W        W39349   0.122  12.797   2.530  0.0603 -0.1348  0.0214
22876W        W39350  16.188   2.441   4.220  0.2175 -0.0388 -0.1032
22877W        W39351   6.204   2.252   3.082 -0.2094 -0.2837  0.0549
22878W        W39352  11.923  13.786  14.674  0.2592  0.1653  0.0262
22879W        W39353  14.974   5.765  15.190  0.1016  0.1329 -0.1366
22880W        W39354   1.916   6.234  12.082 -0.0105  0.1873 -0.1090
22881W        W39355  17.560   5.195   0.293 -0.2417 -0.0443 -0.1334
22882W        W39356   0.950  16.465  11.586 -0.0347  0.0697 -0.0027
22883W        W39357  12.342  17.017   1.831  0.1975  0.1319  0.2015
22884W        W39358   3.272   5.802  13.211 -0.2832  0.0141 -0.1218
22885W        W39359  10.874  16.368   1.933 -0.0128 -0.1771  0.1414
22886W        W39360   4.261  17.908   2.111  0.2116 -0.0666  0.3117
22887W        W39361   8.357   6.769  14.377 -0.0485 -0.0058  0.3398
22888W        W39362   9.263  17.690  13.364  0.1342  0.1552 -0.0755
22889W        W39363  12.690  13.805   6.070  0.0715  0.0290  0.3478
22890W        W39364  12.238  14.554   3.021 -0.2162  0.3626 -0.0984
22891W        W39365  15.766  12.053   0.149  0.2401  0.1024 -0.3488
22892W        W39366  10.646   9.937  12.355  0.0320 -0.0054  0.1850
22893W        W39367   0.999  14.134   0.185  0.0386 -0.2185  0.0322
22894W        W39368  17.815  14.773  12.105  0.0659 -0.0114 -0.0668
22895W        W39369   3.503   8.259  12.223 -0.0419  0.0237  0.2247
22896W        W39370   8.348  15.464  13.911 -0.0029 -0.0302 -0.1158
22897W        W39371   1.132  10.216   2.668  0.1708  0.0924 -0.3111
22898W        W39372  10.611  17.214  13.984  0.1872  0.2880 -0.0565
22899W        W39373   7.770   8.494   2.905 -0.1261 -0.0383 -0.2203
22900W        W39374  12.720   7.751  13.271  0.1486  0.1606 -0.0780
22901W        W39375   3.256   5.288  12.448  0.1296  0.2015 -0.0764
22902W        W39376   1.348   4.405   0.754 -0.1050 -0.0656  0.3118
22903W        W39377  14.050  12.276  13.241  0.2079 -0.0844  0.1883
22904W        W39378   1.140   7.497   1.122 -0.0179  0.0707  0.1555
22905W        W39379  10.440  15.829  14.515  0.1671 -0.3764 -0.2094
22906W        W39380   6.580  11.620  13.221 -0.0153 -0.0515 -0.3500
22907W        W39381  12.962   6.774   0.672  0.3480 -0.2257 -0.0450
22908W        W39382   6.824   8.926   4.433 -0.0963  0.2290 -0.0130
22909W        W39383  11.004   0.975   4.769  0.0947  0.3543 -0.2970
22910W        W39384   5.764  12.259   4.626 -0.0317 -0.3743  0.1719
22911W        W39385   3.029  13.257  12.822 -0.0302 -0.2366  0.2587
22912W        W39386  14.223   5.096   4.864 -0.3066 -0.2222  0.2248
22913W        W39387  11.877   1.501   4.078 -0.0947 -0.0179  0.1378
22914W        W39388   0.028   1.988   0.019  0.0932  0.2152 -0.0959
22915W        W39389  12.002   7.365   4.833  0.0107 -0.1100 -0.0586
22916W        W39390   7.330  16.469  11.636 -0.1442 -0.0729 -0.1288
22917W        W39391  12.505  10.745  12.436  0.1126 -0.1805  0.1656
22918W        W39392  11.459   0.243   4.951  0.1740 -0.1790  0.1915
22919W        W39393  12.515  13.645   4.143 -0.1880 -0.1595 -0.0736
22920W        W39394   4.928   6.039   2.166  0.2820  0.2222 -0.0252
22921W        W39395   9.527  10.956  13.617 -0.2858 -0.2806  0.2691
22922W        W39396  12.526  17.481   5.596  0.1021 -0.3669  0.0268
22923W        W39397  10.519  14.717  16.135  0.1981 -0.1504  0.1936
22924W        W39398  11.921   3.273  11.453 -0.0590  0.0203  0.0740
22925W        W39399   3.130   7.453   3.745  0.1108  0.2511 -0.1898
22926W        W39400   4.871  13.400  14.879  0.0729 -0.0896 -0.0277
22927W        W39401   6.546  13.345   1.435 -0.1108 -0.0842 -0.2260
22928W        W39402   8.721  12.570   4.215  0.0787 -0.0583 -0.1854
22929W        W39403   9.872  13.368   2.107  0.2389  0.3227  0.0107
22930W        W39404  13.748   4.684   1.669 -0.0071  0.1508  0.0301
22931W        W39405   3.473   5.425   1.779  0.1056  0.0298 -0.3129
22932W        W39406   2.098  10.740  12.036 -0.2030 -0.3461  0.0478
22933W        W39407  14.952  11.931  12.261 -0.0695 -0.0005  0.4005
22934W        W39408  17.210  11.063   4.860  0.0728 -0.2056  0.0524
22935W        W39409  11.747  12.073  11.548  0.3771  0.1074  0.1542
22936W        W39410  13.337   5.485  12.211 -0.0926  0.0163  0.0323
22937W        W39411  15.660   6.239   2.485 -0.1411 -0.3090 -0.2227
22938W        W39412   0.647  17.124   1.689  0.0709 -0.0433  0.0784
22939W        W39413  14.440   7.263   0.624  0.1201  0.1642  0.0451
22940W        W39414  13.246   5.775   3.343  0.2518  0.0406  0.0989
22941W        W39415  11.089   6.498  12.532  0.0255  0.4331 -0.1078
22942W        W39416   2.384  17.774  12.125 -0.0247 -0.1154 -0.0884
22943W        W39417  17.330   4.691  15.981  0.0000 -0.1037 -0.2262
22944W        W39418   9.455  16.339   3.041 -0.1702  0.1937  0.1058
22945W        W39419   6.555  14.064   1.105  0.1848  0.0707 -0.0935
22946W        W39420   5.828   2.991   0.802  0.0262 -0.1415 -0.0497
22947W        W39421  13.991   5.088  16.311  0.0307  0.1193 -0.0566
22948W        W39422   9.192  14.619  13.696  0.1755 -0.0857 -0.1793
22949W        W39423  11.926  15.919  11.175  0.2858 -0.0745 -0.0924
22950W        W39424  12.375   2.796  16.126  0.2438 -0.3602 -0.1187
22951W        W39425   1.103   6.591   2.744  0.2378 -0.1098  0.2199
22952W        W39426   0.042   4.337  16.109  0.0349 -0.1496 -0.2490
22953W        W39427  13.188   3.269   3.021  0.4665  0.2309 -0.1729
22954W        W39428   6.482   0.822   2.554  0.0717 -0.0368 -0.1522
22955W        W39429  16.653  13.993   0.057  0.0681  0.1058  0.0211
22956W        W39430   0.679  12.334   3.816  0.2395  0.0188  0.1567
22957W        W39431   3.894   4.633   1.703  0.2969 -0.2227  0.0225
22958W        W39432   8.654   1.420   4.905 -0.1726 -0.0658  0.0539
22959W        W39433   7.040   8.079   3.085  0.2773  0.0706 -0.0258
22960W        W39434  16.062   1.480  14.216 -0.1930  0.0647  0.1399
22961W        W39435   9.959  15.709   4.160  0.0242 -0.1679  0.1147
22962W        W39436  10.011   9.989  13.414  0.1447 -0.0250  0.1025
22963W        W39437   2.095  10.839  15.577 -0.0762 -0.0637  0.0788
22964W        W39438  12.954   8.642   0.597 -0.1099 -0.0865  0.1829
22965W        W39439   4.648   3.083   2.810 -0.0534  0.2160  0.2592
22966W        W39440   6.032  12.027   2.280 -0.0338 -0.1442  0.2967
22967W        W39441   0.919   0.036   5.276  0.0838  0.0989  0.2718
22968W        W39442   9.834   1.628  13.178  0.0693  0.1855 -0.0904
22969W        W39443  10.047  17.713   3.632 -0.0960 -0.3632 -0.1877
22970W        W39444   7.804  10.399  16.121  0.3817 -0.0632  0.1895
22971W        W39445  17.100  15.998   4.803 -0.0362  0.0057  0.1847
22972W        W39446   1.457  14.427   4.734 -0.1807  0.3661  0.2554
22973W        W39447   4.793   2.275  15.672  0.0350  0.2933  0.0601
22974W        W39448  12.798   0.501   4.176 -0.2449 -0.0932  0.4043
22975W        W39449  12.488  11.013  13.868  0.0041  0.3742  0.0195
22976W        W39450   8.310  15.390  14.400  0.0562 -0.0053 -0.1900
22977W        W39451   8.920  13.130   1.479  0.1977 -0.0655 -0.2589
22978W        W39452   8.456  10.826  12.380  0.3541  0.0308  0.1323
22979W        W39453  17.966  14.857  15.428 -0.2599 -0.1602  0.1169
22980W        W39454   4.035  10.126   2.297 -0.0332 -0.0975  0.2243
22981W        W39455   9.418   6.039   0.414 -0.1276 -0.1173  0.0915
22982W        W39456  15.122  15.158   3.984  0.0432 -0.3160 -0.0917
22983W        W39457   2.640  15.258  11.947 -0.5200 -0.0344 -0.1697
22984W        W39458   2.762  12.138  11.766 -0.2657 -0.2302 -0.2199
22985W        W39459  17.779  12.113  14.878 -0.2770  0.0174 -0.0634
22986W        W39460  11.140   2.792   2.050 -0.0875 -0.0252  0.2551
22987W        W39461   8.999  13.108  14.761 -0.3832  0.0537  0.0867
22988W        W39462   3.695  12.712   3.639 -0.1428 -0.0948  0.2391
22989W        W39463  16.941  10.345  12.371  0.2375 -0.3424 -0.2125
22990W        W39464   1.368   5.048  12.460 -0.0466 -0.1926 -0.0538
22991W        W39465   7.711   7.097  16.345  0.0986  0.3329  0.2619
22992W        W39466  11.174   0.093  14.600  0.1136  0.0055 -0.0461
22993W        W39467  15.258  11.408   2.518 -0.1041  0.0729 -0.0497
22994W        W39468  12.982  16.696  11.632 -0.0483  0.1536 -0.1468
22995W        W39469   1.554   5.995   2.104  0.0147 -0.1120  0.1732
22996W        W39470  14.712  14.958   2.385 -0.0936 -0.3594 -0.0940
22997W        W39471   8.403   2.070   1.140  0.0403  0.2642 -0.2318
22998W        W39472  15.286  15.250  12.904  0.1490 -0.1676  0.1734
22999W        W39473  15.724  13.675   4.693 -0.1267 -0.0917 -0.1988
23000W        W39474   6.392   5.871   2.748 -0.2248  0.0570  0.0037
23001W        W39475  11.642   9.362   1.600  0.0716  0.0723  0.0893
23002W        W39476   0.284  13.655  11.431 -0.2526  0.0795  0.0308
23003W        W39477   3.862   4.495   2.392  0.0336 -0.0040  0.1179
23004W        W39478   5.286  13.268   0.097  0.0163  0.3542  0.1224
23005W        W39479  13.107  14.679  11.861  0.0884 -0.2215 -0.1474
23006W        W39480   4.840  17.296  15.775 -0.0223  0.2475  0.2504
23007W        W39481  16.565  14.128  11.164  0.0428 -0.1064 -0.0757
23008W        W39482   4.810   9.216  12.481 -0.1918 -0.1923 -0.0233
23009W        W39483  13.341   1.978  13.606  0.0770 -0.0507 -0.0878
23010W        W39484   5.300  15.248   0.913  0.2977 -0.0423  0.2666
23011W        W39485  15.557  14.805   4.665 -0.1495 -0.2268  0.1103
23012W        W39486  13.805  13.147   0.315  0.2074 -0.0738  0.3030
23013W        W39487   4.973  15.689  12.487 -0.4068  0.3484 -0.0869
23014W        W39488   2.871  11.243  15.483 -0.0903 -0.0646  0.1618
23015W        W39489   6.634   1.774  15.860 -0.1179 -0.2694 -0.0441
23016W        W39490   8.382   2.802  15.670  0.2678  0.3361 -0.1237
23017W        W39491  12.233   1.414  14.549  0.0846 -0.2060  0.0956
23018W        W39492   9.190   1.130  11.727 -0.1540 -0.2254  0.0340
23019W        W39493  16.585   0.588   0.197 -0.0631 -0.0115  0.2096
23020W        W39494  11.661   0.109   3.033 -0.0413 -0.1899 -0.1758
23021W        W39495   7.548   1.228  13.352 -0.1073  0.0180  0.0721
23022W        W39496  16.732   8.342   5.722 -0.1161 -0.0741  0.1086
23023W        W39497  11.165   9.274   5.376 -0.1794  0.1951 -0.5594
23024W        W39498  17.698  11.392   4.685 -0.2261  0.0566 -0.0579
23025W        W39499   0.663  17.847   2.764  0.0709 -0.1262  0.1389
23026W        W39500  16.011  16.985   4.025  0.0850 -0.0581 -0.1558
23027W        W39501  10.803  10.374  13.624  0.2201  0.4244  0.3580
23028W        W39502   4.793   0.279  14.227  0.0314 -0.0141  0.0933
23029W        W39503   0.455   1.280   2.109  0.1689  0.0925  0.0385
23030W        W39504   5.790   8.132   2.204  0.1103  0.2757  0.2697
23031W        W39505  10.689  13.458   2.849 -0.1268  0.0550 -0.0064
23032W        W39506   4.842  11.051   4.029 -0.1225  0.3116  0.0745
23033W        W39507   8.656   7.712   1.273 -0.2405  0.3186 -0.2288
23034W        W39508  16.726   2.809   3.245  0.2515 -0.0393  0.1025
23035W        W39509   2.806   9.747  13.035  0.0891 -0.2696 -0.0917
23036W        W39510   0.272   9.483  13.010 -0.6919 -0.1164  0.0732
23037W        W39511   4.689   6.308  13.446 -0.2988 -0.2807 -0.0265
23038W        W39512  17.358   8.513  13.423  0.3400  0.0710 -0.1302
23039W        W39513  11.119   9.866   0.725 -0.0212  0.2208 -0.1484
23040W        W39514   4.923   8.081  15.921 -0.0762  0.0090  0.0257
23041W        W39515  14.760   2.714   2.219  0.0277 -0.2184 -0.2634
23042W        W39516   3.730  12.856  11.354  0.3108  0.0277  0.3828
23043W        W39517   2.790   1.659  11.247  0.0614 -0.1352  0.0064
23044W        W39518  12.060   8.885  11.512 -0.3011 -0.0770 -0.0696
23045W        W39519  15.981  12.669   4.980  0.0494 -0.1990 -0.2525
23046W        W39520  10.521   6.531  12.644 -0.1967 -0.0631 -0.1629
23047W        W39521  14.221   2.679  13.554 -0.0708 -0.0888  0.0877
23048W        W39522   5.535   6.753  14.308  0.1423  0.1025 -0.1085
23049W        W39523   4.886  11.051  12.043 -0.2927  0.0835 -0.0681
23050W        W39524   4.263   9.972  11.498  0.0326  0.1612 -0.0652
23051W        W39525  12.985  16.138   4.482  0.2886  0.0995 -0.1492
23052W        W39526  15.538  17.816   5.049 -0.0906  0.0234 -0.0720
23053W        W39527  17.187  14.036   4.145  0.0657 -0.2898 -0.0283
23054W        W39528   4.203  10.261   0.867  0.3473  0.1907  0.3120
23055W        W39529   5.927   6.673  15.388 -0.1079  0.0110 -0.2887
23056W        W39530  10.604  13.938  14.190 -0.0215 -0.0926  0.0193
23057W        W39531  10.057  17.697   0.519  0.2360 -0.3121  0.0520
23058W        W39532   6.735   6.388  15.199  0.0682 -0.1413 -0.0305
23059W        W39533   5.151  16.296   0.557 -0.2637  0.0098 -0.3196
23060W        W39534   7.589   8.448   0.414 -0.1506  0.2456  0.1973
23061W        W39535  14.724   0.246   5.167 -0.1192 -0.0559 -0.3560
23062W        W39536   7.627   1.126   4.473 -0.2165  0.0330  0.1168
23063W        W39537  10.295   4.346   0.227  0.2526 -0.0377  0.1266
23064W        W39538  14.817   4.094   0.381  0.0907  0.0018 -0.1283
23065W        W39539   5.838  17.576  13.479 -0.1934 -0.2543  0.0018
23066W        W39540   7.377   3.449   2.556  0.2084  0.3122 -0.0888
23067W        W39541   1.280   6.273   2.426  0.0195 -0.1309  0.1326
23068W        W39542  16.201  14.239  15.791  0.1486 -0.2248  0.1602
23069W        W39543  17.122  15.704   1.951 -0.3836 -0.3955 -0.0550
23070W        W39544   0.843  10.882   1.515  0.4216  0.1225  0.1480
23071W        W39545   2.103  14.844  15.086 -0.1948  0.0845  0.4001
23072W        W39546  13.458   9.573  13.481  0.3596 -0.0888 -0.1264
23073W        W39547   7.135  10.302  16.066 -0.0024 -0.0286 -0.2925
23074W        W39548  13.434  15.599  13.243 -0.1004  0.0354  0.0984
23075W        W39549  14.987   0.285   1.954  0.2038 -0.0452  0.1711
23076W        W39550  11.482   3.898  14.590 -0.1639  0.0924  0.0630
23077W        W39551   6.898  10.511   2.530  0.0377  0.1125 -0.0791
23078W        W39552   4.300   7.322   0.642  0.0151 -0.2135  0.1866
23079W        W39553   8.310   6.983   3.637  0.1466  0.3749  0.0491
23080W        W39554   2.277   5.650  15.584 -0.1406 -0.0435  0.0824
23081W        W39555   1.944   8.078  11.689  0.1220 -0.0587  0.0356
23082W        W39556   6.232   8.997  11.627 -0.5063  0.2045 -0.1571
23083W        W39557   7.947  11.741   2.837 -0.0186  0.0439 -0.2268
23084W        W39558  13.010  16.185  12.898  0.0929 -0.0409  0.0429
23085W        W39559   8.426  14.139  15.859 -0.0348  0.3435 -0.2539
23086W        W39560   9.648  10.517  13.366  0.0833  0.2664 -0.1917
23087W        W39561  16.500   2.108  11.924 -0.2852 -0.0108 -0.0567
23088W        W39562  14.361  16.668  16.168  0.0500 -0.1850  0.1019
23089W        W39563  18.136  15.045  12.358  0.3499 -0.0938  0.0325
23090W        W39564   4.907   6.663   1.575  0.1075 -0.5637  0.2231
23091W        W39565   9.762  13.671   3.563 -0.1114  0.0588 -0.1424
23092W        W39566   2.399   9.408   3.986  0.0596 -0.1114 -0.0800
23093W        W39567   0.622   3.438   1.706 -0.0688  0.0846  0.1647
23094W        W39568   8.895   7.455   4.693 -0.0752 -0.0101 -0.3265
23095W        W39569   7.278   0.696   4.681  0.1599 -0.0915  0.1542
23096W        W39570  11.503  11.452  12.284 -0.1921 -0.1871 -0.3470
23097W        W39571   1.029   5.961   3.196 -0.0545  0.0359 -0.1962
23098W        W39572  16.058  16.808   5.421  0.1647 -0.1495  0.0302
23099W        W39573  10.317  17.356   4.770  0.0918  0.2714 -0.0771
23100W        W39574   3.397  10.446  13.407  0.1482 -0.1586  0.0208
23101W        W39575   4.568  17.193  11.630  0.2974 -0.0718  0.0892
23102W        W39576   6.327  10.456   0.248  0.0303  0.3763 -0.1181
23103W        W39577   5.131  15.241   4.806 -0.1270  0.2612 -0.1379
23104W        W39578   5.403   1.867   5.920  0.0522  0.2827  0.1851
23105W        W39579  16.687  16.041  12.530  0.1920  0.2933  0.1524
23106W        W39580   8.868   5.738   2.300 -0.2620  0.3138  0.1194
23107W        W39581  15.961  14.448  12.802  0.0268  0.0181  0.2638
23108W        W39582  11.911   6.573  11.447 -0.1644  0.0273  0.1425
23109W        W39583  16.330   0.952  12.655  0.0569  0.0970  0.1296
23110W        W39584  13.923  12.266   2.046  0.0153 -0.2079  0.3340
23111W        W39585   3.875  14.396   5.877 -0.0389 -0.0762 -0.2885
23112W        W39586  17.479  13.525  12.099 -0.0581 -0.2085  0.0726
23113W        W39587  13.258  14.678   6.153  0.0778  0.1896 -0.1128
23114W        W39588   6.126   5.766   4.230  0.2006  0.2655  0.0938
23115W        W39589  11.323   4.247  11.936 -0.2920  0.1423  0.0655
23116W        W39590   4.754  15.026   1.119 -0.0257  0.0171  0.1783
23117W        W39591   4.506   8.426   4.791  0.2789  0.1865  0.1077
23118W        W39592   8.185  13.418  13.087 -0.1029  0.0777 -0.2324
23119W        W39593   2.948   8.002  13.955 -0.1602  0.1927  0.1846
23120W        W39594  10.656  14.668   3.743  0.1406  0.0355  0.3717
23121W        W39595   1.645   8.073   0.660  0.0394  0.2274  0.0595
23122W        W39596   8.365  16.229   3.052 -0.0985  0.1040 -0.0362
23123W        W39597   8.171   4.024   0.347 -0.1558 -0.1394 -0.1714
23124W        W39598   6.531   4.607   3.574 -0.1051 -0.0355  0.1459
23125W        W39599   1.320   1.426   0.713 -0.0292  0.1586  0.1095
23126W        W39600   0.875  15.776  13.468 -0.1030 -0.1948  0.0361
23127W        W39601  14.716  18.089  15.854 -0.0588 -0.0117  0.0218
23128W        W39602   8.547   3.796   4.805 -0.1159 -0.0479  0.0280
23129W        W39603  16.004   6.448   4.329  0.0772  0.2759  0.1022
23130W        W39604   7.416  10.256   0.139  0.2063 -0.1525  0.0917
23131W        W39605  10.673  17.550   2.760 -0.6445  0.1200 -0.4176
23132W        W39606  16.681   2.099  15.634 -0.3523 -0.1498 -0.2436
23133W        W39607  17.173   4.692  12.488 -0.0554 -0.1362 -0.1721
23134W        W39608  16.836   0.687   3.770  0.1084  0.0530 -0.1194
23135W        W39609   7.821   1.582   2.657 -0.2991  0.0072  0.4103
23136W        W39610   8.659  17.423  15.242 -0.0372 -0.1352  0.1486
23137W        W39611   2.640  15.223  14.087  0.0970 -0.1105 -0.1592
23138W        W39612  13.561   9.229   0.144  0.2218 -0.1925  0.0644
23139W        W39613  16.147  17.493   4.030 -0.0528 -0.1836  0.0320
23140W        W39614   0.125  17.628   2.978  0.0062  0.0868 -0.0911
23141W        W39615   2.832  10.593   0.225 -0.1395 -0.0025 -0.0077
23142W        W39616  10.536   2.545  12.198  0.1060  0.2055 -0.1478
23143W        W39617   6.144  10.192  14.732  0.2752  0.0068  0.0705
23144W        W39618   7.865   0.107  13.338  0.0911 -0.0435  0.1204
23145W        W39619   9.208  13.013  12.222  0.0806 -0.2827 -0.0813
23146W        W39620   5.728  18.018  13.833 -0.0819  0.0801  0.2695
23147W        W39621   1.129  13.315   3.873 -0.0337 -0.4026 -0.1155
23148W        W39622   4.090   6.724   4.930 -0.0364  0.2066 -0.1016
23149W        W39623  12.884   5.497   3.021 -0.1086 -0.1116  0.1468
23150W        W39624   5.819  15.278   3.465 -0.0741  0.4238  0.0943
23151W        W39625   5.273   3.240   3.485  0.1027  0.0004  0.1270
23152W        W39626   5.690   0.783   0.729  0.1032  0.1846  0.3058
23153W        W39627  15.101   1.722   5.319  0.2411 -0.0651  0.0300
23154W        W39628  11.911  13.333  12.852 -0.0770  0.1030  0.0503
23155W        W39629  10.951  17.302  11.555  0.2941  0.3458 -0.2069
23156W        W39630  10.109  16.555  11.025 -0.6070  0.0006  0.4514
23157W        W39631  11.915   5.922  12.401 -0.0694  0.0303  0.0961
23158W        W39632  18.024   6.757   4.421 -0.5882  0.3569  0.1260
23159W        W39633  16.987  13.254  15.174 -0.1422  0.2034 -0.0843
23160W        W39634  15.844  12.713   1.630 -0.0618  0.0206 -0.2600
23161W        W39635  17.513   0.679   1.702  0.0973  0.2918 -0.2789
23162W        W39636   7.577   3.011   2.385  0.2575  0.1356  0.2042
23163W        W39637   2.095   7.713  15.805  0.1475 -0.0773  0.1295
23164W        W39638   4.101  14.665   5.470  0.0258 -0.0517  0.1650
23165W        W39639  17.003  10.887   4.427  0.0703 -0.1126  0.2560
23166W        W39640  15.112  15.328   1.458  0.1459 -0.1521  0.0568
23167W        W39641   4.594  11.995   4.094  0.0626  0.2530  0.0692
23168W        W39642   9.101   8.610   5.512  0.1051  0.1310 -0.1008
23169W        W39643  14.193   3.854   2.043 -0.2784  0.0027 -0.1343
23170W        W39644  14.540   8.110  14.182 -0.1757 -0.3817 -0.1756
23171W        W39645   2.083  13.474   2.230 -0.1385  0.1301  0.1775
23172W        W39646   8.336  17.544   6.050 -0.3362  0.1029  0.1143
23173W        W39647  11.961   3.505  12.218 -0.1817 -0.0791  0.1664
23174W        W39648   9.157  15.164   2.015  0.0160 -0.0973  0.2817
23175W        W39649   0.806  15.642   4.802  0.0714  0.1268  0.2678
23176W        W39650  17.406  12.588   2.827  0.2200  0.2577  0.3681
23177W        W39651   7.671   6.803  13.858 -0.3419  0.1366  0.0138
23178W        W39652  12.492  15.148  14.565  0.1318  0.1500 -0.0117
23179W        W39653  11.956   8.333  16.296 -0.2284 -0.2683 -0.3368
23180W        W39654   7.068   4.984  11.429 -0.0296 -0.1242  0.0324
23181W        W39655  16.181  17.205  12.701  0.2310  0.2682 -0.0983
23182W        W39656  16.069   7.363  16.299 -0.1335 -0.1929 -0.1449
23183W        W39657  12.806  11.783  13.092  0.2253 -0.0220 -0.1254
23184W        W39658   6.578  17.615  12.050 -0.1001 -0.4161  0.2652
23185W        W39659   6.380  17.378  12.511  0.0009  0.3267  0.0494
23186W        W39660   2.865   6.692   1.492 -0.2286 -0.0504  0.3164
23187W        W39661  15.881   0.586   3.507 -0.2552  0.3535 -0.0639
23188W        W39662   3.703  16.861  11.695 -0.1356 -0.0512  0.2711
23189W        W39663  16.112   6.008  12.508 -0.2667 -0.2770  0.0267
23190W        W39664  11.037  13.949  10.922  0.1029 -0.0316 -0.0096
23191W        W39665   3.827   5.212  11.556 -0.2289 -0.4341 -0.0541
23192W        W39666   9.965  13.358  11.321 -0.0462  0.0702  0.0838
23193W        W39667  16.425   8.242  15.706  0.0812 -0.0652 -0.2254
23194W        W39668  17.195  10.822   1.784  0.0362  0.0214 -0.2876
23195W        W39669   5.061  11.335   3.637 -0.2877  0.2994  0.2252
23196W        W39670  17.035   7.992   2.211  0.2415  0.0800  0.1342
23197W        W39671   0.964   5.069  15.417 -0.0733  0.2235 -0.0884
23198W        W39672   1.306   8.144  11.905 -0.1035 -0.0766 -0.0721
23199W        W39673  13.488  12.855   0.488 -0.1506  0.1156 -0.0688
23200W        W39674   3.038   2.944  14.148  0.2020 -0.0259  0.0687
23201W        W39675   9.423   9.015   0.228 -0.0194  0.0028  0.0035
23202W        W39676   1.718  13.187   5.300 -0.1235 -0.2821  0.0450
23203W        W39677  10.107   1.162   5.302 -0.0307 -0.2028  0.1862
23204W        W39678   4.300  16.825  10.691  0.2251  0.0682 -0.0345
23205W        W39679   2.720  13.774   3.806  0.4230 -0.0545  0.2148
23206W        W39680   2.577  16.089  15.925  0.1400  0.0053 -0.1856
23207W        W39681  12.076   2.742   2.392 -0.2895  0.0428 -0.2169
23208W        W39682   6.865   4.750  13.652  0.3556  0.2268  0.0384
23209W        W39683  17.079   9.660  16.332 -0.1475 -0.2052 -0.0204
23210W        W39684  16.333   3.039  14.273  0.1997  0.0230  0.0524
23211W        W39685  16.243   6.348   2.305  0.0577  0.0994  0.2121
23212W        W39686  13.381   6.557  14.754 -0.0831  0.1507 -0.1538
23213W        W39687   0.999  10.764   2.489  0.1682  0.1787 -0.1222
23214W        W39688   8.634   1.375  13.558  0.0457  0.0451  0.0273
23215W        W39689  14.483  10.699  14.235  0.2260 -0.0438 -0.1812
23216W        W39690   9.698  12.400   1.026 -0.1196 -0.0186 -0.2218
23217W        W39691   8.463   1.265   0.329  0.0378  0.0742  0.3215
23218W        W39692   2.495   0.411  11.656  0.3272 -0.0689  0.0292
23219W        W39693  12.438  15.251  12.764  0.1427 -0.0221  0.1021
23220W        W39694   0.535   1.242   4.292  0.1925  0.0412  0.0054
23221W        W39695   6.480   8.509   5.521 -0.2393  0.1491 -0.2175
23222W        W39696  13.916  16.018  12.657 -0.0392  0.2167 -0.1703
23223W        W39697  16.182   8.803  12.458  0.1513  0.1133 -0.1520
23224W        W39698  15.228  11.068   0.916 -0.1217 -0.2027  0.0352
23225W        W39699   9.452  10.322   2.878  0.1856  0.0700 -0.1943
23226W        W39700  15.209  18.084   1.615 -0.0570  0.0210 -0.0328
23227W        W39701   2.107   8.299  14.062 -0.2171 -0.0238  0.3832
23228W        W39702   7.077   4.746   2.795  0.1865  0.2027  0.0966
23229W        W39703  10.103  10.140   2.860 -0.3158  0.0626 -0.3712
23230W        W39704  12.697   2.963   1.546  0.1237 -0.1747  0.2776
23231W        W39705   4.150   7.080   1.828  0.0506  0.0137  0.2338
23232W        W39706  15.178  14.449   5.782  0.2158 -0.0291 -0.2590
23233W        W39707   6.059   2.074  12.898  0.1679  0.1152 -0.0328
23234W        W39708   9.460  15.651   5.871 -0.2091  0.0908 -0.1592
23235W        W39709  10.474   8.002   1.203 -0.2273  0.1933 -0.1392
23236W        W39710   0.022   8.876  12.919 -0.2007 -0.0112 -0.1007
23237W        W39711  10.169   9.344   1.742  0.1135 -0.2662 -0.0318
23238W        W39712   7.273   1.171  12.177 -0.0738  0.1185  0.3102
23239W        W39713  10.138   3.518   0.175  0.0293  0.3239 -0.0780
23240W        W39714   7.094  16.918   5.013  0.1335  0.0208 -0.1532
23241W        W39715  13.942  12.740  15.523 -0.1327 -0.1474 -0.1919
23242W        W39716  17.105   7.245   3.045  0.0325 -0.2338 -0.1921
23243W        W39717  16.943  12.220  16.072  0.5574  0.1044 -0.0791
23244W        W39718  11.089   0.942  16.332 -0.0824  0.1040  0.2048
23245W        W39719   5.033   7.756   5.121  0.0263 -0.1159 -0.2325
23246W        W39720  17.712   3.355   4.585 -0.0477 -0.1261 -0.2045
23247W        W39721  17.447  11.151  15.110 -0.1423 -0.1075 -0.0603
23248W        W39722  14.023  10.347   4.839  0.2649  0.0893 -0.0511
23249W        W39723   2.902  16.874  15.296 -0.0841 -0.0330  0.3132
23250W        W39724  10.717  16.055  11.341 -0.1908 -0.0281  0.3364
23251W        W39725  11.166  13.518   6.304  0.1877  0.3336 -0.1242
23252W        W39726   0.381  15.829  16.320 -0.0115 -0.1853  0.1436
23253W        W39727  17.995   4.046   6.160 -0.0274  0.0766 -0.0554
23254W        W39728   3.592   0.281  14.102  0.1832 -0.2751  0.3037
23255W        W39729   4.799   9.525   5.656 -0.2747  0.0001 -0.0538
23256W        W39730  10.787  13.086   0.669  0.0055  0.0566 -0.1325
23257W        W39731   7.841  11.824   1.197 -0.0270 -0.2126 -0.0741
23258W        W39732  11.023  17.273   2.214 -0.0402  0.1963  0.2780
23259W        W39733   5.392  13.283  12.754  0.0553  0.2447 -0.0633
23260W        W39734   0.983  12.823  11.686 -0.3370  0.0675  0.0230
23261W        W39735   6.109   2.606   0.598 -0.2250  0.1170  0.2606
23262W        W39736   4.248  13.672  11.405  0.1363  0.0068  0.0497
23263W        W39737   7.303   9.991   1.629  0.1986  0.2157  0.3373
23264W        W39738   3.432   4.300  12.684  0.1282  0.1192 -0.3402
23265W        W39739  11.266   1.637  14.113 -0.0104 -0.2042  0.2324
23266W        W39740   3.879   1.205  14.514 -0.2520  0.1077 -0.0556
23267W        W39741  10.807  12.781   5.011  0.0492  0.0904 -0.0847
23268W        W39742   7.874  13.806  14.464 -0.3824 -0.0676  0.3433
23269W        W39743  16.226  13.859   5.411 -0.2986 -0.0032  0.1132
23270W        W39744   7.534  13.343  14.357 -0.1123  0.3105 -0.2138
23271W        W39745   1.522   1.484   4.420  0.0591 -0.0555 -0.1542
23272W        W39746   8.014  18.076   0.475  0.0036  0.2728 -0.2805
23273W        W39747   0.636  11.896  15.919  0.1593 -0.0375 -0.2519
23274W        W39748  11.495   1.840   3.993 -0.0063  0.0651 -0.0075
23275W        W39749   1.533   6.749   1.103  0.3399  0.0895 -0.0276
23276W        W39750  17.533   7.481   2.935  0.2239 -0.4868 -0.1622
23277W        W39751  16.543   3.557   2.176  0.0760 -0.1678  0.0867
23278W        W39752   0.818  17.324   3.545 -0.0342 -0.2094 -0.0301
23279W        W39753  11.369   4.327  16.315  0.1978  0.1624  0.1538
23280W        W39754  14.410  11.157  14.112 -0.3142  0.2286  0.2980
23281W        W39755   4.478   5.954   0.889 -0.2296 -0.4454  0.2486
23282W        W39756   9.863   0.220  12.463 -0.0697 -0.3682  0.0718
23283W        W39757  11.014  15.663   3.034  0.3326 -0.1776 -0.0396
23284W        W39758   2.095   0.717   2.418 -0.0600  0.2939  0.1304
23285W        W39759   7.424  17.239   3.015  0.3280  0.1239  0.2173
23286W        W39760   0.682  17.894  15.819 -0.2711  0.2051 -0.0373
23287W        W39761   6.012   3.941   5.289 -0.0912 -0.0118  0.0549
23288W        W39762   6.883   3.971  16.225 -0.0817  0.0047  0.1970
23289W        W39763  17.083  16.136   4.306 -0.1456  0.0137 -0.1043
23290W        W39764   8.877   2.575   2.893  0.1978  0.1112  0.1499
23291W        W39765  12.128   1.698   0.454 -0.0210 -0.0922 -0.2149
23292W        W39766  10.753   2.396   1.839 -0.1948 -0.0326  0.0551
23293W        W39767  13.152  11.757   2.916 -0.0824 -0.1035  0.1134
23294W        W39768   8.992   5.305   0.824  0.1305  0.1581  0.2749
23295W        W39769  15.851   2.839   2.352  0.2990  0.0899 -0.1631
23296W        W39770   4.680  13.959   4.984  0.0353 -0.0427  0.0537
23297W        W39771  16.861   3.974   3.510  0.1742 -0.0106  0.2930
23298W        W39772  10.649   2.074   4.453  0.0318  0.0992 -0.0075
23299W        W39773  14.383  13.303   3.845 -0.1631 -0.0381 -0.1690
23300W        W39774  14.966  17.280  14.426 -0.0604  0.3121 -0.1459
23301W        W39775  16.485   5.981   2.624  0.0400 -0.1948  0.0536
23302W        W39776  12.216   3.442  15.410  0.3560 -0.0069  0.1106
23303W        W39777   1.379  13.785  13.338  0.0450  0.2325 -0.2130
23304W        W39778   6.587  11.256   4.509 -0.0537  0.2470 -0.1884
23305W        W39779  12.420   1.668   3.610  0.2349 -0.1904  0.0118
23306W        W39780   9.304  12.617   4.993 -0.0316 -0.0232  0.2022
23307W        W39781   8.895  15.462  11.925  0.3090  0.1015  0.0662
23308W        W39782  10.526  17.182   1.940  0.0861 -0.0158 -0.2583
23309W        W39783   5.661  11.582   4.055  0.1203 -0.2170  0.0661
23310W        W39784   3.320   6.669  15.311 -0.1682  0.1862 -0.3857
23311W        W39785   0.305  17.204   3.195 -0.0132 -0.1785  0.2755
23312W        W39786   4.762   4.855   3.769 -0.2627 -0.2778  0.0259
23313W        W39787   8.541   8.199   1.361  0.0642  0.0928 -0.1762
23314W        W39788   9.710  12.061  11.124 -0.3161 -0.0901 -0.0840
23315W        W39789   4.640   7.661   0.394 -0.1493 -0.0798 -0.2244
23316W        W39790  13.866  13.372  12.484 -0.0122 -0.2189  0.1170
23317W        W39791  17.426   2.673   3.829  0.1000  0.1868  0.0400
23318W        W39792  12.492   1.867   0.183  0.1160  0.1378 -0.2000
23319W        W39793   3.494  11.371  11.296 -0.0046  0.1100  0.0103
23320W        W39794  11.157   3.847  16.350  0.0907  0.1077 -0.2267
23321W        W39795   4.443  16.516  11.069 -0.1810 -0.2715 -0.1066
23322W        W39796  12.864  14.578  15.479  0.5173 -0.0980  0.4046
23323W        W39797   8.823   9.445  11.473  0.0407 -0.0719  0.0109
23324W        W39798   4.942   6.428  16.220 -0.0776 -0.4810 -0.1000
23325W        W39799   1.070   6.474   1.948 -0.1210 -0.4047 -0.1862
23326W        W39800   5.922   4.526   0.695 -0.5501 -0.0519  0.0041
23327W        W39801   5.801   2.016   3.824 -0.1928 -0.2297  0.0725
23328W        W39802  12.129   2.270   1.760  0.0544  0.0279 -0.2205
23329W        W39803   2.820   5.937  12.281  0.0794 -0.1089  0.0101
23330W        W39804   6.545  11.160   2.897 -0.0576 -0.1609 -0.0361
23331W        W39805   9.915  14.690  14.062 -0.4000  0.2782  0.0591
23332W        W39806   0.422  13.837  16.055 -0.0187 -0.0993  0.1387
23333W        W39807   7.368   8.696  13.323  0.4739 -0.1197  0.1025
23334W        W39808  10.719  16.904  14.780 -0.2513  0.0758  0.1027
23335W        W39809   0.382   8.937   1.801 -0.1360  0.0108  0.2523
23336W        W39810   7.631  13.824   5.246 -0.1593 -0.1699  0.0764
23337W        W39811  15.191   4.262  14.929 -0.0340 -0.0441 -0.0574
23338W        W39812   2.125  10.894   3.720  0.2364 -0.2078 -0.0721
23339W        W39813  13.245  15.155  16.018  0.4113 -0.0284 -0.5194
23340W        W39814   0.902   6.325   1.495 -0.0892  0.0382  0.1778
23341W        W39815  13.835   8.746  13.530 -0.1296  0.1081 -0.0056
23342W        W39816  15.793  17.194  16.214 -0.3231 -0.3083 -0.0778
23343W        W39817   0.621   4.290   2.911 -0.2901 -0.0295  0.1888
23344W        W39818   2.584  15.200   4.452 -0.2182  0.2008 -0.2065
23345W        W39819   2.259   7.421   2.585 -0.0252 -0.0331 -0.1014
23346W        W39820  15.482  16.317   1.544 -0.1557 -0.1907  0.0516
23347W        W39821  17.508  12.138   3.740 -0.1959  0.0507 -0.1188
23348W        W39822   7.835  10.908   3.473 -0.1762  0.0993  0.0157
23349W        W39823   6.372  12.340  14.761 -0.0691  0.1663 -0.4307
23350W        W39824   1.762  17.285   2.915  0.2307 -0.2955  0.2310
23351W        W39825  14.163   4.737  12.498 -0.1931 -0.3458 -0.1501
23352W        W39826   4.354  10.907  11.558  0.0022  0.0349  0.0466
23353W        W39827  16.915  16.579   3.640 -0.1661 -0.1549  0.0682
23354W        W39828   0.452   9.510   4.378 -0.0465 -0.0360  0.1825
23355W        W39829  16.850   2.570  15.514  0.0222 -0.1868 -0.2177
23356W        W39830   6.827   2.677   2.468  0.0439 -0.2096  0.1943
23357W        W39831   3.638   2.997   6.345  0.0214 -0.2018  0.0143
23358W        W39832   8.434   0.431  14.542 -0.1507  0.0955 -0.1699
23359W        W39833   9.471   4.188  15.400 -0.0582  0.1691  0.0713
23360W        W39834   7.451   0.426   2.295 -0.2628 -0.1476 -0.1197
23361W        W39835  15.415  14.533   1.031  0.0200  0.0652 -0.0330
23362W        W39836   7.554   8.459   4.828  0.1210  0.2174 -0.3830
23363W        W39837   8.512   5.352  16.272  0.0826 -0.1227 -0.0556
23364W        W39838  17.567   9.923   0.795 -0.0544 -0.1696  0.0456
23365W        W39839   8.033   0.570   5.660  0.0390  0.1516 -0.3930
23366W        W39840   8.113  14.095  11.543  0.0040  0.2538 -0.1082
23367W        W39841  10.275   6.956  12.581 -0.2227  0.2354 -0.0721
23368W        W39842  14.732   4.484   1.371 -0.2942 -0.1990 -0.0288
23369W        W39843   0.026  13.088   4.686 -0.1137 -0.1932  0.0441
23370W        W39844   5.054  16.036  13.318 -0.1973 -0.0266  0.0376
23371W        W39845  11.106  11.646  12.049 -0.1942 -0.1802 -0.2054
23372W        W39846   5.112   2.713  12.382 -0.0877 -0.1572  0.0054
23373W        W39847  13.842  13.931   1.555 -0.0045 -0.2213  0.1094
23374W        W39848  15.037  16.725  13.850  0.0426  0.2308  0.0907
23375W        W39849  10.336   5.306  13.383  0.0899 -0.0527 -0.1113
23376W        W39850   6.690  15.484   0.939  0.3964 -0.0745  0.1465
23377W        W39851   3.293  13.215   2.025 -0.1025  0.4273 -0.0162
23378W        W39852  13.693  13.700  11.162 -0.1096  0.0604  0.0035
23379W        W39853   8.175   7.182   4.565  0.0491 -0.3857  0.3725
23380W        W39854   6.266  12.298   3.492  0.2529  0.2063 -0.1642
23381W        W39855   8.036  12.450  11.299  0.1626 -0.1024  0.0082
23382W        W39856  17.370   4.219   0.226  0.1506  0.2826  0.1991
23383W        W39857  10.850   1.099   0.349  0.2858 -0.0139 -0.1686
23384W        W39858   9.076   6.894   0.126  0.0850 -0.0701  0.2416
23385W        W39859  10.287   1.711   0.443  0.2141  0.2012 -0.2026
23386W        W39860  16.404   5.357   4.429  0.0275  0.0198 -0.2554
23387W        W39861   1.993   9.121  15.768  0.3349 -0.0945  0.1312
23388W        W39862  15.308  17.238   2.283 -0.1996 -0.2241  0.1448
23389W        W39863   9.595   2.042  13.918 -0.0805 -0.1654  0.0898
23390W        W39864  15.341   8.545   1.601 -0.0645  0.0451  0.0790
23391W        W39865  18.054  13.361   5.168  0.1952  0.1243  0.0702
23392W        W39866   3.054   5.386   5.115  0.2864  0.0589  0.4193
23393W        W39867   2.040   9.701   4.181 -0.0736  0.3783  0.2188
23394W        W39868   5.346   3.662  12.264 -0.0658  0.0733  0.0154
23395W        W39869   4.282  11.812  12.152  0.0076 -0.1031 -0.1002
23396W        W39870   9.210   2.084   4.309 -0.1936  0.0212 -0.0461
23397W        W39871   0.029   4.801   2.214  0.0170 -0.1719 -0.0179
23398W        W39872   4.254  12.562   1.366  0.1305 -0.0275 -0.1384
23399W        W39873  10.782  15.827   4.353  0.0573 -0.0674  0.0062
23400W        W39874  15.054  12.481  12.381 -0.1681 -0.1273 -0.1581
23401W        W39875   1.589   3.352   4.234 -0.1567 -0.1422  0.1251
23402W        W39876   9.307  15.871  14.455  0.0845  0.0716  0.3823
23403W        W39877  15.337  13.710   4.418  0.1758  0.0402 -0.0779
23404W        W39878   7.324   9.154   2.549  0.0090 -0.2214 -0.1005
23405W        W39879  16.915  15.203  15.689  0.1720  0.1035  0.1878
23406W        W39880   7.206   6.891  16.361  0.1975 -0.2419  0.0218
23407W        W39881   1.111   3.284  15.608  0.2772  0.1365  0.0256
23408W        W39882  18.136  16.393  14.380  0.0941  0.1464  0.1708
23409W        W39883  10.220   6.224   0.528 -0.2471  0.0856 -0.1723
23410W        W39884  13.892  13.220  13.060 -0.0127 -0.1158  0.2473
23411W        W39885   4.551  13.436   4.142  0.0937  0.1535 -0.2092
23412W        W39886   3.008   2.240  12.460 -0.2027  0.1775 -0.3038
23413W        W39887   5.266  11.279   4.291  0.0527  0.1900  0.0148
23414W        W39888   0.636  13.651  11.834  0.1363  0.0244 -0.0796
23415W        W39889  10.956  12.366  15.828  0.0900 -0.3740  0.0222
23416W        W39890   5.853  15.916   2.246  0.0450 -0.0669 -0.1955
23417W        W39891  13.456  14.352   2.305  0.1211  0.3268  0.3905
23418W        W39892   4.262   1.085  14.103 -0.2239  0.1713  0.0466
23419W        W39893   0.818  15.643   3.855 -0.1122  0.2046  0.0558
23420W        W39894  14.655   3.636  13.983  0.1017  0.1620 -0.0009
23421W        W39895  12.890   0.791  15.674  0.2345  0.3972  0.0179
23422W        W39896  10.685  16.275  14.818  0.2616  0.0500  0.0591
23423W        W39897  16.303   1.600   3.409  0.1312 -0.0720 -0.2013
23424W        W39898   9.456  11.819   5.657 -0.1259  0.3416  0.1097
23425W        W39899  14.709   7.359  11.685 -0.1506 -0.1660  0.2460
23426W        W39900   4.058   4.706   4.194  0.2405  0.0806 -0.3833
23427W        W39901  10.234   2.709  15.318  0.1029 -0.2439 -0.0546
23428W        W39902  11.283  12.407  14.125 -0.0510  0.1292  0.1258
23429W        W39903  10.625   4.965  13.048 -0.0334  0.0043 -0.0676
23430W        W39904   8.472   2.119   2.288  0.2603  0.0787  0.4427
23431W        W39905  11.901   0.169   4.653  0.0148  0.0144  0.0107
23432W        W39906  16.390   0.512   1.249 -0.3733  0.0112  0.1153
23433W        W39907  10.468   1.427   5.465 -0.0502 -0.0282  0.2312
23434W        W39908   2.855   3.616   3.653 -0.0602  0.1719 -0.0594
23435W        W39909  10.616   9.968   3.004 -0.0223 -0.1687 -0.0298
23436W        W39910  10.090   5.576  11.994  0.0346  0.2142 -0.0438
23437W        W39911   8.046   1.234  12.667 -0.0572 -0.0892 -0.3056
23438W        W39912   6.353   1.525   1.389  0.0593  0.0951  0.1897
23439W        W39913  17.890   0.513  15.419  0.1887  0.0680 -0.0523
23440W        W39914   9.111  12.855   4.374 -0.1257 -0.0741 -0.1835
23441W        W39915   3.224  17.500   4.331  0.3415  0.1153  0.0719
23442W        W39916   3.572  12.147  12.422  0.1441 -0.1651  0.0406
23443W        W39917   1.458   0.617   3.552  0.0000  0.2220  0.0297
23444W        W39918   1.916  17.323   4.411 -0.0249 -0.4114  0.1715
23445W        W39919   4.555  16.927   0.795  0.1738  0.0545  0.5032
23446W        W39920  15.889  14.747  13.310  0.1335 -0.0248 -0.2824
23447W        W39921  13.464  15.486  11.106 -0.1643 -0.0304 -0.1358
23448W        W39922   5.701   4.784   4.113  0.1801 -0.1936  0.2044
23449W        W39923  12.576   4.867  11.773  0.0816  0.0786 -0.1445
23450W        W39924   2.457   7.998  11.593 -0.1447  0.0228 -0.1500
23451W        W39925  15.311   9.024   0.795 -0.0503 -0.0720 -0.1363
23452W        W39926   1.591   3.658  12.520  0.0745  0.0133  0.1647
23453W        W39927   4.071  17.260  13.787  0.1250 -0.3961 -0.2160
23454W        W39928   5.366   6.062  13.383  0.0133 -0.0200 -0.0805
23455W        W39929  18.125  12.337  15.916 -0.0874  0.1698 -0.2418
23456W        W39930  17.485   2.873   0.119  0.0500  0.0038 -0.1179
23457W        W39931   5.418   9.480   1.594 -0.1026 -0.0871  0.1267
23458W        W39932  16.053   9.782  15.156 -0.0397  0.0395  0.0586
23459W        W39933  12.561   3.294   2.850  0.0929  0.3486  0.0673
23460W        W39934   1.230  10.415  15.175 -0.0060 -0.1781 -0.0271
23461W        W39935   4.749   8.007   4.735 -0.4202 -0.0705 -0.2225
23462W        W39936  17.378  10.226   4.042 -0.0191  0.0830 -0.2279
23463W        W39937   3.485   4.087   4.003 -0.0092 -0.0003 -0.0862
23464W        W39938  10.264  13.782   2.613 -0.1168 -0.0827  0.1830
23465W        W39939   5.184   6.520   1.114 -0.2418 -0.0792 -0.2633
23466W        W39940   1.539   4.596  12.821  0.0578  0.0002  0.3006
23467W        W39941   7.085  13.439   1.466  0.2412 -0.3116  0.1133
23468W        W39942   4.592  10.194  14.760 -0.1635  0.0470  0.1097
23469W        W39943   9.718   7.687   2.558  0.0742  0.0381  0.2499
23470W        W39944   2.713  15.864   4.611  0.0886 -0.2884 -0.0391
23471W        W39945   5.765  14.320   5.418 -0.3410  0.0833  0.0022
23472W        W39946  10.469  11.068   0.116  0.0096 -0.0296 -0.0119
23473W        W39947   6.423   3.008  15.730  0.0972  0.0863  0.0481
23474W        W39948  13.975   7.694   3.242  0.0606 -0.1414  0.0094
23475W        W39949   0.369  17.347   2.627  0.0826  0.1447 -0.2796
23476W        W39950  11.733  16.744  14.958 -0.0600  0.1215  0.2960
23477W        W39951   5.731  12.512  12.590  0.2559  0.1684  0.2317
23478W        W39952  16.192  14.251  16.278 -0.1205  0.0097  0.0889
23479W        W39953   3.651  15.926  15.187  0.1035  0.0030  0.1343
23480W        W39954   8.487   7.733   4.871 -0.0221  0.1572  0.1969
23481W        W39955   8.345  16.789   3.816  0.2341 -0.0908 -0.0495
23482W        W39956  15.997   1.457   1.127  0.0010 -0.2389 -0.2167
23483W        W39957   7.765  16.347   5.492  0.0119 -0.0198  0.2743
23484W        W39958  17.016   3.810  14.320  0.2603 -0.0986  0.0015
23485W        W39959   4.539   4.749   4.351 -0.1416  0.2688  0.0431
23486W        W39960   9.714  11.565  10.573 -0.4451 -0.1283 -0.1606
23487W        W39961   9.128  15.117   2.596 -0.4231 -0.3166 -0.1847
23488W        W39962   7.969   2.436   1.135  0.4166  0.1900  0.2226
23489W        W39963  14.006   7.943  15.727 -0.0128  0.1343 -0.1548
23490W        W39964   1.020  12.662   0.051  0.2130 -0.3070 -0.0011
23491W        W39965  15.201   9.441   2.317 -0.1065  0.1962 -0.0328
23492W        W39966  12.077   1.082  13.589  0.0344 -0.1894 -0.2079
23493W        W39967   5.171   0.799  12.022  0.3907 -0.2605  0.0680
23494W        W39968   2.247  16.073   4.705  0.1136 -0.2536 -0.0594
23495W        W39969   8.315  10.057   4.431 -0.2689  0.1057  0.1762
23496W        W39970   6.373  17.508  14.209  0.1053 -0.0182  0.0209
23497W        W39971   2.540   3.462  15.354  0.0139 -0.0742 -0.2994
23498W        W39972   0.434   9.657  12.462 -0.0263  0.0528 -0.0637
23499W        W39973  11.570   8.790  11.427 -0.2254 -0.1723 -0.1312
23500W        W39974  10.941  10.767  12.197  0.2624 -0.0835 -0.2166
23501W        W39975  12.234  12.156  11.385  0.3593 -0.0800 -0.2200
23502W        W39976  14.084   2.894  14.671  0.1129  0.1192  0.1304
23503W        W39977   1.538   7.399   5.397  0.0574  0.2668 -0.1818
23504W        W39978  13.654   0.179  14.316  0.1393  0.0533 -0.2866
23505W        W39979  15.069  12.574   3.096 -0.0314 -0.0375  0.0967
23506W        W39980   5.026  13.273   4.251 -0.1095  0.0634 -0.0857
23507W        W39981   8.744  15.267   4.085  0.6098  0.0121  0.1059
23508W        W39982  14.239  12.204   3.027  0.1013  0.0241  0.2211
23509W        W39983   0.025  16.749  14.715  0.1074  0.1372 -0.1788
23510W        W39984   2.936  13.840  13.652  0.1990 -0.2110  0.1857
23511W        W39985  15.347  15.576   2.424 -0.0875 -0.1626 -0.1218
23512W        W39986   2.622   8.183   3.479 -0.0447 -0.1446 -0.1352
23513W        W39987  12.857  16.237  12.153  0.3208  0.0319  0.3602
23514W        W39988  16.391   1.794   2.731 -0.0733  0.0488  0.0098
23515W        W39989  11.545   4.010   4.651  0.2097  0.2757 -0.0754
23516W        W39990   2.804  11.652  13.995  0.0765 -0.0206  0.0528
23517W        W39991   4.276   8.001   2.527 -0.1120  0.0787  0.1829
23518W        W39992  18.055   1.964  15.860 -0.0392 -0.0813 -0.2147
23519W        W39993  13.931   5.912  15.458 -0.1820  0.0969  0.0181
23520W        W39994  13.699   3.413  16.214  0.1588  0.3027  0.0325
23521W        W39995  12.004   6.407  12.617 -0.0748  0.1128 -0.2449
23522W        W39996  15.038  10.383   2.233  0.1286  0.3085 -0.5037
23523W        W39997   6.218  15.620  12.862 -0.1332  0.2674  0.0916
23524W        W39998   2.844   9.522   3.703 -0.0575  0.1699  0.0270
23525W        W39999  17.451  17.583  13.002 -0.1708 -0.0182 -0.0327
23526W        W40000   2.551  16.569   2.650  0.5363  0.0231 -0.1393
23527W        W40001  12.758  15.363   3.404 -0.3936 -0.3072 -0.0852
23528W        W40002   1.435  12.673  15.245  0.2602  0.1779 -0.5602
23529W        W40003   9.766   0.474   0.425  0.1575  0.2724 -0.2138
23530W        W40004  10.819   5.119   0.077  0.0407  0.3424 -0.1964
23531W        W40005   1.388   7.075  14.216  0.0058 -0.0215  0.1644
23532W        W40006  14.761   4.285   0.856  0.2330  0.3322 -0.1022
23533W        W40007  16.509  15.317   1.409 -0.1315 -0.2078 -0.4772
23534W        W40008   1.647   8.633  13.125  0.0027  0.3895  0.0976
23535W        W40009  16.901  15.483   4.759 -0.0410  0.3717  0.0492
23536W        W40010   1.605   4.655  14.665  0.1124 -0.2117  0.1986
23537W        W40011  11.309  13.245  13.208  0.1483  0.2114 -0.0481
23538W        W40012   6.878   7.599  13.931 -0.1265 -0.0990  0.0079
23539W        W40013   1.908  12.168   3.486 -0.1687 -0.1680 -0.1502
23540W        W40014  12.924   5.628  11.919  0.0307  0.1660 -0.0337
23541W        W40015   5.406   5.364  11.730  0.3154  0.0195 -0.2651
23542W        W40016   8.728   5.184  14.970  0.0329 -0.0526  0.0562
23543W        W40017   6.419   8.712  11.994  0.1608 -0.1488  0.0026
23544W        W40018  13.195  11.147   4.041  0.4348  0.1221  0.0011
23545W        W40019   7.276   8.655  11.452  0.1331  0.0147  0.1754
23546W        W40020   0.160  12.998   5.408 -0.1167 -0.2397  0.1836
23547W        W40021  14.621   4.132  10.497  0.1294 -0.0171  0.1214
23548W        W40022   6.784  12.833   2.917  0.2163  0.0466 -0.3306
23549W        W40023  14.715   9.803  13.758  0.0837 -0.0743 -0.0851
23550W        W40024  17.618  16.109  13.190 -0.3248 -0.1426 -0.2058
23551W        W40025  14.011   3.795   4.618 -0.0334  0.0792 -0.0918
23552W        W40026  17.533  14.403  12.458 -0.3059 -0.0591 -0.1153
23553W        W40027   5.539   2.221   4.256  0.2268 -0.0885 -0.1071
23554W        W40028   0.908   2.411   3.467 -0.1268  0.1772  0.0533
23555W        W40029   5.843  18.011   1.857  0.0850  0.2258  0.1046
23556W        W40030   5.017   8.003   1.025 -0.1011 -0.2338  0.2520
23557W        W40031  18.133   7.477  14.601 -0.1792  0.3125 -0.0976
23558W        W40032  10.697   5.014   4.251 -0.1319  0.0512 -0.2415
23559W        W40033   2.335  11.888   5.083  0.0649  0.1245 -0.0987
23560W        W40034   7.632  13.772  12.509  0.1828  0.0621 -0.0126
23561W        W40035  13.004  13.640   2.578  0.0531  0.1525 -0.0069
23562W        W40036   6.562  10.922  13.847  0.2451 -0.1004 -0.3155
23563W        W40037  10.714   0.622   4.476  0.2237 -0.1478 -0.1192
23564W        W40038   7.760  12.618   2.426 -0.0655 -0.2223  0.0170
23565W        W40039   0.878  14.036   2.963  0.2908  0.1979  0.4971
23566W        W40040   1.171   9.587   1.490 -0.1232 -0.1137  0.1668
23567W        W40041   0.218  17.829   3.955  0.5414  0.0493  0.1955
23568W        W40042   6.438   8.679  16.026  0.2281  0.0048 -0.1074
23569W        W40043   5.675  15.841   0.268 -0.0156 -0.0313 -0.0184
23570W        W40044  14.418   7.146   3.894  0.3744 -0.0922 -0.0507
23571W        W40045  17.297   0.224  12.889  0.2009 -0.0435  0.2828
23572W        W40046   0.066  17.388  14.486 -0.0355 -0.2091 -0.1203
23573W        W40047  13.432   1.476   0.261 -0.0216  0.2063  0.1812
23574W        W40048  15.715   7.649  15.427 -0.5129 -0.2960 -0.0991
23575W        W40049   7.243   4.936  13.909 -0.1709  0.2368  0.1048
23576W        W40050  15.193   1.262  11.747  0.2369  0.0736 -0.0395
23577W        W40051  15.425   5.228  11.422 -0.4125 -0.2246 -0.1411
23578W        W40052   5.541   8.690  13.129 -0.0312 -0.0074 -0.2019
23579W        W40053  13.777  17.738   5.442  0.0197  0.0321 -0.1098
23580W        W40054   5.905   4.816  13.454  0.0102  0.0587  0.0777
23581W        W40055   0.868   7.476  13.014  0.1061 -0.0921 -0.3468
23582W        W40056   5.218   7.071   0.539 -0.0976 -0.3229 -0.1626
23583W        W40057  12.139   8.650   0.357  0.3646 -0.0977  0.2230
23584W        W40058   9.689  13.009   2.924  0.0577 -0.0258 -0.0960
23585W        W40059   2.881   0.520   1.873  0.0516 -0.0672  0.0793
23586W        W40060  15.072   5.746  11.496  0.2531 -0.1254 -0.0498
23587W        W40061  13.607   1.420   1.691 -0.0934 -0.0436  0.1189
23588W        W40062   9.064  13.468  11.338 -0.0603 -0.0527 -0.1553
23589W        W40063  16.041   3.938  12.746 -0.3489 -0.0536  0.2381
23590W        W40064  17.697  11.563   1.497  0.0779  0.0499 -0.2501
23591W        W40065   2.684  14.763  10.844 -0.1104 -0.0476 -0.2085
23592W        W40066  18.113   3.802  11.872  0.4303  0.1034 -0.0280
23593W        W40067   2.495  11.853   4.542  0.0970 -0.1323  0.2019
23594W        W40068  14.690   0.366  15.096 -0.0441  0.2031 -0.0521
23595W        W40069  17.878   8.299  13.657  0.0025  0.2248  0.1059
23596W        W40070   7.161  17.030   4.513  0.2011  0.0510  0.0925
23597W        W40071  10.621   9.195   4.300 -0.0437  0.1138 -0.0445
23598W        W40072   9.232   3.906   3.766 -0.1369  0.1920 -0.0970
23599W        W40073  13.902   3.682   0.297  0.0707 -0.3253  0.0429
23600W        W40074   2.960  10.641  11.733 -0.2753 -0.3251  0.2163
23601W        W40075   1.486  12.429  16.261 -0.2470  0.0105 -0.2403
23602W        W40076  10.172   7.602  11.361  0.1398 -0.0873 -0.1159
23603W        W40077   1.500  11.833   1.839  0.0306 -0.1900  0.0740
23604W        W40078   3.859   1.160   2.929  0.0684 -0.0496  0.2458
23605W        W40079   4.779   9.963  15.188 -0.2025  0.1503  0.0391
23606W        W40080  12.019   0.099  12.179  0.0615  0.0131 -0.1556
23607W        W40081   7.666  13.735  13.887  0.1212 -0.1532 -0.1231
23608W        W40082   1.112   0.984  14.200 -0.0864 -0.0944 -0.0516
23609W        W40083  12.457   0.070   4.758  0.1007  0.2077 -0.4661
23610W        W40084   2.888   5.208  14.691  0.1077  0.1823  0.0855
23611W        W40085   3.256  14.543  14.378 -0.0455  0.0176  0.2834
23612W        W40086  17.639  12.798  14.954  0.0800  0.0260 -0.1473
23613W        W40087   0.627   0.193   2.696 -0.0703 -0.1102  0.1016
23614W        W40088  17.448   9.375   3.550 -0.1247 -0.1963 -0.2657
23615W        W40089  16.420  11.440  13.196  0.1525  0.1741  0.0747
23616W        W40090  13.182   0.840  12.796 -0.0650 -0.0588 -0.0623
23617W        W40091  11.153   3.181  14.822 -0.0953  0.2449  0.4074
23618W        W40092   9.676  16.234  13.977 -0.0389  0.1455  0.0628
23619W        W40093   2.250  14.351  12.075  0.0206 -0.0365  0.2096
23620W        W40094   9.657  17.562  13.102 -0.2244  0.2178  0.2671
23621W        W40095   7.955   0.775  16.289  0.0800 -0.0702  0.2286
23622W        W40096  15.635   8.254  14.872  0.2616  0.0140  0.1971
23623W        W40097  10.718   1.235  13.842 -0.0087  0.1218 -0.0705
23624W        W40098  11.364   6.526   4.925  0.0326 -0.2640  0.2168
23625W        W40099  10.747   4.112   5.281 -0.0624 -0.3087  0.0827
23626W        W40100   6.356   0.050   0.424  0.2144  0.0415 -0.3884
23627W        W40101   5.371   4.158   1.091 -0.1846 -0.1803  0.2438
23628W        W40102   5.625   7.170   3.414 -0.1741 -0.1031 -0.0099
23629W        W40103  15.444   1.462   3.677 -0.2107  0.3620 -0.0328
23630W        W40104  12.436   1.678  12.985  0.0309 -0.1604  0.0212
23631W        W40105   5.486  17.279  14.548  0.0395 -0.2035 -0.0826
23632W        W40106   2.318  12.256   0.176  0.0601  0.3098  0.1347
23633W        W40107  17.977  16.704  14.044 -0.2653  0.1681 -0.3171
23634W        W40108  18.129  16.877  12.281 -0.1544  0.1583 -0.4473
23635W        W40109   5.460   1.950  12.071  0.0662 -0.5078 -0.0710
23636W        W40110   0.346   0.765   4.151 -0.0693  0.4016  0.1201
23637W        W40111  11.250   0.546   4.568  0.2907 -0.0725  0.3604
23638W        W40112  14.454   6.892  14.767  0.0644 -0.1348 -0.0334
23639W        W40113   7.056  12.741  12.878  0.0609  0.0258 -0.2178
23640W        W40114   4.141  12.631  11.515 -0.3555 -0.2077  0.1549
23641W        W40115  15.209   1.993  14.493  0.5014 -0.1800 -0.0008
23642W        W40116   9.288   4.537  12.929 -0.0170  0.0978  0.0645
23643W        W40117   5.748   2.582  14.884 -0.0924  0.0745 -0.2863
23644W        W40118   3.641   2.230  15.838  0.0052 -0.2691  0.0384
23645W        W40119  16.556   8.820  13.834 -0.0654 -0.5061 -0.2125
23646W        W40120  13.901  16.625   0.604 -0.1347 -0.1732 -0.0165
23647W        W40121   2.165   3.008   3.405  0.1178 -0.0813 -0.0898
23648W        W40122  17.554  14.863  15.925 -0.0441  0.1487  0.2918
23649W        W40123   5.304   9.012   2.445 -0.2754 -0.0214  0.3428
23650W        W40124  14.350   0.526   3.710  0.0199  0.1791 -0.1988
23651W        W40125  11.468  15.980  11.258 -0.0218  0.3439 -0.1735
23652W        W40126   0.541   4.189  10.950 -0.0074  0.1911  0.0074
23653W        W40127  13.253  10.028   5.443 -0.2099 -0.1534 -0.1048
23654W        W40128  11.091  13.820  12.788  0.0320 -0.0041 -0.0958
23655W        W40129   5.653  17.698   0.605 -0.0783 -0.0659 -0.0047
23656W        W40130  10.918  14.107  12.047 -0.3809  0.1150  0.2828
23657W        W40131   2.041   6.816  13.441 -0.1082  0.2218 -0.3611
23658W        W40132   9.100  15.766  14.879  0.1613 -0.0326 -0.1893
23659W        W40133   7.535   7.907  12.102  0.0016 -0.1142  0.0071
23660W        W40134  14.995   3.180   0.345  0.0245  0.2629 -0.1957
23661W        W40135   5.985   0.765  13.918 -0.3586  0.2747  0.2725
23662W        W40136  11.974  12.524  11.664  0.1293 -0.0679  0.1106
23663W        W40137   3.430   1.664   1.779 -0.0917 -0.0302  0.0181
23664W        W40138   3.477   4.205  15.153 -0.1752  0.2438  0.2632
23665W        W40139  12.585  17.386   5.094 -0.1756 -0.1421  0.2446
23666W        W40140  11.461  16.034   3.150  0.2998 -0.1951 -0.1185
23667W        W40141   3.907   1.171  12.192 -0.0888 -0.2748  0.2938
23668W        W40142   9.733   5.630   2.401  0.4685  0.1236 -0.0457
23669W        W40143  10.463   0.229   4.844 -0.2235 -0.2241  0.3686
23670W        W40144   9.484  13.072  12.686 -0.0391  0.0818  0.0333
23671W        W40145   9.899  11.052   5.372  0.0029 -0.3480 -0.1229
23672W        W40146  13.586   4.705   0.245 -0.0692  0.2064 -0.0464
23673W        W40147   5.289  10.709   0.806  0.2457  0.0808 -0.1013
23674W        W40148   7.224  13.941  15.178  0.0198 -0.0280  0.1743
23675W        W40149   4.222   1.548   2.462  0.2760  0.2191 -0.0487
23676W        W40150   3.512   8.833  11.470  0.1869  0.0648 -0.3324
23677W        W40151  12.744  13.534  11.313  0.0909  0.2298  0.3390
23678W        W40152   1.712   8.493  13.652 -0.2814  0.2127 -0.0908
23679W        W40153   3.921  14.464   4.937  0.2399  0.0665  0.1323
23680W        W40154   5.973  14.242  14.061 -0.0460  0.0970 -0.1313
23681W        W40155  14.569   0.001   3.839  0.3217 -0.2763  0.1046
23682W        W40156  16.362   0.091  14.635 -0.0871 -0.0942 -0.1220
23683W        W40157   3.424   4.430  14.194  0.4207 -0.1614  0.0180
23684W        W40158   4.073   0.835  11.869  0.0796  0.0226  0.0150
23685W        W40159   5.040  15.680   2.274 -0.1399  0.3648 -0.0187
23686W        W40160   1.795  12.382   5.739  0.0185 -0.0122  0.3643
23687W        W40161  17.507   9.255  13.050 -0.3446 -0.0490  0.2586
23688W        W40162   7.381   3.359  15.199 -0.0444 -0.2005  0.0266
23689W        W40163   1.525   5.697   1.417 -0.2712 -0.0721  0.0696
23690W        W40164  12.174   1.660  14.992 -0.2149 -0.1606  0.3037
23691W        W40165  10.857  14.858   4.310 -0.0670 -0.1105 -0.0798
23692W        W40166   6.488   7.871   1.572  0.1379  0.0036 -0.0063
23693W        W40167  16.491   7.120  12.493  0.1937 -0.1208 -0.0206
23694W        W40168   2.262  17.242   4.971  0.0901 -0.0261  0.1036
23695W        W40169   2.918   4.473  12.693 -0.0625 -0.0024  0.0212
23696W        W40170   8.088  15.964   0.469 -0.0848 -0.1859  0.1392
23697W        W40171  15.203   0.035   5.065 -0.2130 -0.1992 -0.2077
23698W        W40172   9.057  14.046   2.898 -0.1825 -0.2517 -0.1220
23699W        W40173  13.359  11.777  11.805  0.4269 -0.2384 -0.1607
23700W        W40174   7.425   9.161   3.577 -0.1313  0.0763 -0.1348
23701W        W40175  10.066   9.065   2.992  0.2074 -0.1880  0.1362
23702W        W40176   3.851   3.858   5.137 -0.1088  0.2287  0.0409
23703W        W40177  17.716   8.737  13.105 -0.3186  0.0858  0.0024
23704W        W40178   0.118   9.254   4.097  0.0746  0.2107  0.0299
23705W        W40179  14.310  17.482  14.169  0.0312  0.1626 -0.0002
23706W        W40180  14.809   2.311  14.375  0.4207 -0.0029 -0.0662
23707W        W40181   9.496   3.671   2.913  0.0273 -0.1271  0.0149
23708W        W40182   7.502   8.461  16.163  0.5091  0.2517 -0.1022
23709W        W40183   6.738  17.364  13.882 -0.2591 -0.0894 -0.2173
23710W        W40184  13.157   7.426   5.042  0.0864 -0.1821  0.0554
23711W        W40185   3.362   9.047   2.035 -0.0488 -0.1323  0.0289
23712W        W40186  11.093   2.702   5.169  0.2225  0.0120 -0.0551
23713W        W40187   7.803  10.499   2.771 -0.1674  0.1159 -0.0667
23714W        W40188  16.092  16.461   4.086  0.2270  0.0623 -0.1331
23715W        W40189   9.756   7.244   2.875  0.0066  0.0613  0.3924
23716W        W40190  14.257   2.690   0.096  0.1693 -0.1194  0.2081
23717W        W40191  12.406   2.511  10.735  0.2297  0.1906 -0.0953
23718W        W40192   1.392   6.568   4.759  0.1740 -0.3048  0.3763
23719W        W40193  13.201  10.209  16.085 -0.1787  0.0271  0.0573
23720W        W40194   7.444   9.036   4.235  0.2057 -0.1225 -0.0139
23721W        W40195  10.900   4.848   2.244  0.1162 -0.1089 -0.0032
23722W        W40196   1.426  14.876   1.373 -0.1738  0.2913  0.2344
23723W        W40197  11.662   6.890   5.319 -0.0315  0.1113  0.1475
23724W        W40198  16.731   8.223   1.133  0.2449  0.0129 -0.1027
23725W        W40199   5.244   3.472  14.857 -0.0661 -0.1631 -0.2247
23726W        W40200   6.518  10.241  12.778  0.0724 -0.0665  0.2670
23727W        W40201   6.486   8.871  14.179  0.0131 -0.0496  0.0333
23728W        W40202  14.005  14.269   1.918  0.2586 -0.0719  0.2359
23729W        W40203   8.158   5.602   3.331  0.0056 -0.0129 -0.1654
23730W        W40204  13.533   3.165  12.962  0.0301  0.1087 -0.3109
23731W        W40205   7.916   8.915   0.577 -0.1120  0.2983 -0.0258
23732W        W40206  17.573  16.189   4.566 -0.0156 -0.0231  0.0700
23733W        W40207  13.231  11.572  14.594  0.0613  0.0082  0.0891
23734W        W40208  16.318   2.417  15.390  0.0074  0.3833  0.1668
23735W        W40209   6.765   1.940  13.750 -0.2105  0.3141  0.0120
23736W        W40210   7.077  16.111  11.812  0.2065 -0.1454 -0.4318
23737W        W40211  16.439   2.600  14.604 -0.1297  0.0862  0.3304
23738W        W40212   8.766  13.196   4.032  0.1914 -0.0936  0.0153
23739W        W40213  17.128  17.758  11.735  0.1382 -0.1631  0.1637
23740W        W40214   0.653   6.021  13.286  0.4124  0.3645  0.0555
23741W        W40215  12.142   2.112  13.111 -0.0307  0.1834 -0.2083
23742W        W40216  11.495  13.788   0.524  0.1413  0.0701  0.0055
23743W        W40217   5.804   4.484   1.201  0.0229 -0.0671 -0.0484
23744W        W40218  16.076   0.791  14.242 -0.1389  0.0944 -0.2539
23745W        W40219   1.323   8.207  15.098  0.2158  0.1344 -0.1726
23746W        W40220   9.632   5.398  12.082 -0.1772 -0.0219 -0.0384
23747W        W40221  16.943  15.680   2.665  0.1123 -0.0724 -0.0277
23748W        W40222  15.610  12.556   3.349  0.0968 -0.0150 -0.1811
23749W        W40223   9.675   9.953   1.929  0.1970  0.0945 -0.0750
23750W        W40224   5.817   4.108   2.971 -0.1514  0.4856  0.1026
23751W        W40225   3.265  10.273   0.134  0.0929 -0.3329 -0.1045
23752W        W40226  10.525   4.277  15.363 -0.1133 -0.1273  0.2226
23753W        W40227   8.195  14.177   0.265  0.1332 -0.2953 -0.2123
23754W        W40228   1.845  15.602   4.258  0.1380  0.0893  0.0374
23755W        W40229   9.723   4.588  13.294  0.1451  0.0348 -0.0153
23756W        W40230   1.238  13.587  15.482  0.0907  0.2218 -0.0152
23757W        W40231   4.289   9.337  16.202 -0.3923 -0.2536 -0.2335
23758W        W40232  12.000  13.865  11.843 -0.0696  0.2664  0.0257
23759W        W40233   4.627  15.839  14.843  0.3026  0.0400 -0.0999
23760W        W40234   9.180  12.884   3.766 -0.0915  0.0274  0.2601
23761W        W40235  13.028  14.441  12.567 -0.1564  0.1579 -0.0092
23762W        W40236   5.570  13.371   2.390  0.1389 -0.0821 -0.0791
23763W        W40237   5.079  16.118   4.529  0.1468  0.1097 -0.0987
23764W        W40238   1.094  12.747   4.800  0.2031 -0.0836 -0.0539
23765W        W40239   4.206   2.212   5.390  0.1606 -0.0904  0.0630
23766W        W40240  17.552  11.028  14.522  0.1979  0.1036  0.0680
23767W        W40241  15.686   6.698   1.041  0.1846  0.0072  0.1513
23768W        W40242  10.528   1.234  12.417 -0.0075 -0.3667  0.0005
23769W        W40243   2.743  11.820   3.839 -0.0443 -0.1178 -0.4809
23770W        W40244   5.865  13.959   3.042  0.2253 -0.3644  0.0392
23771W        W40245  16.977   3.043   4.492  0.2075 -0.2304 -0.0025
23772W        W40246  10.792  10.941   1.760  0.4166 -0.1266 -0.1179
23773W        W40247   3.351  16.523  11.898  0.0854 -0.2424  0.3083
23774W        W40248  16.954  10.524   5.370  0.1714  0.0569  0.5413
23775W        W40249   1.089  11.317  15.532 -0.2039 -0.0139 -0.1895
23776W        W40250  17.426  13.485   1.095 -0.1451 -0.2575 -0.3011
23777W        W40251  16.753   7.793  13.531 -0.0167 -0.1051 -0.0108
23778W        W40252  13.349   3.617  14.588 -0.1481  0.0733  0.1138
23779W        W40253   8.397   7.719  13.658 -0.0666 -0.0692  0.0357
23780W        W40254  13.902   3.454   0.749  0.1328 -0.1261 -0.2834
23781W        W40255   8.578   0.681  11.056  0.3200 -0.0610  0.0670
23782W        W40256  16.315   2.475  12.569 -0.2502 -0.0642  0.1478
23783W        W40257  12.981  16.106   2.168 -0.1027  0.2943 -0.0568
23784W        W40258   4.589  15.449   4.144 -0.1368 -0.1304 -0.2717
23785W        W40259  13.514  17.222   1.443  0.0923  0.1297 -0.1297
23786W        W40260   3.674   8.669   0.877 -0.1833 -0.0353  0.3471
23787W        W40261   8.079   8.372   1.273 -0.1101  0.0852  0.1289
23788W        W40262  16.716  12.574   0.401 -0.2720  0.2966 -0.1015
23789W        W40263   9.507  15.001   5.261  0.0327  0.2785  0.1304
23790W        W40264   4.072  16.843  11.253 -0.1476 -0.1442  0.0928
23791W        W40265   6.755   4.341  12.791  0.0344  0.2112  0.2285
23792W        W40266   0.542   3.343  11.314  0.0722 -0.1502 -0.1927
23793W        W40267   1.096  14.660   3.151  0.0417 -0.1538 -0.0944
23794W        W40268  17.452  16.797   4.562 -0.0158 -0.1299  0.1903
23795W        W40269  15.580   8.716  16.112  0.0575 -0.1014  0.0664
23796W        W40270  16.315   6.734  15.726 -0.1020  0.0135 -0.2772
23797W        W40271  14.988   0.772   5.272 -0.0677 -0.1220 -0.0263
23798W        W40272  15.571  18.109   4.175  0.2289  0.2489 -0.2291
23799W        W40273  11.079   0.397   5.471 -0.2335  0.3787 -0.3238
23800W        W40274   3.859  11.046  15.308  0.2959 -0.0048  0.0329
23801W        W40275  11.625   7.415  16.038  0.3302  0.1520  0.1729
23802W        W40276   6.559   6.787  11.939 -0.1584 -0.0785  0.1584
23803W        W40277   8.187   3.918  13.109  0.1023 -0.0199  0.1274
23804W        W40278   0.188   7.257   1.269  0.3700  0.0451 -0.0514
23805W        W40279  11.036  15.107   3.672  0.0885 -0.0222 -0.0967
23806W        W40280   9.597   5.116   0.764  0.0966 -0.1886 -0.1804
23807W        W40281   0.111  15.787   4.793  0.2412  0.0688 -0.0168
23808W        W40282   3.340  12.757  11.674 -0.0482  0.0829  0.3616
23809W        W40283   6.510   3.656  13.121 -0.0622 -0.1060 -0.2508
23810W        W40284   5.992   5.088  14.671 -0.2386 -0.4255 -0.2339
23811W        W40285   8.494   1.064   3.872  0.0510  0.3678  0.1408
23812W        W40286  17.807  12.833  15.474 -0.0540  0.1450  0.1771
23813W        W40287   8.770   7.385  15.293 -0.0390 -0.1463 -0.1921
23814W        W40288   4.843  13.784   0.495  0.3569 -0.0582  0.3950
23815W        W40289  17.214   1.472  12.557  0.1970 -0.1754 -0.0426
23816W        W40290   5.757   9.837   5.097  0.0218 -0.0959  0.0143
23817W        W40291  17.662   8.401   2.656 -0.1271  0.0072 -0.1573
23818W        W40292  17.387  11.250  15.866 -0.0211 -0.2318  0.2212
23819W        W40293  16.713   0.061   0.778  0.0021  0.1206 -0.0659
23820W        W40294  15.424  10.778   0.550 -0.0840 -0.2221  0.0938
23821W        W40295  16.552  11.927  13.356  0.1717  0.2942 -0.1952
23822W        W40296   0.940   1.973  11.200 -0.1136  0.0692 -0.1715
23823W        W40297   1.725   7.094   3.596 -0.1944 -0.0043  0.1885
23824W        W40298  11.005  15.401   4.512  0.0460  0.0888 -0.1266
23825W        W40299   3.290   5.582   3.957  0.0561 -0.0466 -0.0506
23826W        W40300  15.193   2.804   0.148  0.2146 -0.2258 -0.0226
23827W        W40301  17.483  17.992   2.399 -0.0469  0.1972  0.0476
23828W        W40302  13.641   7.896   1.359  0.0214  0.0887  0.1132
23829W        W40303   7.679  15.507  12.017 -0.1466  0.0051  0.1776
23830W        W40304  12.581   1.026   4.952 -0.1756 -0.0675 -0.1240
23831W        W40305   8.249  16.470   5.228  0.2956  0.1138 -0.1889
23832W        W40306   2.943   4.452   5.857 -0.0671 -0.0293 -0.1226
23833W        W40307  17.145   9.648   3.117 -0.0448  0.7471 -0.0429
23834W        W40308  17.949  15.661   3.777 -0.0516  0.0320  0.0810
23835W        W40309  16.290  17.022   0.782  0.1356 -0.0244 -0.2990
23836W        W40310  12.309  13.470  14.848 -0.0946  0.2414 -0.2518
23837W        W40311  16.177  14.346  14.965 -0.1995 -0.0846  0.1289
23838W        W40312   9.704  16.089  14.532 -0.3520  0.0502  0.0355
23839W        W40313   9.598   6.686   3.539  0.1911 -0.1653 -0.0391
23840W        W40314   7.959  16.108   1.874  0.0176 -0.0642  0.1610
23841W        W40315  11.890  12.005  15.872 -0.0912 -0.2834 -0.1367
23842W        W40316  17.894   9.057  14.838 -0.0794 -0.0928  0.0367
23843W        W40317  17.742  13.110   1.107  0.0864  0.1227 -0.1722
23844W        W40318  16.135   2.208  13.005 -0.1470 -0.1416 -0.1837
23845W        W40319   0.675   3.628  12.335  0.1226  0.0488 -0.1299
23846W        W40320  15.684  12.231  14.192 -0.2070  0.2673 -0.0203
23847W        W40321   4.860   4.544  15.526 -0.3610 -0.0264  0.2597
23848W        W40322   3.826  14.182   3.600  0.0624  0.1102 -0.0132
23849W        W40323  16.899   1.955   1.027 -0.0738  0.0259  0.1359
23850W        W40324  16.085  13.315  13.860 -0.0835  0.0853  0.5345
23851W        W40325  12.191   7.558   5.268  0.0983  0.3651  0.1244
23852W        W40326   8.230   7.320  14.394  0.0471 -0.1148  0.3500
23853W        W40327   0.225  10.280   3.086  0.5946  0.1983 -0.1019
23854W        W40328   7.062  17.228  14.728  0.0229  0.4507  0.1507
23855W        W40329   8.176   3.805  14.978 -0.0547 -0.3359 -0.0658
23856W        W40330  10.828   1.246   4.310  0.2114 -0.0654  0.1905
23857W        W40331   5.574  14.714  12.359  0.0649  0.2092  0.0411
23858W        W40332  10.648   4.280  14.634  0.0035  0.1283  0.3101
23859W        W40333   9.693  16.143  16.370  0.1678  0.1738  0.2668
23860W        W40334   4.006  14.276  13.120  0.1229 -0.1137 -0.1920
23861W        W40335   9.678   3.934   3.946  0.1986  0.3785 -0.1038
23862W        W40336  16.320  17.296  14.861 -0.0311  0.1908 -0.0846
23863W        W40337  15.548   2.660  14.142  0.1007 -0.0744 -0.1484
23864W        W40338   1.821  17.367  11.586  0.1583 -0.0399 -0.0883
23865W        W40339   5.303  17.479  15.044  0.0003  0.1815  0.0386
23866W        W40340   9.220   8.425  13.506 -0.0528 -0.1555  0.1205
23867W        W40341   5.563  15.729  14.814  0.0844 -0.1629 -0.0568
23868W        W40342   5.514  16.453   2.703  0.1803 -0.0322 -0.0040
23869W        W40343  12.876   7.136  11.064 -0.0110 -0.0294  0.2000
23870W        W40344  11.897  12.355  16.288  0.0981  0.1851  0.4174
23871W        W40345   3.146   2.073  10.790 -0.0682 -0.0918 -0.1664
23872W        W40346  14.245  13.651   1.417 -0.2610  0.1386  0.0762
23873W        W40347   5.715  12.409   5.183 -0.1856 -0.3344  0.0390
23874W        W40348  13.692  12.150  15.566 -0.1505 -0.1890 -0.1233
23875W        W40349   1.230  16.207  13.389  0.0989 -0.1058 -0.0502
23876W        W40350   9.992  11.452   2.255 -0.2559 -0.1225 -0.1138
23877W        W40351   7.625  13.546   1.279  0.1284 -0.1060  0.2555
23878W        W40352  13.397   7.126   2.847 -0.1170 -0.2063 -0.4216
23879W        W40353   6.321   4.377   1.262 -0.4280 -0.2023 -0.0844
23880W        W40354   7.751  12.261  13.611  0.0743  0.0514 -0.2329
23881W        W40355   6.936   2.571   5.292  0.0423 -0.0493  0.1031
23882W        W40356   1.786   7.968   3.662 -0.0081 -0.1147 -0.2448
23883W        W40357   0.677   2.633   6.032  0.0695  0.2073 -0.1100
23884W        W40358  13.453  11.585   4.778  0.0337 -0.1943 -0.2067
23885W        W40359   2.190  11.846  11.113  0.2735  0.0820 -0.0980
23886W        W40360  17.574  13.088   4.339  0.0713  0.0895 -0.1399
23887W        W40361  13.691   3.652  14.998  0.0642 -0.0679 -0.0417
23888W        W40362   4.580  14.123  15.831  0.1122  0.2163  0.0180
23889W        W40363   9.592   3.258  11.748  0.2492  0.0278 -0.0070
23890W        W40364   9.202  15.753   3.172 -0.1352 -0.3335  0.2505
23891W        W40365  12.474   2.137   5.344  0.0513  0.2224  0.1028
23892W        W40366   8.679   4.002   3.612 -0.1807 -0.1752 -0.0024
23893W        W40367   8.818   2.029   4.024 -0.2682 -0.2505  0.0947
23894W        W40368  11.573  15.112  14.924  0.1364 -0.0553  0.1012
23895W        W40369  17.892   0.954   3.196  0.2490 -0.0599  0.0335
23896W        W40370  13.810  17.471  14.378  0.2635 -0.0631  0.3520
23897W        W40371   1.198   4.138  15.303  0.2777  0.0674  0.0425
23898W        W40372  11.722  14.517  12.498 -0.3831 -0.1545  0.0792
23899W        W40373   8.038  12.278  15.577  0.0528  0.0430  0.1759
23900W        W40374   0.556   1.984  10.876 -0.2659 -0.0911 -0.0747
23901W        W40375   9.000   9.145   2.858  0.1516  0.0634 -0.0507
23902W        W40376  11.541  15.327   4.633  0.0927 -0.0370  0.0132
23903W        W40377  17.842   4.586  15.321 -0.2707 -0.2192 -0.2638
23904W        W40378   5.825   7.730  11.407 -0.0528 -0.1748  0.2338
23905W        W40379  15.272   7.346  11.847  0.1099 -0.1641 -0.2452
23906W        W40380  11.257  12.075  13.688  0.1117 -0.1265 -0.0672
23907W        W40381   4.426   8.521  14.123  0.2906 -0.1542  0.0160
23908W        W40382  17.201   5.704   4.911 -0.3099 -0.1153 -0.1957
23909W        W40383   8.764   3.003   4.737  0.0013  0.1196  0.2085
23910W        W40384  17.378   4.828  15.101  0.2077  0.2357  0.0914
23911W        W40385  15.304   6.856   1.437  0.1273 -0.1458  0.0161
23912W        W40386  17.916  10.890  15.206  0.0099 -0.0066 -0.2226
23913W        W40387   5.681   4.327   5.238  0.2358  0.2414 -0.3618
23914W        W40388   0.036   0.004   5.561  0.0135 -0.0824  0.4121
23915W        W40389   1.565   4.820   1.700 -0.1683  0.1405 -0.0266
23916W        W40390  16.907  14.885  14.482 -0.2589  0.0837  0.1448
23917W        W40391  17.346   3.196  11.578  0.3119 -0.2963  0.1170
23918W        W40392   3.285   8.827   3.120  0.1748 -0.1380 -0.0465
23919W        W40393  15.048   1.088   3.638 -0.0525 -0.2608 -0.0773
23920W        W40394  11.047  13.423   5.360  0.1887  0.0505  0.1758
23921W        W40395   7.436   6.721   0.936 -0.1285  0.0766 -0.0241
23922W        W40396   1.321   5.796   3.612 -0.1249 -0.0781  0.3440
23923W        W40397  16.418  10.718  13.489  0.0063 -0.2226 -0.0066
23924W        W40398   9.314  14.374  14.821  0.1251  0.0351 -0.0496
23925W        W40399   3.771   2.995   4.899 -0.1227 -0.0847  0.3189
23926W        W40400  15.956   3.036   1.911  0.0916  0.2712 -0.0479
23927W        W40401   2.200  15.314  14.309 -0.0749 -0.1686 -0.1270
23928W        W40402  13.574   5.906  14.918 -0.1342 -0.1010  0.0006
23929W        W40403   4.656  10.637  14.469  0.0045 -0.3132 -0.1206
23930W        W40404   8.856  10.432  12.440  0.1314  0.2158 -0.1197
23931W        W40405   0.658  13.050   4.623 -0.1305 -0.1080 -0.3261
23932W        W40406   2.992   4.782  16.233  0.2794 -0.0085  0.0923
23933W        W40407   0.014  14.305  11.571 -0.4534  0.1002  0.0207
23934W        W40408  14.030  17.021  16.168 -0.1959  0.0327 -0.0351
23935W        W40409   1.070  13.893  11.726 -0.2275 -0.1313 -0.0275
23936W        W40410   7.816  15.287  14.180 -0.0845 -0.2230 -0.0159
23937W        W40411  13.713  17.106  14.014  0.0301  0.1497  0.0585
23938W        W40412   1.772  12.334   3.052 -0.0046  0.0984  0.0011
23939W        W40413   0.293  11.855   2.571 -0.1553 -0.1658  0.0765
23940W        W40414  13.057   0.123  12.701 -0.1129  0.1356 -0.0147
23941W        W40415  16.097  11.418   2.299  0.3057 -0.1077 -0.1198
23942W        W40416   3.205  11.259  15.152  0.0024  0.1926  0.4423
23943W        W40417   5.334  17.263  15.728  0.1105  0.0604  0.5514
23944W        W40418  16.097   7.373  11.340 -0.1275  0.1054 -0.0698
23945W        W40419   3.995  12.332   5.965  0.4932 -0.0163  0.0326
23946W        W40420   4.107  11.750  11.228 -0.0871 -0.1259  0.1634
23947W        W40421   5.422   1.219  16.040 -0.0893 -0.1598  0.0751
23948W        W40422  11.217  10.137   3.848 -0.3998  0.1066 -0.2122
23949W        W40423  16.295  14.493   0.856 -0.1665  0.0662  0.0436
23950W        W40424   4.086   4.636   2.885 -0.0644  0.1062 -0.0125
23951W        W40425   5.913  13.608   0.659 -0.3534 -0.1426 -0.0833
23952W        W40426  13.024   0.314   0.513 -0.4378 -0.2055 -0.0844
23953W        W40427  12.312  17.729   0.601  0.1099 -0.2889 -0.1244
23954W        W40428  12.469   6.324   6.018  0.0280  0.3954 -0.2564
23955W        W40429   7.723   6.329   1.065 -0.1752  0.0977 -0.0196
23956W        W40430  17.728   6.817  13.645  0.2069  0.3507 -0.0893
23957W        W40431  17.657  16.587  12.278  0.0947  0.1986 -0.0220
23958W        W40432   8.665   7.737   2.373 -0.0336 -0.1687 -0.1009
23959W        W40433  10.688  14.500  15.105 -0.1248  0.1683  0.1023
23960W        W40434   9.269   6.053   5.678 -0.2315  0.0467  0.0040
23961W        W40435   4.244  12.402   4.142  0.2035  0.1753 -0.0979
23962W        W40436   6.984  17.357   1.207  0.2103  0.0969  0.0958
23963W        W40437   3.393   1.020   4.503 -0.3980  0.1818 -0.1728
23964W        W40438  16.702   0.900   1.172 -0.0233 -0.0548  0.0879
23965W        W40439  17.835  13.530   0.769  0.0558  0.1820  0.0985
23966W        W40440  13.366   8.373  11.848 -0.1404 -0.2028  0.0440
23967W        W40441  13.312   8.405   2.212 -0.1906  0.1597  0.2397
23968W        W40442  15.516   6.967  12.730 -0.1761  0.0033 -0.1155
23969W        W40443  16.150   3.737  15.681 -0.0828  0.0122 -0.0643
23970W        W40444   4.336   7.439  15.504 -0.0330  0.4990  0.1245
23971W        W40445  12.852   7.015   1.106 -0.0988  0.0518  0.0392
23972W        W40446   0.911   0.454  12.216 -0.1325  0.0838 -0.0468
23973W        W40447  15.712  14.701  15.074  0.1745 -0.0302 -0.2155
23974W        W40448   0.107  15.014  12.889  0.3254  0.0347 -0.0547
23975W        W40449  13.456   5.006  11.425  0.1707  0.2031 -0.0177
23976W        W40450   4.733  15.747  13.588 -0.0520 -0.1977 -0.3690
23977W        W40451   4.090  13.914  14.905 -0.1394  0.0122  0.0472
23978W        W40452  14.311   3.456  12.985 -0.1855 -0.3426  0.0290
23979W        W40453   6.470   3.507   4.316  0.0324 -0.0467 -0.2633
23980W        W40454  12.579   6.676   2.663  0.1071 -0.2076  0.3889
23981W        W40455  15.794  14.332   0.782  0.1319  0.2082 -0.1866
23982W        W40456  14.383  14.133   2.213 -0.3407 -0.0698 -0.2312
23983W        W40457   3.824   5.593   5.330 -0.2586 -0.0459 -0.0632
23984W        W40458   7.799  10.868  11.720  0.1359  0.0489 -0.0319
23985W        W40459   6.701  11.307  14.176  0.2247  0.2208  0.2726
23986W        W40460  14.929  17.946   3.396 -0.1301 -0.1723  0.0846
23987W        W40461  15.819   1.788  15.755  0.2286  0.1340  0.0181
23988W        W40462   5.249   5.486   3.792 -0.1386 -0.2889 -0.0748
23989W        W40463  15.183   3.183   4.275  0.1122 -0.3851  0.1553
23990W        W40464  16.684   4.821   4.161  0.1518  0.1296  0.1915
23991W        W40465   2.904  13.694   1.489 -0.2086  0.0998 -0.2051
23992W        W40466  12.053  11.522  16.015  0.0380 -0.0710  0.1106
23993W        W40467   6.331   1.743  13.615  0.1960  0.0523  0.0889
23994W        W40468   5.726  10.737   1.911 -0.0880  0.2168  0.2066
23995W        W40469   2.790  12.562   4.367  0.0276 -0.1547 -0.1878
23996W        W40470   0.497  14.729  14.816 -0.0892 -0.0940 -0.1288
23997W        W40471  16.117   4.427  15.907  0.0648  0.2319 -0.1744
23998W        W40472   1.635  13.405  15.172  0.0766  0.0653  0.0991
23999W        W40473  11.143   0.506   1.504 -0.2016 -0.2479 -0.0108
24000W        W40474  12.326   5.321  12.796  0.2445  0.1965  0.1205
24001W        W40475  12.053   3.270  10.928  0.0245  0.3617 -0.0248
24002W        W40476  11.186  14.512  15.534 -0.2279 -0.3219  0.0949
24003W        W40477   5.328  14.282   1.190 -0.0187 -0.0835  0.3218
24004W        W40478   9.602  11.509   4.775 -0.2084 -0.1542  0.0887
24005W        W40479   4.469   0.271   2.312 -0.1380 -0.3605  0.1167
24006W        W40480   3.016  15.204   4.706 -0.1295 -0.0671 -0.0796
24007W        W40481   2.955   9.906  15.211 -0.0383  0.4328  0.1008
24008W        W40482   8.218  14.305   1.144 -0.1966  0.1523  0.2453
24009W        W40483  17.283  14.954   4.142 -0.3279  0.2161  0.0662
24010W        W40484   9.337   4.595  16.104 -0.0795 -0.0436 -0.2763
24011W        W40485  16.825  16.919   4.676 -0.4120  0.3629  0.4132
24012W        W40486   7.919  14.175   0.744 -0.0229  0.1015 -0.0518
24013W        W40487  13.492  10.426  15.730 -0.4330  0.4364  0.0621
24014W        W40488   9.985  10.905   3.267  0.0910  0.2905  0.0868
24015W        W40489  14.602   1.420  11.525 -0.0873 -0.0569  0.4177
24016W        W40490   6.672   1.273  11.244  0.0043  0.1344 -0.1232
24017W        W40491   5.476   4.980  13.773 -0.1594 -0.0856  0.0253
24018W        W40492  16.383   4.928  11.841 -0.0233 -0.0225 -0.0885
24019W        W40493   7.933   3.467   4.317 -0.2627  0.0484 -0.1112
24020W        W40494  17.517  14.102  16.306  0.0706  0.0395  0.0496
24021W        W40495   2.305   2.757   4.650  0.1805 -0.1078 -0.0799
24022W        W40496   7.112   5.426   0.853 -0.1141  0.0096  0.0845
24023W        W40497   6.683  16.942  16.130  0.0618 -0.2346  0.0788
24024W        W40498   7.334   1.095  11.696  0.0205 -0.2301  0.2801
24025W        W40499  14.507  13.820  13.920  0.1010 -0.1137 -0.1579
24026W        W40500   3.117   9.000  14.009  0.0925 -0.0502  0.0088
24027W        W40501   9.543   7.114   3.323 -0.0974 -0.0021  0.0834
24028W        W40502  10.314  15.939   0.882  0.1350 -0.1063 -0.1913
24029W        W40503  12.667  18.178   2.176 -0.1216  0.1063  0.1250
24030W        W40504  15.903   6.895   0.139  0.0013  0.0043  0.1098
24031W        W40505  16.297  10.413   3.543 -0.1610  0.1000  0.2576
24032W        W40506  16.846  17.851  12.930 -0.0185 -0.0065 -0.1768
24033W        W40507  14.252  14.282   0.117 -0.0760 -0.2573  0.1524
24034W        W40508   2.051  16.634   2.492  0.0874 -0.0921 -0.1925
24035W        W40509  15.103   6.479  12.212 -0.2014  0.0301 -0.1317
24036W        W40510  10.481   0.383   0.845 -0.0812  0.0205 -0.2453
24037W        W40511  12.344   8.765  13.627  0.0117 -0.0120  0.1994
24038W        W40512   3.517  14.817   4.625  0.1484  0.0217 -0.2184
24039W        W40513  13.821   8.748   2.858  0.2671  0.0622  0.0834
24040W        W40514  17.563  18.016  14.204  0.0579 -0.1508 -0.0726
24041W        W40515   9.804  14.600  11.301 -0.4287  0.0757  0.1476
24042W        W40516   0.386   3.682   4.668 -0.0668 -0.0146 -0.1026
24043W        W40517  14.229  15.524   4.175  0.0407 -0.0851  0.1235
24044W        W40518   5.960  11.623  14.868 -0.0279  0.1363  0.0447
24045W        W40519  13.415   3.725   3.503 -0.0647  0.1779 -0.0052
24046W        W40520  11.501  12.967  14.499  0.1248  0.3964  0.2472
24047W        W40521   3.333   7.672  14.253 -0.2851 -0.3002 -0.1642
24048W        W40522  18.101  13.322  11.656  0.1081  0.1251  0.2227
24049W        W40523   1.341  15.989   3.229  0.0830  0.0105  0.3419
24050W        W40524   3.090  16.653   1.673  0.0808  0.2280 -0.0690
24051W        W40525   8.275   3.786   1.457 -0.0877 -0.1980 -0.0173
24052W        W40526  11.034   1.991   1.997  0.1770 -0.1086  0.0369
24053W        W40527  15.935   8.978   4.023  0.1076 -0.2892 -0.3510
24054W        W40528   2.537   0.754   2.626 -0.0479 -0.0160 -0.1323
24055W        W40529  11.412   5.581  13.261 -0.2118  0.1459  0.2955
24056W        W40530   6.676   9.066  12.186  0.0886 -0.1942 -0.2591
24057W        W40531   5.436  13.735   4.949 -0.0127 -0.0297 -0.0937
24058W        W40532  10.693  13.770   2.390 -0.2576  0.1619  0.1744
24059W        W40533   5.955   8.863   2.690 -0.1336 -0.1618  0.1425
24060W        W40534  15.824   3.728  12.347  0.1114 -0.1340 -0.1625
24061W        W40535   4.365   0.027  12.886 -0.2319  0.1054 -0.2657
24062W        W40536  15.352   2.052  15.924  0.0938  0.2884 -0.1761
24063W        W40537  11.389   2.435  14.790  0.0338  0.1979  0.0627
24064W        W40538   6.404   9.221   2.541 -0.0653 -0.2770 -0.0212
24065W        W40539   3.118   1.855   3.384 -0.0789  0.1217  0.1388
24066W        W40540   7.339  10.826  11.299 -0.3877  0.2351  0.0909
24067W        W40541   0.930   5.207   1.663  0.0794  0.0809  0.0971
24068W        W40542   2.844   5.912   3.186 -0.0637 -0.1338 -0.0287
24069W        W40543   9.479  16.868   2.776  0.0715  0.2086  0.1270
24070W        W40544   0.511   9.708   2.306 -0.3231 -0.1954  0.2787
24071W        W40545   7.495   0.593   6.047  0.0049 -0.1601 -0.2312
24072W        W40546   7.338  13.050   1.347  0.1498  0.0532  0.0177
24073W        W40547   5.062  11.748   4.118 -0.2408  0.0946 -0.1326
24074W        W40548   1.751   9.933   0.076  0.2780  0.1623 -0.3806
24075W        W40549  15.113  13.657  15.609  0.2815  0.1647 -0.2197
24076W        W40550   3.508  14.551  12.634  0.3725 -0.0602  0.1385
24077W        W40551  12.951  17.106   3.504 -0.0386  0.1104 -0.2188
24078W        W40552  11.980  10.145   0.410  0.2654 -0.1648  0.0253
24079W        W40553   8.208  13.412   2.678  0.2739 -0.1824 -0.0450
24080W        W40554  17.383   6.773  12.556 -0.0059  0.0498  0.0495
24081W        W40555  18.084   9.693  13.321  0.1196 -0.0027  0.0458
24082W        W40556  15.288   2.931   1.157 -0.0229  0.0795  0.0455
24083W        W40557  15.264   4.028   3.281 -0.1464 -0.5629  0.1420
24084W        W40558  16.092  15.240   1.751  0.1004  0.1356 -0.1280
24085W        W40559   7.815  15.634   0.160 -0.2247 -0.0061  0.3877
24086W        W40560   6.644  15.708   1.374 -0.0240  0.2091 -0.1735
24087W        W40561   5.288   9.689  13.474  0.0154  0.2839 -0.0103
24088W        W40562  10.143  11.306   4.160 -0.1427 -0.1901 -0.0426
24089W        W40563   2.427  10.989   0.457  0.0043  0.1680 -0.0327
24090W        W40564  18.047   4.524   1.409  0.1298 -0.0404 -0.3369
24091W        W40565  12.082   8.388   5.167  0.0288  0.1619 -0.0641
24092W        W40566  13.002  14.428  16.313  0.0552 -0.1224  0.0524
24093W        W40567  14.319   9.046   2.465  0.0567  0.0104 -0.1308
24094W        W40568  13.165   2.419  15.654 -0.0354 -0.0710 -0.1526
24095W        W40569   7.440   6.922  13.057  0.1175  0.2167 -0.2946
24096W        W40570  14.025  16.783   5.099 -0.1535 -0.2047 -0.2629
24097W        W40571  17.362   7.648   1.261 -0.2530  0.1390  0.0839
24098W        W40572   8.142  16.801  11.227 -0.3776 -0.0890  0.0945
24099W        W40573  12.381   8.478   4.247  0.1264 -0.0705  0.0700
24100W        W40574  12.981  17.992   0.386 -0.0603 -0.1370 -0.0324
24101W        W40575   1.864   7.609   0.657  0.1423  0.3404  0.0281
24102W        W40576  13.892  17.941  14.247 -0.0297  0.1020 -0.1823
24103W        W40577  14.227   1.840  11.277  0.0688  0.4092  0.0109
24104W        W40578  10.793   5.751   1.199  0.1233  0.1410 -0.1071
24105W        W40579  18.171  15.767  14.734 -0.1800  0.0751  0.1239
24106W        W40580  13.571  11.386   1.073  0.1331  0.0249 -0.3458
24107W        W40581  11.148   2.591   4.606  0.0672 -0.0158  0.0286
24108W        W40582   3.015   6.140  11.887 -0.0377  0.0063  0.0939
24109W        W40583   4.041   9.176   1.639 -0.0712 -0.2109  0.3722
24110W        W40584   9.400  11.750  13.155 -0.3533  0.0666 -0.0748
24111W        W40585  13.597  14.742  11.734  0.2536 -0.1669  0.2435
24112W        W40586  16.142  17.773  14.637 -0.0432 -0.0929 -0.0231
24113W        W40587   9.298  10.747   1.382  0.1143 -0.1503  0.3022
24114W        W40588   5.956   8.452  14.684 -0.0445  0.1314 -0.1125
24115W        W40589   2.436   4.340  14.991  0.1127 -0.3882  0.0533
24116W        W40590   0.489   8.510  15.008 -0.1962  0.2615 -0.0799
24117W        W40591   2.096  13.630  12.105 -0.0905  0.0479 -0.1319
24118W        W40592   0.486  11.278  14.123 -0.0700  0.1546 -0.3662
24119W        W40593   6.553  16.626  15.287 -0.1725  0.2929  0.0714
24120W        W40594   7.337  13.968  13.357 -0.0782  0.2694  0.2311
24121W        W40595   1.217  16.038   3.677  0.2090 -0.1866  0.0083
24122W        W40596  12.312  10.458  15.819  0.1279  0.0302 -0.2286
24123W        W40597  17.269   7.794  12.604  0.2205  0.0210  0.2662
24124W        W40598   7.152   8.774   3.485 -0.0972  0.0222  0.1540
24125W        W40599   3.980   8.130  14.855  0.1851 -0.0375  0.0896
24126W        W40600  10.054   5.196   4.743 -0.1169 -0.0664 -0.2094
24127W        W40601  10.037   6.737  12.990  0.1158  0.2714  0.1082
24128W        W40602   5.750   7.057  12.222 -0.1705 -0.3987 -0.0466
24129W        W40603   9.774  13.826  14.388 -0.1058 -0.0645 -0.1203
24130W        W40604  17.127  14.321  12.788  0.1915  0.1942 -0.0726
24131W        W40605   6.448  17.889  15.888  0.2464 -0.1424  0.0331
24132W        W40606   5.301  10.754   3.830  0.0534 -0.1494 -0.0015
24133W        W40607   6.669  10.659   2.908 -0.2103 -0.1327 -0.0663
24134W        W40608  15.356   0.606  14.378 -0.0778  0.1456 -0.0908
24135W        W40609  17.058   7.343  15.837  0.1133  0.4885 -0.0289
24136W        W40610  14.229  13.232  13.512 -0.0676  0.1569 -0.0978
24137W        W40611   3.699  15.610   5.034 -0.0428 -0.2145 -0.0259
24138W        W40612   0.507   4.939  13.899 -0.0678 -0.2654  0.2171
24139W        W40613   8.901   2.817  15.845 -0.0613 -0.2700  0.0764
24140W        W40614   8.540   8.116   0.474  0.1773  0.0153 -0.0934
24141W        W40615   2.248  14.373  15.229  0.0478  0.2882  0.1308
24142W        W40616  16.942  14.077   0.459  0.2504 -0.1596 -0.2590
24143W        W40617   7.925   5.523   5.419  0.1830  0.0289 -0.3741
24144W        W40618   9.630  16.723  12.796  0.1182 -0.2909 -0.2010
24145W        W40619   9.495   1.143   4.750  0.0635 -0.2820  0.0582
24146W        W40620   8.339   2.874  15.057 -0.0153 -0.0343  0.1935
24147W        W40621  16.708  10.037   0.572 -0.0592 -0.3346 -0.2538
24148W        W40622   6.903   4.291   3.516  0.1209 -0.0789 -0.1671
24149W        W40623  13.141  15.163   1.067 -0.0028  0.0814  0.0184
24150W        W40624  13.772  14.540  11.308 -0.2811 -0.1256 -0.0895
24151W        W40625   1.997   7.371  14.180 -0.0528  0.2197  0.1263
24152W        W40626  17.308  10.529   4.520  0.1201  0.3630  0.0630
24153W        W40627   5.416   1.710   2.187  0.0980  0.1536 -0.2102
24154W        W40628   7.912  13.638   4.430 -0.0084  0.0681 -0.3686
24155W        W40629  16.997   0.786  15.156  0.0994 -0.0627 -0.0713
24156W        W40630   6.847  16.577  15.690 -0.0907  0.0250  0.1182
24157W        W40631  12.485  11.344   3.286  0.1338 -0.0055  0.0674
24158W        W40632   9.897  15.433   3.717 -0.2774 -0.1638 -0.1327
24159W        W40633  12.215  10.276   4.827  0.1859 -0.0855 -0.1522
24160W        W40634   5.944  11.849  11.677  0.4007 -0.1636 -0.0795
24161W        W40635   0.441   4.631   2.466  0.0417  0.0372 -0.1444
24162W        W40636  10.726   4.960   3.762  0.2226  0.0323 -0.2105
24163W        W40637  14.746  11.970   0.281  0.3103 -0.0149  0.1098
24164W        W40638   3.814   9.153   2.132  0.1796  0.1333  0.0286
24165W        W40639   7.685   6.784   3.337 -0.2369 -0.1339 -0.0150
24166W        W40640  15.010   6.994  12.993 -0.0991 -0.1823 -0.2752
24167W        W40641   3.712  11.828  14.392 -0.0654  0.1413 -0.0652
24168W        W40642  14.372   3.753   5.007 -0.3381 -0.0857 -0.0851
24169W        W40643   1.752   9.137  14.385 -0.0715  0.1302 -0.3096
24170W        W40644   7.550   1.720  15.995  0.1428  0.1561 -0.2149
24171W        W40645   8.014   0.063   5.419 -0.0732 -0.0804  0.0486
24172W        W40646  12.256   4.948   2.531 -0.0017  0.1786  0.2763
24173W        W40647   3.413  11.243  13.088 -0.1881  0.0926  0.0416
24174W        W40648  17.849  17.861  15.230 -0.1917 -0.0792  0.0480
24175W        W40649  12.821  16.963   0.070  0.1352  0.1306  0.0025
24176W        W40650   4.205   9.261   3.902 -0.0371 -0.1385  0.1255
24177W        W40651   3.050  12.279  12.408 -0.0005 -0.0246 -0.1430
24178W        W40652   5.670   3.822   1.366 -0.1927  0.1827 -0.1307
24179W        W40653  11.547   3.827  16.058 -0.1149 -0.1638  0.0412
24180W        W40654  10.880  16.099  13.186  0.2763  0.0143 -0.1056
24181W        W40655   6.474  12.774  12.210 -0.1177  0.0492 -0.1566
24182W        W40656   6.813   5.239  11.984 -0.1432 -0.0661 -0.2410
24183W        W40657   2.964   0.360   0.815 -0.0876  0.2607  0.3459
24184W        W40658   7.222  17.327   4.056  0.0279  0.0822  0.0745
24185W        W40659  10.830   4.638  12.077 -0.1541  0.1006 -0.0250
24186W        W40660   8.367  18.122  15.905 -0.1239  0.1115  0.5361
24187W        W40661  16.219   2.945  12.069 -0.2790 -0.0994 -0.0458
24188W        W40662   8.205  13.876   1.928  0.0442 -0.1240 -0.0818
24189W        W40663  11.767  14.167  10.440  0.1199 -0.2250 -0.1070
24190W        W40664   3.061  16.713   2.766 -0.0758 -0.0522  0.1327
24191W        W40665  10.196  11.495   4.601 -0.0426  0.2072  0.3957
24192W        W40666  12.112   8.639  14.103 -0.0960 -0.5479  0.0689
24193W        W40667  12.654   6.360   3.686  0.1489 -0.1366 -0.1443
24194W        W40668  13.259  11.332  12.252 -0.4027 -0.1081 -0.0131
24195W        W40669  17.893  12.153  13.345 -0.2185 -0.4328  0.1838
24196W        W40670  15.078  14.855  12.605  0.2901  0.0967 -0.1693
24197W        W40671   8.919   0.820  15.170  0.2627 -0.3797  0.0136
24198W        W40672   3.000  18.022  14.400 -0.0541 -0.0272 -0.0993
24199W        W40673   5.570   1.128  12.006 -0.1241  0.2307  0.0895
24200W        W40674   1.675   5.604  12.659 -0.4356 -0.0401 -0.1141
24201W        W40675   1.578  15.281  14.435  0.2663 -0.1043 -0.0519
24202W        W40676  16.422   0.687   4.852 -0.2836  0.1267  0.0181
24203W        W40677  18.046   0.104  11.192  0.0607 -0.0572 -0.2671
24204W        W40678   1.552   9.008  11.987 -0.2492 -0.2344 -0.1634
24205W        W40679  16.831   8.253   1.699  0.2462  0.2532  0.0495
24206W        W40680   0.423  11.424  15.709  0.1902  0.3725 -0.1759
24207W        W40681   6.452   8.674  12.882  0.0605 -0.0515 -0.0883
24208W        W40682   4.885  12.108   1.013 -0.1318  0.0103  0.0286
24209W        W40683  15.518  16.933  13.910 -0.0699  0.0467  0.3081
24210W        W40684   4.083   0.167   3.061 -0.0629  0.0080  0.1474
24211W        W40685   7.731  17.406   2.525 -0.0796  0.0123  0.0512
24212W        W40686   4.026  16.482  11.602  0.1793  0.1938  0.0895
24213W        W40687   3.051  18.084  16.176 -0.2162 -0.1183  0.0703
24214W        W40688  15.314   6.797  15.295  0.2281  0.1615  0.0870
24215W        W40689  16.817  14.309   5.174 -0.1035 -0.1971 -0.1029
24216W        W40690   6.623   3.843  12.670 -0.0207 -0.3199  0.2399
24217W        W40691  15.153   5.879  14.157  0.0292  0.2195 -0.1039
24218W        W40692  17.709   5.222   1.972 -0.1922  0.1451  0.0770
24219W        W40693  16.468   1.729   0.091 -0.2915  0.0687  0.3534
24220W        W40694  16.262   9.100  15.728  0.1971 -0.1915 -0.0058
24221W        W40695  12.665  15.426   0.473 -0.1971 -0.0128 -0.0976
24222W        W40696  12.713   2.630  15.508  0.0075 -0.4477 -0.1795
24223W        W40697  12.497  13.516  12.714 -0.2424  0.4031 -0.0599
24224W        W40698  13.351   0.153   0.851 -0.1534 -0.0340 -0.1327
24225W        W40699  13.310  11.846  11.294  0.1210  0.2166  0.3685
24226W        W40700   0.019   6.151   2.432 -0.2131 -0.3891 -0.0773
24227W        W40701  11.264  14.376   2.140  0.1267  0.0668  0.1254
24228W        W40702   1.146  16.146   1.507 -0.0073  0.1109 -0.3252
24229W        W40703  16.012  15.264   5.447  0.3747  0.3258 -0.0957
24230W        W40704   0.996   6.885  12.876 -0.2360 -0.0298  0.2559
24231W        W40705  17.175  15.672   1.440 -0.1708  0.3181 -0.0788
24232W        W40706   9.144  11.685  13.582  0.2071  0.2721 -0.0387
24233W        W40707  14.275   4.556  13.127 -0.1581 -0.0540  0.0916
24234W        W40708  10.396   0.346  11.512 -0.1737  0.1573 -0.0732
24235W        W40709   3.939  10.135   5.438 -0.1312  0.1439  0.1674
24236W        W40710  15.786  17.664  16.021 -0.0096 -0.0516 -0.2353
24237W        W40711   9.863   7.904   4.269  0.0876  0.2827 -0.0763
24238W        W40712  15.106  11.084  13.536  0.2554 -0.0848 -0.0577
24239W        W40713   2.677   2.082   3.461  0.0979 -0.1619 -0.1635
24240W        W40714   3.759  17.766  11.954 -0.3523  0.2052 -0.0255
24241W        W40715   1.021   3.933   0.022 -0.0036  0.1421 -0.0389
24242W        W40716  11.351  17.554   4.696  0.2696  0.0183 -0.2641
24243W        W40717  10.585   6.238  11.472  0.0677 -0.1454  0.2918
24244W        W40718  14.942  13.891   3.266  0.1537  0.2493 -0.0485
24245W        W40719   1.111  16.710   1.699  0.0877  0.2675  0.3824
24246W        W40720  13.341   4.132   5.202 -0.1522  0.1074  0.0543
24247W        W40721   3.223   8.390  15.388 -0.0541 -0.0611  0.0243
24248W        W40722  16.078  15.165  11.559 -0.1242 -0.1119  0.1404
24249W        W40723  10.068  16.429   0.103 -0.1657 -0.2487  0.0184
24250W        W40724  16.956   5.417   1.532 -0.2266  0.3371 -0.1794
24251W        W40725  17.606  10.145  11.798  0.0816  0.3572 -0.0409
24252W        W40726   9.256  17.252  12.329 -0.0197  0.1429  0.0387
24253W        W40727   7.343  15.078   4.581  0.0977  0.1632 -0.1894
24254W        W40728  13.976  10.803   4.537  0.1654  0.1577  0.0556
24255W        W40729  10.009   5.464   3.396 -0.0083  0.0648  0.1398
24256W        W40730   4.270  16.146  15.740  0.2649 -0.1052 -0.1073
24257W        W40731  12.944   0.116   4.814  0.2414 -0.0174  0.1041
24258W        W40732   9.908   8.442   3.548 -0.0084  0.2364 -0.0689
24259W        W40733   8.153   8.905  12.330  0.1388 -0.0590 -0.1098
24260W        W40734   6.782  17.379  15.121 -0.0897  0.2511 -0.3075
24261W        W40735   4.452  17.476  13.622 -0.2029  0.1833 -0.2447
24262W        W40736  16.630  15.974  11.575 -0.2493  0.4158 -0.0709
24263W        W40737  16.555  13.435   0.066 -0.0850  0.2111  0.2372
24264W        W40738  13.476  14.687  16.055  0.1239 -0.2344  0.0618
24265W        W40739  16.503  16.159   0.423  0.2861  0.0105  0.3226
24266W        W40740  11.114   8.251  12.627  0.0113  0.0407  0.2585
24267W        W40741  12.738  10.568   3.776 -0.0020  0.0166 -0.1708
24268W        W40742   3.015   8.043  11.504 -0.1789  0.2591  0.5241
24269W        W40743   3.884  11.264  12.846  0.1297 -0.0156  0.2659
24270W        W40744   6.635  14.670   6.184  0.0085 -0.0755 -0.1128
24271W        W40745   5.187  11.797   1.845 -0.1626 -0.1051  0.1471
24272W        W40746  15.569  12.978   0.761 -0.3787  0.2739 -0.0043
24273W        W40747   9.797  17.887   1.881 -0.0409 -0.1868  0.1442
24274W        W40748  18.021  11.516  13.452 -0.1874  0.0077  0.0461
24275W        W40749   5.470   6.064   5.653  0.1264 -0.1209  0.1650
24276W        W40750  15.889   4.719   1.218 -0.0192  0.0438 -0.2461
24277W        W40751   1.625  16.486  13.734  0.1123 -0.3213  0.0202
24278W        W40752   7.109  14.089  14.671  0.1468  0.0727  0.1081
24279W        W40753  12.406  11.500   2.781 -0.1890 -0.2234 -0.1732
24280W        W40754   4.287   4.300   4.468 -0.3296  0.0429 -0.3253
24281W        W40755  17.961  17.515   1.838 -0.1643 -0.1160 -0.2486
24282W        W40756  16.602   6.703  10.972  0.1146  0.2786 -0.2654
24283W        W40757   9.574  16.457  10.940 -0.0605 -0.0117  0.1224
24284W        W40758  10.275  15.021  14.064 -0.3173 -0.1123 -0.1704
24285W        W40759   1.863   0.544  13.031 -0.0406  0.1326  0.0031
24286W        W40760  15.189  13.395  12.702  0.0566 -0.2679 -0.0504
24287W        W40761   9.043   0.806  11.369  0.1159 -0.0734  0.0502
24288W        W40762  15.904   8.537  15.736 -0.0749 -0.2002  0.4004
24289W        W40763  12.517  16.518  11.662  0.0968 -0.1736 -0.0630
24290W        W40764   6.414  13.868   1.550  0.2293 -0.3369  0.0568
24291W        W40765  12.255   1.582   1.348  0.0188 -0.2037  0.1182
24292W        W40766   3.749  17.621   0.728 -0.0337 -0.0782 -0.2262
24293W        W40767  15.458  14.065  13.876 -0.0401 -0.0895  0.0135
24294W        W40768   9.511  13.464  15.695 -0.0101  0.2713  0.3809
24295W        W40769   8.618  16.067   5.423 -0.1662  0.0454  0.1773
24296W        W40770   9.121   0.459  13.451 -0.2548  0.1871 -0.4494
24297W        W40771  11.390   3.711  13.464 -0.0031 -0.0196  0.1732
24298W        W40772   6.794   8.919  15.763  0.1150  0.2080 -0.1984
24299W        W40773   9.413   9.898  14.448 -0.2801 -0.4179 -0.1328
24300W        W40774  16.110   3.086  13.042  0.0326  0.5606 -0.1157
24301W        W40775   6.474  14.385   4.673  0.0371  0.0967  0.0834
24302W        W40776  15.131  14.211   2.645  0.1766 -0.0974 -0.3677
24303W        W40777   2.061  16.140   3.689 -0.0053  0.0436  0.2006
24304W        W40778   9.687   4.886  12.455 -0.1108 -0.2718 -0.1484
24305W        W40779  14.289  16.318   2.480 -0.0690 -0.2725  0.1529
24306W        W40780   2.397  17.129  15.451  0.0122  0.0139 -0.1503
24307W        W40781   2.254   9.214  13.797  0.0078 -0.0588 -0.1577
24308W        W40782  16.073   1.495   4.391 -0.3170 -0.0686  0.0210
24309W        W40783   1.743  11.642  15.651  0.1509  0.1435  0.1499
24310W        W40784   9.800  16.521   4.913  0.1321  0.5272 -0.0981
24311W        W40785   8.291  11.588   1.227  0.0126  0.0045 -0.0529
24312W        W40786  12.427   4.396  11.982  0.1811 -0.2637  0.0943
24313W        W40787   2.227  15.595   5.102  0.1544 -0.0485  0.0214
24314W        W40788   1.399  14.320   0.844 -0.1072 -0.3350 -0.0164
24315W        W40789  18.050  17.194   2.906  0.3239  0.2114 -0.0855
24316W        W40790  12.738  13.961   1.597 -0.1288  0.3371 -0.4114
24317W        W40791  16.138   6.375  14.448  0.0818  0.2440  0.1557
24318W        W40792   0.555   5.646   5.211  0.2792  0.2201  0.1518
24319W        W40793  12.972   6.944  12.320 -0.0820 -0.2673  0.3432
24320W        W40794  12.320  12.002  13.925  0.1015 -0.1276  0.1456
24321W        W40795   1.920   4.269  16.056  0.1587 -0.2191  0.0297
24322W        W40796   0.096   1.196   0.842 -0.0119  0.0283  0.0561
24323W        W40797   6.055   8.338   5.411  0.2797 -0.1945  0.1043
24324W        W40798  15.462  17.270  14.314  0.0671  0.1236  0.1622
24325W        W40799   4.330  16.149  11.351  0.1861 -0.1729  0.1498
24326W        W40800   6.022   1.896   2.755 -0.0757 -0.0114 -0.2135
24327W        W40801  17.238  16.797  15.260  0.2898 -0.0888 -0.0371
24328W        W40802   1.364   5.185  13.862 -0.2203  0.2122 -0.1610
24329W        W40803   6.710  12.898  14.785 -0.2202  0.3196  0.5052
24330W        W40804  12.728   4.910   2.280  0.0581  0.1211 -0.0257
24331W        W40805   9.780  12.419   4.873 -0.4367  0.1181  0.0638
24332W        W40806   2.826   0.564   0.296  0.0826  0.0167  0.0557
24333W        W40807  15.568  11.282  10.650 -0.1848 -0.1672 -0.0528
24334W        W40808   8.295  14.701   5.285  0.0293 -0.1402  0.2333
24335W        W40809   2.902   9.800  14.078  0.0640 -0.0381  0.3850
24336W        W40810   6.110  12.350   2.699  0.1052 -0.2171 -0.1636
24337W        W40811   3.305   6.047  15.422 -0.2623 -0.0537 -0.2657
24338W        W40812   3.119  12.675   0.428 -0.0442  0.0924 -0.2910
24339W        W40813  10.796  10.159   3.514  0.0714 -0.0026 -0.2275
24340W        W40814   2.421   9.228  12.762  0.1955  0.0733 -0.0709
24341W        W40815   5.622  12.370  15.155 -0.0180 -0.0996  0.1070
24342W        W40816  15.387  18.091   3.271  0.2530 -0.1045  0.3892
24343W        W40817  10.370  14.031   4.937  0.2459  0.1051  0.1526
24344W        W40818   3.874   0.170  12.813 -0.1546  0.3071  0.0721
24345W        W40819   4.026  10.404   3.160  0.2927  0.4306  0.0116
24346W        W40820   0.465   2.118   3.495  0.0117 -0.1458  0.0646
24347W        W40821  11.198   1.364  14.728  0.1202 -0.0959  0.3940
24348W        W40822  16.551   2.888  10.238  0.0870 -0.2708 -0.1913
24349W        W40823   5.877   9.518  13.976  0.0458 -0.3096 -0.2503
24350W        W40824  17.960   6.779   3.309 -0.0817  0.0990 -0.1444
24351W        W40825   3.915  10.381   3.726 -0.1797  0.2210  0.1045
24352W        W40826  10.608  12.833   2.064  0.2146  0.0963  0.0757
24353W        W40827  10.180   0.119  15.351 -0.4979  0.0475  0.0327
24354W        W40828   9.036   6.917   3.564 -0.0412  0.0787 -0.2214
24355W        W40829   1.705  13.800   0.065  0.2579  0.2101 -0.0479
24356W        W40830  15.766  15.827   4.678 -0.3321  0.2882 -0.0541
24357W        W40831   0.831   6.753  13.731  0.3939  0.0893  0.1571
24358W        W40832  14.321   5.588  15.154 -0.2541  0.1367 -0.0471
24359W        W40833   4.552   0.151   3.194 -0.0780  0.3068  0.1587
24360W        W40834  16.323  12.986   2.995  0.1600  0.3364 -0.0244
24361W        W40835   8.327  13.710   0.799 -0.0057 -0.1256  0.0665
24362W        W40836   5.585   0.403   0.379 -0.0078 -0.3969 -0.0355
24363W        W40837  15.945   1.863  13.432 -0.0439 -0.0675 -0.0113
24364W        W40838   4.981   6.620  15.316  0.0432  0.0334 -0.0407
24365W        W40839  13.261  15.695   4.188 -0.0948  0.1279 -0.1984
24366W        W40840   9.507   5.742  16.309  0.2649  0.1805  0.0053
24367W        W40841   5.674  15.124  15.605  0.2283  0.0917 -0.0074
24368W        W40842  13.491  16.088   4.473 -0.1634 -0.0557  0.0702
24369W        W40843   9.988   5.410  12.464 -0.0331 -0.1774  0.2986
24370W        W40844   5.107   3.827  13.573  0.1347 -0.2142  0.0765
24371W        W40845   9.841  11.241  14.634 -0.0076 -0.0865  0.2517
24372W        W40846  11.664   7.195  14.219  0.1330  0.0811 -0.1562
24373W        W40847   5.515  16.562  14.191 -0.1929 -0.0671  0.2636
24374W        W40848  10.271  12.923  11.390  0.1934 -0.0020 -0.1359
24375W        W40849   2.605  13.434  11.952 -0.0790  0.1649  0.3149
24376W        W40850   3.688   3.463   3.456 -0.0604 -0.2194  0.2043
24377W        W40851  16.564  12.202   0.724  0.1234 -0.1429 -0.1394
24378W        W40852  17.630   9.273   1.851  0.1950  0.2319  0.0813
24379W        W40853   1.489   4.893   0.044  0.1209  0.0445  0.0189
24380W        W40854  15.361   3.489  15.534  0.1399 -0.0085 -0.0595
24381W        W40855  16.504  15.134   2.499 -0.2400 -0.1448  0.0078
24382W        W40856  14.239   9.981   5.088  0.2577 -0.0585 -0.0731
24383W        W40857   4.427   6.212  11.447  0.0382  0.1537 -0.1041
24384W        W40858  17.468  17.889   4.320  0.1152 -0.0719  0.3840
24385W        W40859  16.901   9.028  16.347 -0.1090  0.0193  0.2277
24386W        W40860   3.647   5.495   2.505  0.3464 -0.1503  0.0278
24387W        W40861   7.885   4.317  14.423 -0.1975  0.2429  0.0626
24388W        W40862   1.141   0.172   0.622 -0.2005  0.0944 -0.0258
24389W        W40863   0.917  17.564  15.477 -0.1526 -0.0120 -0.0182
24390W        W40864  13.305  17.116   1.032  0.0574  0.1841  0.1547
24391W        W40865  10.628  10.283   1.234  0.0843 -0.0270  0.1078
24392W        W40866   5.409  14.897  15.951  0.1343  0.2375 -0.2825
24393W        W40867  11.378  17.651   3.800  0.0324  0.3065  0.1004
24394W        W40868   6.569   1.082   1.577  0.0853  0.1422  0.1316
24395W        W40869  13.222   2.479   4.872 -0.1108  0.2003 -0.4507
24396W        W40870  10.570   4.527   4.056 -0.2738  0.1455  0.2259
24397W        W40871   1.646  16.668   4.345  0.1374  0.3431  0.0275
24398W        W40872  12.036   9.516   3.951  0.1134 -0.0484  0.1217
24399W        W40873   9.846   0.496   3.341 -0.1226  0.1701 -0.1382
24400W        W40874  16.910  16.043   1.650  0.0114  0.2046 -0.1273
24401W        W40875   6.818   2.671  12.960  0.2834 -0.0548 -0.0987
24402W        W40876  17.165   0.025  14.016  0.0960 -0.0082 -0.0705
24403W        W40877  11.014  14.880  11.875  0.2124 -0.0097  0.0471
24404W        W40878   0.062   8.177  15.965  0.2221  0.0038 -0.2196
24405W        W40879   6.039  14.701  14.350  0.1064 -0.2723 -0.0310
24406W        W40880   0.085   6.255   3.389 -0.0497  0.2234  0.2404
24407W        W40881   7.941  16.059  14.636  0.0954  0.1314 -0.0340
24408W        W40882   3.180   5.862   4.973 -0.1930  0.1577 -0.1717
24409W        W40883  10.185  15.471  13.392  0.2287  0.4327 -0.0599
24410W        W40884   3.827   2.189  14.848  0.0774 -0.1659 -0.2780
24411W        W40885   1.356  18.091   4.262 -0.0185  0.0254  0.1420
24412W        W40886   3.340   6.266   0.128  0.0564 -0.1016  0.1607
24413W        W40887  12.587  14.507   1.626  0.0400  0.1297 -0.0371
24414W        W40888   2.158   8.605  15.714  0.0230 -0.1468  0.2181
24415W        W40889   2.289   6.279   4.285 -0.1210  0.0674  0.1604
24416W        W40890   4.277   6.026   3.896 -0.1600  0.3758 -0.0266
24417W        W40891  10.994   2.513   0.448 -0.0386 -0.0262 -0.2089
24418W        W40892  17.141   1.786  15.715 -0.2614 -0.0356  0.3365
24419W        W40893  18.022  18.158   3.884 -0.4890 -0.2485 -0.2214
24420W        W40894   1.500   6.122   4.958 -0.3389  0.0875 -0.1417
24421W        W40895   1.767  17.017  14.210 -0.0700 -0.1006 -0.0264
24422W        W40896   6.246   0.092   1.006  0.3742 -0.1002 -0.3389
24423W        W40897  11.452  10.405  14.231  0.2162 -0.0708 -0.3886
24424W        W40898  17.203   0.862  14.505  0.3205 -0.1094 -0.0560
24425W        W40899  14.508   7.646   4.743  0.1143  0.2948  0.3514
24426W        W40900  15.253  17.720  14.447 -0.0581 -0.2061  0.0865
24427W        W40901  11.658   2.848  12.896  0.1065  0.0491 -0.1703
24428W        W40902   7.874   9.281  15.706  0.2865  0.1497  0.3609
24429W        W40903   0.124  11.206  14.574  0.2960 -0.0812  0.1074
24430W        W40904  10.246   5.683   0.664 -0.0924 -0.0201  0.1230
24431W        W40905   9.795  12.041  15.031  0.0051  0.1526 -0.0315
24432W        W40906   1.503   0.807   5.004 -0.0101  0.1896  0.0761
24433W        W40907  16.183  11.015   2.828 -0.1447  0.1884 -0.2529
24434W        W40908  13.549  16.426  11.798  0.3053 -0.2443 -0.2601
24435W        W40909   1.552  10.774   5.071  0.2123  0.1745 -0.1854
24436W        W40910   2.094  16.041   5.178  0.5195 -0.0011  0.1625
24437W        W40911  11.656  15.129  12.468 -0.0603 -0.0131 -0.2351
24438W        W40912   5.073   7.427  14.651 -0.0192 -0.0331 -0.2488
24439W        W40913   9.483  11.139   0.835 -0.2160 -0.0211 -0.1252
24440W        W40914   9.363   2.618  15.844  0.0275 -0.4562  0.0179
24441W        W40915  13.376  11.186   3.544 -0.4903 -0.2684  0.1035
24442W        W40916  11.247   7.144   0.417 -0.0782 -0.0772 -0.4105
24443W        W40917  15.755  16.430   2.638 -0.0349 -0.1000 -0.0679
24444W        W40918  16.725  13.071  12.013  0.1002 -0.0730  0.3242
24445W        W40919   5.820   6.824  13.859 -0.3528 -0.0488 -0.0277
24446W        W40920   8.618   2.988  14.015  0.1017  0.0022 -0.0984
24447W        W40921   7.123  13.086   1.903  0.0718  0.2822  0.0532
24448W        W40922  15.847   0.850  11.064  0.1352 -0.1097 -0.2050
24449W        W40923   9.988  16.775   5.300  0.0692 -0.1670  0.3002
24450W        W40924   4.003   7.798  12.907  0.0203  0.1958 -0.0517
24451W        W40925  15.475   6.078  15.574  0.2870  0.0317  0.4013
24452W        W40926   8.426  12.001   1.487  0.0490  0.1611  0.1589
24453W        W40927  18.101  17.789   0.971  0.1842  0.1004 -0.0413
24454W        W40928  12.875   0.435   1.932 -0.1328 -0.2017 -0.1358
24455W        W40929   1.652  12.263   0.768  0.0468  0.0624  0.0788
24456W        W40930   3.216   4.605  11.785 -0.2526  0.0661  0.0545
24457W        W40931   1.634   8.324   5.623  0.3610  0.1325  0.0794
24458W        W40932   7.893  15.591   3.093  0.2690 -0.0154 -0.2188
24459W        W40933   6.637  16.569   4.071 -0.2799 -0.0675 -0.1331
24460W        W40934   7.299  17.439   0.372  0.0164  0.0205  0.0699
24461W        W40935  17.375   2.820  11.038  0.1570  0.2104 -0.0271
24462W        W40936   4.583  11.612  14.901  0.1769 -0.1086 -0.1019
24463W        W40937   7.596  17.993  12.016 -0.1180  0.1116 -0.0271
24464W        W40938   3.085   8.931   1.628  0.2260  0.1412 -0.2126
24465W        W40939  13.444  13.859   3.134 -0.1127 -0.0835 -0.2375
24466W        W40940  15.185  15.376  11.365 -0.2064 -0.2398 -0.2408
24467W        W40941   0.181   5.398  14.543  0.0909  0.2469  0.1237
24468W        W40942   6.195  15.925  12.482 -0.0389  0.2395  0.1041
24469W        W40943   7.836  16.397   2.463 -0.0085  0.1502  0.3346
24470W        W40944   9.206  10.618   1.935  0.0874 -0.3516 -0.3622
24471W        W40945   4.676   3.097   4.487 -0.0581  0.3393 -0.0402
24472W        W40946  16.782  15.420   2.182 -0.2394 -0.1477  0.0095
24473W        W40947   3.013   5.540   2.022  0.1434  0.0830 -0.0337
24474W        W40948  10.883   6.656  15.780 -0.1655 -0.2088 -0.1543
24475W        W40949   2.698  13.282  14.393 -0.1299  0.1260  0.3002
24476W        W40950   6.043   0.425  12.576 -0.0866  0.0307  0.2604
24477W        W40951   6.973   0.676   2.292 -0.0569  0.0570 -0.0349
24478W        W40952  15.421   3.819  16.191 -0.2326 -0.1050  0.1450
24479W        W40953  12.271   9.956   4.019 -0.0382  0.1518  0.0433
24480W        W40954  17.844  11.845  11.209  0.3345  0.3499  0.0645
24481W        W40955   2.226  15.368   1.125 -0.2972  0.0413 -0.2153
24482W        W40956  16.173  14.290   3.479  0.3075 -0.0999  0.2934
24483W        W40957  14.664  10.856   3.689  0.0493 -0.1836 -0.2187
24484W        W40958  14.134   0.074   3.575  0.1842  0.2109  0.2231
24485W        W40959  17.731   0.086  15.663 -0.1627 -0.0256  0.0623
24486W        W40960  16.301   7.687  12.632  0.0526 -0.0034  0.1439
24487W        W40961   3.346   5.204   2.258 -0.0515  0.3127  0.0583
24488W        W40962  17.622   6.112   5.074  0.0644 -0.0581 -0.2769
24489W        W40963   9.466   4.732   1.401  0.1827  0.0970 -0.0161
24490W        W40964   8.513  10.361   3.309  0.1931  0.3613 -0.3890
24491W        W40965  14.515  11.711  12.329  0.0329 -0.2047  0.1188
24492W        W40966  16.289   2.190   0.393  0.1857 -0.0372  0.0708
24493W        W40967  12.512  10.142   3.014  0.0863  0.1027  0.1640
24494W        W40968  15.145  13.826   3.713 -0.0830 -0.0141 -0.2154
24495W        W40969   3.617   5.971  13.994 -0.2010  0.0237  0.2701
24496W        W40970  17.145  11.752   5.891  0.3072  0.1112 -0.0914
24497W        W40971  10.054  16.709  14.883 -0.0543  0.2723 -0.0369
24498W        W40972  13.010  17.479   1.247  0.1141 -0.1653  0.1127
24499W        W40973   6.129   8.178  16.341 -0.1817 -0.2181  0.1861
24500W        W40974   9.557   8.261  11.303  0.0374 -0.0815 -0.0506
24501W        W40975   1.024   4.101  15.783  0.1393  0.0977  0.0402
24502W        W40976   7.737  10.488   3.763 -0.4249  0.0414  0.0439
24503W        W40977   7.475  16.584  12.107  0.0811 -0.0829 -0.0135
24504W        W40978  17.912   7.729   4.113 -0.0160 -0.0650  0.2668
24505W        W40979  16.374   8.659  13.388  0.1609  0.0307  0.0520
24506W        W40980  10.786  16.092  16.110 -0.1165 -0.0872 -0.0029
24507W        W40981  17.284  13.750  13.446 -0.0292 -0.1173  0.1110
24508W        W40982  13.380   1.554   5.082 -0.0883  0.0830 -0.1496
24509W        W40983   6.607   4.752   0.285  0.1258  0.0545  0.1151
24510W        W40984  10.913   2.644  14.963 -0.4427  0.0506  0.0750
24511W        W40985   7.935   7.349   3.235 -0.0229 -0.1389 -0.0747
24512W        W40986   6.354   3.513   2.720 -0.1949  0.2125  0.0209
24513W        W40987   3.100   2.853   3.304  0.1492  0.2396  0.0510
24514W        W40988  16.594   9.939  12.714  0.0514 -0.1497 -0.1532
24515W        W40989   3.105  14.002   4.869 -0.0951  0.2810 -0.1841
24516W        W40990   3.130  15.852  15.240  0.0759  0.0922 -0.0154
24517W        W40991  17.039  16.845   2.055 -0.1743 -0.2316  0.0501
24518W        W40992   2.581  15.159   0.038 -0.1156 -0.1062 -0.0186
24519W        W40993  13.166   4.035   2.373 -0.0085 -0.0970  0.0292
24520W        W40994  14.153   4.705   0.378  0.0943 -0.0001  0.1164
24521W        W40995   9.926  15.476   4.608 -0.3726 -0.2476  0.1266
24522W        W40996   2.132   9.069   4.181 -0.1291 -0.0899 -0.0447
24523W        W40997   2.465  14.770   0.491  0.1030  0.1908 -0.1869
24524W        W40998  10.460   8.797   1.035  0.1178 -0.2507 -0.0752
24525W        W40999   6.691  15.209   1.411  0.0928  0.1277  0.0645
24526W        W41000   8.758  12.259   2.279 -0.0655 -0.3051  0.2931
24527W        W41001  13.199   5.123  12.544  0.0056 -0.0601 -0.1224
24528W        W41002   3.962  18.031   5.289 -0.1491 -0.0058  0.1375
24529W        W41003   8.722  13.909  15.546 -0.2457  0.1339  0.2460
24530W        W41004  15.734  15.925   1.357  0.0796 -0.1125 -0.0530
24531W        W41005   3.206  17.280   2.056 -0.1738  0.0297 -0.0012
24532W        W41006   3.375  16.976   2.444  0.4483  0.1607  0.3013
24533W        W41007   0.634   1.514   2.530  0.0621 -0.1452 -0.0817
24534W        W41008  15.024   2.325   4.571  0.0832  0.0008 -0.0162
24535W        W41009  13.329  12.147   4.952 -0.2026  0.0366 -0.3809
24536W        W41010   6.040   9.882  11.323  0.2018 -0.0854 -0.1046
24537W        W41011  14.214  17.598   3.083  0.2085  0.0892 -0.0972
24538W        W41012  14.596  13.532   0.154  0.0620 -0.2299 -0.1901
24539W        W41013  16.357  10.998  13.007  0.5102 -0.0640 -0.0383
24540W        W41014   3.877   2.291  16.241 -0.1261 -0.4783 -0.1814
24541W        W41015   3.380   9.425   2.762 -0.0487 -0.2567 -0.1414
24542W        W41016  17.368   8.428   3.380 -0.1997  0.0424 -0.1693
24543W        W41017  12.762  10.582   1.222  0.0768 -0.1080 -0.2720
24544W        W41018   7.466   7.464  13.823 -0.2724 -0.3074 -0.1281
24545W        W41019   4.435  17.882  13.251 -0.4058 -0.0626 -0.1035
24546W        W41020   4.539   0.413  12.597  0.0687 -0.0872  0.1571
24547W        W41021   5.223  13.528   1.074  0.3460 -0.2190 -0.0624
24548W        W41022  10.613   2.385  15.239  0.2292  0.0828  0.3818
24549W        W41023   6.300   0.064  14.275 -0.0575 -0.2067  0.0418
24550W        W41024  10.312   1.569  10.559  0.0587  0.1893 -0.0361
24551W        W41025   5.344   8.484  15.921  0.1768 -0.2662  0.2099
24552W        W41026   5.839   5.957  12.424  0.1867 -0.0067  0.2758
24553W        W41027  16.020   5.464  11.268  0.0554  0.1133  0.2045
24554W        W41028   8.678  17.916  12.299 -0.2074  0.0282  0.0251
24555W        W41029   3.263   2.248  14.696  0.0123  0.1171 -0.2687
24556W        W41030  17.706   1.998  16.298 -0.1406  0.2404  0.1871
24557W        W41031   0.605   2.331  10.417  0.1023 -0.0969  0.1270
24558W        W41032   2.036  17.334  12.012 -0.0958 -0.0386  0.1583
24559W        W41033   7.440  14.714  15.435  0.1144 -0.0001  0.3555
24560W        W41034   2.063   7.970   3.239  0.1091  0.0607 -0.1769
24561W        W41035   3.847  16.323   0.669 -0.0290 -0.1592 -0.0185
24562W        W41036  15.829   2.833  10.996  0.1701 -0.2780 -0.2019
24563W        W41037  16.852  13.915  12.959  0.0365 -0.4777  0.1358
24564W        W41038  10.963   4.818  12.619 -0.1099  0.2390  0.0930
24565W        W41039  15.113   2.127  13.037  0.0291  0.1692 -0.0882
24566W        W41040   1.930   6.867  14.981 -0.1366 -0.0738 -0.2795
24567W        W41041  11.276  16.303  15.580  0.0855 -0.0985  0.0948
24568W        W41042   1.454   3.068   5.028  0.1860  0.0223 -0.0384
24569W        W41043   0.514   2.727   1.993 -0.0757  0.1718 -0.1699
24570W        W41044  12.299  16.422  12.136  0.1106 -0.2208 -0.0555
24571W        W41045   5.713  14.460   0.859  0.1954  0.1620 -0.0843
24572W        W41046   2.133   3.174  15.405 -0.1080  0.0020 -0.1211
24573W        W41047  15.129  16.755  12.132 -0.2795  0.0344 -0.0099
24574W        W41048   0.380  16.479   1.024 -0.0678  0.1914  0.0043
24575W        W41049   0.793   0.058   3.147  0.1266  0.1187 -0.0191
24576W        W41050   1.301  18.039   5.027  0.1363  0.1936  0.0509
24577W        W41051   5.563   0.830  12.892 -0.0169 -0.0645  0.2487
24578W        W41052  14.777   9.172   2.755  0.1951  0.1015 -0.2185
24579W        W41053   5.209   3.389   0.465 -0.0892  0.0729 -0.2952
24580W        W41054   5.008   4.755  11.494 -0.0059 -0.0810 -0.0533
24581W        W41055   9.430   7.966   2.266 -0.0991 -0.1392 -0.2012
24582W        W41056   4.683   8.494  16.330 -0.0752 -0.3709 -0.0165
24583W        W41057   6.210   7.785   3.109 -0.0119  0.0909 -0.1040
24584W        W41058   0.058  11.645   3.585 -0.2622  0.0162 -0.2619
24585W        W41059  18.093   0.072   2.543  0.0990 -0.0076 -0.1035
24586W        W41060  14.319   5.634  14.620 -0.4350 -0.0124 -0.0690
24587W        W41061   3.140   0.605   2.290 -0.0088  0.1736 -0.0739
24588W        W41062  17.641   3.918  11.795  0.0384 -0.1635 -0.1038
24589W        W41063   5.925   3.413   4.143  0.4661  0.2242 -0.0818
24590W        W41064  12.082   5.520   5.513 -0.4196 -0.3001  0.0884
24591W        W41065  17.254  16.204   5.287  0.1685  0.0727 -0.2552
24592W        W41066   3.390  15.344   0.551  0.0894 -0.0233 -0.0820
24593W        W41067   9.864  17.040  14.584  0.0585 -0.4110 -0.2271
24594W        W41068   5.373   3.428   2.914  0.2777  0.1639  0.1097
24595W        W41069  13.491  12.646   4.632  0.1672 -0.0368 -0.0891
24596W        W41070   6.170   6.421   1.520  0.2434 -0.1030 -0.1183
24597W        W41071   3.381   3.197   2.244 -0.1602 -0.3224  0.1184
24598W        W41072   8.360   7.362  11.832 -0.1138  0.3679 -0.0794
24599W        W41073  12.705  10.624   2.181  0.1157  0.0033  0.0961
24600W        W41074   4.042   0.760  10.609 -0.0748 -0.4062  0.0212
24601W        W41075  16.257   1.442  12.566  0.0750  0.3345  0.0627
24602W        W41076  16.530  16.099   2.759  0.0516  0.2661  0.3067
24603W        W41077  10.837  17.450   0.970 -0.0379  0.1604  0.0965
24604W        W41078   3.794  11.436  13.846  0.0947 -0.4218  0.1858
24605W        W41079  13.631   2.521  12.141  0.1860 -0.0104  0.0480
24606W        W41080   9.685   8.865  16.122  0.3526 -0.0700  0.2119
24607W        W41081   7.162   3.308   3.050  0.3496  0.0485 -0.3216
24608W        W41082  10.936   7.972   1.418  0.2290 -0.0956 -0.1736
24609W        W41083  15.497  12.062  16.004 -0.1629 -0.1485  0.4224
24610W        W41084  18.125  15.982  15.492 -0.3626  0.1907  0.2101
24611W        W41085   5.826   4.198   2.056 -0.0032 -0.1535  0.2087
24612W        W41086  12.623  10.180   2.429 -0.2108 -0.0426 -0.0696
24613W        W41087  16.478   6.072   3.176  0.0931  0.0751 -0.4568
24614W        W41088   6.079   8.452  10.710  0.0674 -0.2354  0.0055
24615W        W41089   6.149  15.931  15.614 -0.1789 -0.1900 -0.0263
24616W        W41090  10.131  15.514   1.080 -0.1440  0.0801  0.0930
24617W        W41091  17.618  12.028   5.810 -0.0755  0.0971 -0.3594
24618W        W41092  12.404   3.145   4.196 -0.1637 -0.2913  0.0037
24619W        W41093  12.631   2.878   4.804 -0.0669 -0.2071  0.1124
24620W        W41094   5.162   0.062   2.798 -0.0907  0.0893  0.3946
24621W        W41095   2.470  14.868  12.330 -0.1632 -0.1215 -0.0264
24622W        W41096  14.528  10.548  11.537 -0.1834  0.0135 -0.3436
24623W        W41097   2.479  13.621  12.401 -0.3832 -0.0889 -0.1224
24624W        W41098  16.205   7.356   2.121 -0.2353 -0.0224  0.0081
24625W        W41099   3.492  11.418   4.223 -0.1823  0.1349 -0.1420
24626W        W41100   6.752  18.042   1.781 -0.2608 -0.2145 -0.0562
24627W        W41101   9.103   3.968   3.302 -0.1067 -0.0926  0.0303
24628W        W41102  17.754  17.727  11.874 -0.0134 -0.1986  0.1137
24629W        W41103   1.824  11.492  11.725  0.1516 -0.4234  0.3897
24630W        W41104   5.462   0.826   1.174  0.1065  0.1045 -0.0966
24631W        W41105  17.125   8.849  15.920  0.0923 -0.1982  0.1935
24632W        W41106   4.779   7.764  11.701 -0.3219  0.1035 -0.0997
24633W        W41107  12.414  15.295  15.023 -0.2778 -0.0274  0.0247
24634W        W41108  16.705  11.796  10.198  0.1391 -0.1645  0.2286
24635W        W41109  11.657   9.313  13.893  0.3108  0.3011  0.1335
24636W        W41110   1.575  17.527   1.978 -0.0271 -0.0021  0.2386
24637W        W41111  17.378   7.325   4.322 -0.0058 -0.2799 -0.0626
24638W        W41112   1.035   3.617   0.418  0.2225 -0.0098  0.0418
24639W        W41113  14.521   9.585   5.544 -0.1238  0.0769  0.0744
24640W        W41114   9.923  12.409  12.116 -0.0386  0.0037  0.1311
24641W        W41115   2.268   9.195   1.732  0.0698 -0.2648 -0.0465
24642W        W41116   8.886   3.356  16.325 -0.1755  0.1578  0.2875
24643W        W41117  15.054   2.856  12.707 -0.1794 -0.0725  0.0282
24644W        W41118  12.446  15.109  12.248 -0.1076  0.0039 -0.1968
24645W        W41119  15.514  10.841  13.622 -0.1900  0.0748 -0.1765
24646W        W41120   3.478   7.466   1.935  0.2098 -0.1467 -0.0142
24647W        W41121   9.094   8.254   3.532  0.0473  0.0071 -0.3009
24648W        W41122  11.017  12.854  12.926 -0.2720 -0.2345  0.0222
24649W        W41123   5.068   5.245  13.783  0.0983 -0.0698 -0.1998
24650W        W41124   7.649  17.028   5.585  0.0898 -0.1822 -0.1364
24651W        W41125   0.259   6.990   0.783 -0.1636  0.0045 -0.2725
24652W        W41126  16.957  12.034   0.426  0.1017 -0.1909  0.0445
24653W        W41127   5.745  11.012   4.074 -0.0493  0.1386  0.2696
24654W        W41128  17.116   3.016  15.575 -0.2085 -0.2354 -0.1309
24655W        W41129   4.062  17.503   4.645 -0.1464  0.1272 -0.4065
24656W        W41130   0.483  15.682  14.618  0.0913  0.3030 -0.0711
24657W        W41131  10.118   9.350   4.495 -0.0359  0.0444 -0.0862
24658W        W41132  15.136  15.847  12.911 -0.0858 -0.2943 -0.0184
24659W        W41133   7.894   9.525   5.170 -0.0913  0.0436  0.1969
24660W        W41134  15.781   3.772   3.850 -0.1591 -0.1015  0.1085
24661W        W41135  13.331   4.845  13.815  0.0824  0.0609  0.2051
24662W        W41136  11.091   8.382   0.045  0.1985 -0.1562  0.2453
24663W        W41137   3.281  10.243  11.930  0.3760 -0.0984  0.2614
24664W        W41138   1.181   5.541  10.590  0.1447  0.2102 -0.0314
24665W        W41139  11.844  13.200   4.898  0.1875  0.1270  0.1279
24666W        W41140   5.130   4.728   5.976  0.0428 -0.1719 -0.0746
24667W        W41141  17.251   1.578   2.885  0.1150  0.1155 -0.1996
24668W        W41142   5.913   2.655   5.715 -0.1375  0.0160 -0.2321
24669W        W41143  11.836  17.834  12.396 -0.4190  0.1073  0.0022
24670W        W41144   4.528  14.081  13.931 -0.0723  0.2300 -0.1181
24671W        W41145   8.589  12.623  12.041 -0.0809 -0.1366  0.2057
24672W        W41146  16.833  16.813  14.056  0.0815 -0.0979 -0.1440
24673W        W41147   4.660   8.528  12.878  0.1541 -0.1845  0.0199
24674W        W41148  16.242  12.750  15.007  0.4061 -0.0277 -0.0588
24675W        W41149  17.208   5.585   0.417  0.2734  0.1141  0.1588
24676W        W41150   0.496   5.557   3.429  0.0758 -0.0614 -0.0462
24677W        W41151   6.949  13.035  15.220  0.1831  0.1154  0.0647
24678W        W41152  11.625  13.355  15.370  0.0858 -0.1404  0.0324
24679W        W41153   5.253   3.564  11.398 -0.0278  0.0266 -0.0747
24680W        W41154   4.478   9.148   0.263  0.2157 -0.0565  0.1955
24681W        W41155  15.910   2.598  12.264 -0.2042  0.0333  0.1298
24682W        W41156  15.818   3.547  11.329  0.1307  0.1404  0.1254
24683W        W41157   9.675  16.103   1.449  0.0441 -0.1367  0.3604
24684W        W41158  16.788   5.611  15.108 -0.0918  0.2073 -0.2283
24685W        W41159   5.073   8.110  15.462 -0.1233 -0.0448 -0.3159
24686W        W41160  16.990   1.508   0.790  0.0670  0.0620 -0.0633
24687W        W41161  12.730   2.542  12.463  0.1596 -0.2042 -0.0742
24688W        W41162  17.269  12.087   5.481 -0.1708 -0.3804  0.3894
24689W        W41163   8.309   5.254   5.010  0.0873  0.0170 -0.0580
24690W        W41164   1.334   0.759  14.593  0.0162 -0.2692  0.0618
24691W        W41165   8.954   1.751  13.174 -0.0840  0.0591 -0.2256
24692W        W41166  14.494  11.836   2.732 -0.4233  0.0983 -0.0824
24693W        W41167   0.716  16.782  14.160  0.0105  0.1087  0.1193
24694W        W41168   8.082  13.376   6.267  0.1225 -0.0121  0.0508
24695W        W41169   6.689  12.580   1.115 -0.0773 -0.1481 -0.0807
24696W        W41170   8.870  12.691   2.408  0.0292 -0.1824  0.0642
24697W        W41171  11.745   2.833  11.625 -0.0018  0.1134 -0.0804
24698W        W41172  16.736  12.052   4.666 -0.0421  0.2473  0.1028
24699W        W41173   7.387  15.610   3.259  0.0446 -0.4028  0.1933
24700W        W41174   4.460   6.952  14.189  0.2228  0.0389 -0.0388
24701W        W41175   4.817   8.837  14.219  0.0103  0.0535  0.2337
24702W        W41176  11.918  11.345  12.024  0.2280 -0.0795  0.0832
24703W        W41177  12.403   9.297   0.888 -0.1079  0.0772  0.0097
24704W        W41178  14.193   6.851   4.319  0.2710 -0.1251  0.2337
24705W        W41179  10.390   9.439   2.202  0.2175 -0.2811 -0.1528
24706W        W41180   2.722   8.653   3.308  0.1220 -0.0401 -0.2461
24707W        W41181   0.359   5.990   0.698 -0.1134 -0.3012 -0.2846
24708W        W41182  12.533   4.297   1.842 -0.1457  0.1478 -0.3125
24709W        W41183   6.803   1.920  15.251  0.0270 -0.1206 -0.1787
24710W        W41184   0.674   8.622  13.646  0.4357 -0.1842  0.2387
24711W        W41185  11.960  10.822   3.435  0.0043 -0.0706 -0.2760
24712W        W41186  17.639   3.157   1.095 -0.1630  0.1086 -0.0811
24713W        W41187   4.574  10.607   4.862  0.2064  0.3315 -0.0228
24714W        W41188   1.941   9.534  16.169  0.0425 -0.2741 -0.0899
24715W        W41189  12.176  11.035   2.801  0.1891  0.1638 -0.1283
24716W        W41190   2.167   4.794   1.537 -0.0113 -0.0287 -0.1628
24717W        W41191  15.718  16.620  14.489  0.0761  0.1546 -0.1294
24718W        W41192  13.474   4.905  15.227  0.0585  0.1794  0.1382
24719W        W41193   7.375   6.693  15.940 -0.0566  0.1133 -0.0892
24720W        W41194  10.160   9.451  11.544 -0.0888 -0.4635  0.2108
24721W        W41195  10.783  17.202   1.504  0.1140 -0.1069  0.1049
24722W        W41196   4.992  13.262   1.427  0.1541 -0.1152 -0.0598
24723W        W41197   8.525   4.210  12.353  0.0816 -0.1584  0.1847
24724W        W41198  10.417  14.639   1.745 -0.0731 -0.1164  0.1961
24725W        W41199  12.378  12.893   3.969  0.0820 -0.1513 -0.0200
24726W        W41200  12.149   0.467   0.219  0.2127  0.0351 -0.3052
24727W        W41201   2.053  16.707  14.978 -0.0342 -0.0974 -0.0293
24728W        W41202  17.387  10.484  13.766 -0.0068  0.2553  0.4597
24729W        W41203  12.361  17.882   3.947  0.0938  0.4149 -0.2617
24730W        W41204  17.612  14.603  13.997 -0.1102  0.1580  0.1010
24731W        W41205  16.324  10.063  14.388 -0.0200 -0.1036 -0.1730
24732W        W41206  17.190  16.551   0.996 -0.3884 -0.1803 -0.2210
24733W        W41207  15.460   2.153   4.682 -0.2136 -0.2605 -0.2239
24734W        W41208  16.941  10.283  13.416 -0.0400  0.5699  0.0240
24735W        W41209  12.360  16.031  15.269  0.1438 -0.1126  0.0894
24736W        W41210   0.935   4.138  14.642 -0.0602  0.0462  0.3426
24737W        W41211  10.198   1.561  13.993  0.2121 -0.3085 -0.0851
24738W        W41212   3.991  12.436  12.285 -0.0411  0.0625 -0.2064
24739W        W41213   0.393   5.936  10.479  0.1032  0.1700 -0.1552
24740W        W41214  10.050   5.611   5.175 -0.1229  0.0418 -0.2021
24741W        W41215  11.468  15.455  14.541  0.2917  0.0976 -0.2910
24742W        W41216   6.627  17.463  14.641  0.1397  0.0662 -0.1860
24743W        W41217   6.713  15.316  12.879 -0.1134 -0.0376 -0.0836
24744W        W41218  15.180  10.157  15.152  0.2590 -0.0987 -0.0975
24745W        W41219  13.239  11.032  12.822  0.2194  0.3723  0.2591
24746W        W41220  15.085  17.686   4.999  0.3426 -0.0506 -0.0925
24747W        W41221  15.150   7.754   1.556 -0.0493 -0.1818 -0.0861
24748W        W41222   2.258   7.699  11.251 -0.1536 -0.1262  0.1321
24749W        W41223   5.120   2.175   2.677 -0.1156  0.0933 -0.0569
24750W        W41224  17.783   1.143   4.456  0.1507 -0.0591  0.0505
24751W        W41225   4.113   8.330   2.948  0.2143 -0.0007  0.2912
24752W        W41226  11.266  16.211   2.235  0.1037  0.0205  0.1279
24753W        W41227  16.229   2.984  12.567 -0.2833 -0.0733  0.0189
24754W        W41228  17.292   1.476  16.211 -0.1148 -0.0337 -0.1198
24755W        W41229  11.338   8.641   3.193 -0.1838 -0.2198 -0.0156
24756W        W41230   1.603  12.726  14.284  0.1678 -0.1247 -0.0283
24757W        W41231   2.380  16.425   6.176  0.0993 -0.1344  0.1779
24758W        W41232   5.925  13.663  13.046 -0.0175  0.0723 -0.2167
24759W        W41233   6.043  14.475  13.243  0.0981 -0.1362 -0.1484
24760W        W41234   4.902   6.736   4.157 -0.2252  0.0626  0.0182
24761W        W41235  14.715   7.237   0.138  0.0698 -0.0431  0.3160
24762W        W41236   7.806   6.118   3.852  0.1181  0.0653 -0.1011
24763W        W41237   8.075   3.700   2.323  0.0940 -0.0351  0.0539
24764W        W41238  11.781  15.379  14.102 -0.0279  0.0071  0.2030
24765W        W41239   4.239   0.226  14.216 -0.0759  0.0901 -0.0663
24766W        W41240   4.750  12.023   3.066 -0.0890  0.3013  0.3471
24767W        W41241  17.942  10.035  14.333  0.0314 -0.0988  0.0257
24768W        W41242  11.823   9.438  15.652  0.0103  0.1507 -0.1526
24769W        W41243  17.940  14.033   2.908 -0.1975 -0.1672  0.0059
24770W        W41244   6.186   4.455   0.321  0.1430 -0.2037  0.2621
24771W        W41245   3.951   5.094   6.074  0.1460 -0.1180  0.3860
24772W        W41246  14.099   8.973   4.998 -0.2361  0.3663 -0.1442
24773W        W41247  16.962  18.109   4.081  0.0808  0.0008  0.0122
24774W        W41248   8.546  14.071   4.000 -0.1637 -0.1070 -0.0706
24775W        W41249  11.874   4.045   2.679 -0.1051  0.1553  0.2322
24776W        W41250   0.710  13.875  14.295  0.0625 -0.0970 -0.0805
24777W        W41251   1.756   4.798   0.543  0.0326 -0.2711  0.2797
24778W        W41252   4.220   3.382   2.555  0.2549 -0.0647  0.0969
24779W        W41253   8.461   9.248   4.402 -0.0341 -0.3398  0.0836
24780W        W41254   8.136  13.376  14.484 -0.1497 -0.1506  0.1614
24781W        W41255  10.181   5.748   1.537  0.2057 -0.2529 -0.0044
24782W        W41256  13.773  15.373  14.434  0.0928  0.0589 -0.1620
24783W        W41257   9.492  18.120   0.073  0.0332 -0.1152 -0.0668
24784W        W41258   0.165  14.316   4.991  0.0405  0.0868  0.2218
24785W        W41259   2.274   7.097   3.962  0.0831  0.1534 -0.0726
24786W        W41260  11.605  18.143   1.795  0.1016 -0.1427 -0.2692
24787W        W41261   8.572   7.222   5.075 -0.0192  0.1646  0.2048
24788W        W41262   6.465  12.107   0.725  0.2542 -0.2502 -0.3675
24789W        W41263   1.836   9.761   0.578 -0.0807 -0.1700  0.2108
24790W        W41264   3.122   1.352   3.503  0.1567 -0.0150  0.1554
24791W        W41265   5.109  17.096   2.048  0.2294 -0.0300  0.0656
24792W        W41266  14.898   7.592   1.992 -0.3115 -0.1417  0.0528
24793W        W41267  12.605   7.320  12.429 -0.0461  0.0734  0.2896
24794W        W41268   5.494   2.283   3.506  0.0137  0.2430 -0.1514
24795W        W41269   1.774   2.915   2.213 -0.1331  0.3399  0.1856
24796W        W41270  17.028   8.531   0.917  0.4675  0.0647  0.1908
24797W        W41271   7.446   1.805   6.431  0.0494 -0.1433  0.2362
24798W        W41272  13.463  12.566  15.409 -0.0275  0.1575  0.3317
24799W        W41273   3.577   1.460  14.169 -0.0413  0.1826 -0.2435
24800W        W41274   8.744  17.122   0.248  0.1202 -0.2101  0.0731
24801W        W41275   0.729   3.368   3.145 -0.0521 -0.2475 -0.0213
24802W        W41276   8.852   8.538   4.030  0.2584 -0.1067  0.3269
24803W        W41277   1.239  14.167  13.091  0.0378 -0.0622 -0.0174
24804W        W41278   5.652  12.996  11.943  0.1157 -0.2671  0.2262
24805W        W41279   0.459   9.258  14.310 -0.2022  0.2101  0.0902
24806W        W41280  13.451   4.477  15.523 -0.0428  0.0648 -0.1626
24807W        W41281   9.531   8.413   2.463 -0.1384 -0.1525 -0.0770
24808W        W41282   0.084   2.118   4.987 -0.2277  0.0615 -0.1216
24809W        W41283  16.880   5.714  14.300  0.0013 -0.1691 -0.2743
24810W        W41284  16.174   5.721   4.756  0.2445  0.2056  0.0112
24811W        W41285   9.406  17.926   3.452 -0.2575  0.0670  0.0663
24812W        W41286   3.033  11.440  11.319 -0.1321 -0.2217  0.0200
24813W        W41287  10.161  17.599   4.172  0.3207  0.2163  0.1299
24814W        W41288   9.504   1.030   1.251 -0.2863  0.0572  0.2493
24815W        W41289   8.410  10.087  10.889 -0.2114 -0.2495  0.3459
24816W        W41290  10.252   1.408   1.935 -0.0043  0.2524  0.0167
24817W        W41291  14.198   9.573   3.868 -0.0610 -0.0180 -0.0828
24818W        W41292  18.122   2.932   5.984 -0.0861  0.0950 -0.0970
24819W        W41293  14.362   2.866   4.680  0.1296  0.3007  0.0347
24820W        W41294  17.843   4.794   2.638 -0.3242  0.1876  0.2105
24821W        W41295   6.271  14.212   5.456 -0.0253  0.0860 -0.0432
24822W        W41296   5.062  12.527   0.741  0.0094 -0.1591  0.1327
24823W        W41297   2.861   1.203  11.498 -0.0140 -0.1475  0.0834
24824W        W41298  12.377   2.178   3.573 -0.0173 -0.0288 -0.3926
24825W        W41299   4.478  13.603  12.766  0.2483  0.0327 -0.0247
24826W        W41300   9.934  13.259  11.856 -0.1296 -0.0230  0.1048
24827W        W41301   6.828   9.412   5.441 -0.3144 -0.0961  0.1207
24828W        W41302   5.787  13.137   0.394  0.2621  0.1278  0.0081
24829W        W41303   1.982  14.629   4.750  0.0657  0.0977 -0.0139
24830W        W41304   0.766   1.803  14.633 -0.0484  0.1354 -0.2180
24831W        W41305  15.171   9.741  11.378 -0.1043  0.1671 -0.0759
24832W        W41306   2.513   3.206  12.483 -0.2413  0.1342 -0.2332
24833W        W41307  13.101  17.435  15.941  0.0170 -0.4169 -0.3926
24834W        W41308  14.447  14.948  13.470  0.2224  0.3031  0.2012
24835W        W41309  14.506  15.791   3.071 -0.0820 -0.1110 -0.0293
24836W        W41310   5.033  17.837   2.442  0.2458  0.0699  0.0500
24837W        W41311   8.372   7.585  15.674 -0.0335  0.3276  0.3969
24838W        W41312   5.864   3.553   2.871  0.0041 -0.0527 -0.3172
24839W        W41313   5.443   4.050  14.926 -0.1322 -0.1663  0.1392
24840W        W41314  18.079  14.031  13.196  0.3594  0.1107 -0.1448
24841W        W41315   3.047  15.058   2.388 -0.2095 -0.1927  0.1239
24842W        W41316  16.326  14.126  12.891  0.3050 -0.2645 -0.0432
24843W        W41317  16.320   3.093   2.291 -0.0884  0.2508 -0.2061
24844W        W41318   7.782   3.736  12.155  0.2878  0.0553 -0.1487
24845W        W41319  13.930   7.070   5.395  0.1996 -0.0578 -0.1011
24846W        W41320  12.496   7.648   3.592  0.1320  0.0154  0.2406
24847W        W41321  13.725   4.097  11.436 -0.1193  0.0642  0.2035
24848W        W41322  18.176   8.291   3.541 -0.2381 -0.0244  0.0962
24849W        W41323  17.526   7.264  13.760  0.2149  0.0898 -0.0283
24850W        W41324  12.336  14.946   5.038 -0.1066 -0.0528  0.1148
24851W        W41325  11.585  11.733   3.024  0.0981 -0.0444  0.2043
24852W        W41326  12.255  14.500  12.722 -0.0528 -0.0285  0.0128
24853W        W41327   5.700   9.079  13.732 -0.3572 -0.4096 -0.0470
24854W        W41328  13.574  16.730  16.234  0.0852 -0.1737  0.4372
24855W        W41329   5.512   0.729  13.806  0.3564 -0.0340  0.2089
24856W        W41330   3.743   4.390   0.461 -0.0887 -0.4640  0.0849
24857W        W41331  13.108  16.901  11.010 -0.0761  0.1427  0.2321
24858W        W41332  10.956  15.625  16.132  0.0304  0.1055 -0.0752
24859W        W41333   7.585  11.219  14.088 -0.1157 -0.2724 -0.1997
24860W        W41334  17.302   4.064  13.135  0.2894  0.0509  0.1290
24861W        W41335  16.178   2.210  14.464 -0.0206 -0.1843 -0.2557
24862W        W41336   9.517  13.176   4.487  0.2136 -0.1001 -0.1944
24863W        W41337   7.520  15.278   0.319  0.2699  0.0234 -0.1921
24864W        W41338  13.646  10.307   4.566  0.2067  0.1647 -0.1519
24865W        W41339   8.117   6.456  11.696 -0.0659  0.0457 -0.0700
24866W        W41340   2.730   6.381   3.539 -0.3441  0.4126 -0.0005
24867W        W41341  13.807  13.491   1.226 -0.0114  0.0257  0.3965
24868W        W41342   7.577   6.144  15.043  0.0745 -0.0721  0.0627
24869W        W41343  15.193   3.946   2.394 -0.0792 -0.1657  0.1008
24870W        W41344  14.570   7.382  14.730  0.1275  0.2391  0.1146
24871W        W41345   8.156   8.832  15.684 -0.0048  0.1223  0.0761
24872W        W41346  11.019   3.156   4.901  0.2899  0.2434  0.0907
24873W        W41347  13.304  10.931  13.964 -0.0977 -0.0818  0.0960
24874W        W41348   5.823   3.926   3.997  0.0260 -0.2597 -0.0666
24875W        W41349  16.584   2.726  15.049 -0.0018 -0.1596  0.0320
24876W        W41350   3.686   9.640   3.143  0.1519  0.0087 -0.1884
24877W        W41351   0.143   5.540  15.010 -0.0950  0.0953  0.1679
24878W        W41352  17.516  17.408   4.064 -0.0715  0.0951  0.2668
24879W        W41353  12.212  14.123   2.770 -0.1880  0.0894  0.0082
24880W        W41354   2.155  15.751  15.218 -0.1322 -0.1088  0.1860
24881W        W41355   9.475   2.692   5.066  0.1536 -0.0187 -0.2294
24882W        W41356  14.085  13.137   2.564  0.1794  0.1602  0.2831
24883W        W41357  13.328  10.371  12.219  0.3792  0.4305 -0.0444
24884W        W41358  18.078  13.369   0.328  0.0211 -0.2636  0.1798
24885W        W41359  16.554   6.327  14.744 -0.1909  0.0293 -0.0100
24886W        W41360   9.869  10.697  13.828 -0.1364  0.3182 -0.3221
24887W        W41361  12.609   6.327  11.745  0.0082 -0.2936  0.2402
24888W        W41362  12.950   3.810   1.132 -0.0269  0.0874  0.1117
24889W        W41363   0.552   7.241  10.974  0.1308 -0.0269 -0.2673
24890W        W41364   7.399   4.051  13.303 -0.0953  0.0566 -0.2993
24891W        W41365   1.359  16.856   0.959  0.0541 -0.1009 -0.1735
24892W        W41366  10.798  15.967  10.867 -0.1029 -0.0498 -0.1041
24893W        W41367   5.246   9.062  11.377 -0.1124 -0.1213 -0.1991
24894W        W41368  10.516  12.601  14.821  0.1567  0.3182 -0.0359
24895W        W41369  11.980   4.162  11.847 -0.2393  0.1010  0.0646
24896W        W41370  10.083   7.963   3.369  0.0806 -0.1904 -0.0787
24897W        W41371  18.165  12.502   0.484 -0.0714 -0.0248 -0.0380
24898W        W41372   0.317  15.584   1.660 -0.2843  0.2162 -0.0502
24899W        W41373   7.647   0.765  13.512 -0.1403  0.0210 -0.0116
24900W        W41374   5.600  17.607   1.619  0.0900 -0.0431  0.2154
24901W        W41375   0.904   0.333   4.881  0.0990 -0.1809 -0.0540
24902W        W41376   0.703   0.326   0.042  0.0701 -0.0972 -0.2158
24903W        W41377   0.922   8.925  12.178  0.2121 -0.0983 -0.2707
24904W        W41378   2.995   4.946   3.187 -0.0651 -0.1276  0.2701
24905W        W41379  13.631  12.514   2.793 -0.0422  0.0108 -0.3723
24906W        W41380   2.757   8.287   2.487 -0.1363  0.0879  0.0421
24907W        W41381   6.264   4.174   0.767 -0.1178 -0.1546 -0.0943
24908W        W41382  18.101  11.247   0.558 -0.1354  0.0432  0.0301
24909W        W41383   7.855   2.339  14.317 -0.0510 -0.1236  0.1393
24910W        W41384   0.020   3.180   4.417  0.0616  0.0428  0.2634
24911W        W41385   9.935   8.123   2.530 -0.1557  0.0981 -0.2598
24912W        W41386  13.679   6.107  15.913  0.2150 -0.2218 -0.3585
24913W        W41387   6.154   3.881   1.229 -0.1057  0.1174  0.0941
24914W        W41388   0.372  14.858  15.328 -0.1779 -0.1220  0.0005
24915W        W41389   8.021   1.558  11.801  0.0079 -0.0721  0.1101
24916W        W41390  11.578  11.403  15.520  0.0715  0.2662 -0.1603
24917W        W41391  16.120  13.351   4.413  0.0054  0.2699  0.0945
24918W        W41392   2.891  16.236   3.653 -0.0700 -0.0935  0.0463
24919W        W41393   4.476   8.178   4.079 -0.0427  0.1102 -0.3128
24920W        W41394  17.047   7.510  15.367  0.0559 -0.1474 -0.1150
24921W        W41395   7.087  13.706  10.185  0.2012 -0.0112  0.0414
24922W        W41396  14.795   4.216   2.560 -0.2048 -0.1255  0.0738
24923W        W41397   3.746  13.377  11.077  0.1684  0.1777 -0.0294
24924W        W41398   7.362  16.342  13.697 -0.0540 -0.0875 -0.1140
24925W        W41399  10.262   8.832   2.547  0.3704 -0.1430  0.0722
24926W        W41400  15.965   9.242   1.648 -0.1542 -0.0377  0.3218
24927W        W41401  18.172  12.880   2.000 -0.2173 -0.1159  0.1057
24928W        W41402  12.389   9.135   0.083 -0.3181  0.0171 -0.0375
24929W        W41403  16.021  15.080  15.323 -0.5279  0.1006  0.0800
24930W        W41404   1.014  15.276  13.326  0.1113  0.2659 -0.3510
24931W        W41405   0.336   5.799  11.564  0.0918  0.2478  0.0994
24932W        W41406   6.149   2.486   6.225  0.1889 -0.2441  0.2958
24933W        W41407   4.319   5.363   2.149  0.0383  0.3331  0.5082
24934W        W41408  17.579  16.711  15.886  0.1537  0.1033 -0.0969
24935W        W41409   3.919  10.975   2.884 -0.0454  0.0518  0.1404
24936W        W41410  15.978   2.788  13.427 -0.1402  0.4212 -0.1091
24937W        W41411  15.165   4.112   4.852  0.1215  0.0495 -0.1699
24938W        W41412  14.251   2.759  11.184  0.0655 -0.0141 -0.1415
24939W        W41413   7.544  11.871  14.427 -0.3731  0.0452  0.1347
24940W        W41414   4.071  10.901   4.068 -0.1452  0.0366 -0.0867
24941W        W41415   7.380   7.319   2.594 -0.0629  0.1210 -0.0070
24942W        W41416   1.204   4.546  11.844 -0.0640  0.2434 -0.0437
24943W        W41417   2.063   3.012  11.799 -0.4337 -0.3835 -0.1740
24944W        W41418  10.513  15.223  13.646  0.0847  0.1076  0.0990
24945W        W41419  17.423   8.223  13.940 -0.4774 -0.0349 -0.0646
24946W        W41420  12.990  17.444   0.130  0.0635  0.1305  0.3207
24947W        W41421  12.752   2.158   4.400 -0.0814 -0.0238 -0.0110
24948W        W41422   3.124  17.766   5.580 -0.0418  0.0778 -0.3541
24949W        W41423   4.033   7.894  11.840 -0.4352  0.0524 -0.1316
24950W        W41424   8.713   7.811   2.935  0.0538  0.2689 -0.1434
24951W        W41425   2.362   7.130  14.445 -0.2524 -0.3719 -0.2542
24952W        W41426  16.486  10.817   1.121 -0.0128 -0.2039  0.0873
24953W        W41427   3.366   4.574   2.597 -0.0905 -0.0730  0.2828
24954W        W41428   9.171   0.901   2.209 -0.1630 -0.2398  0.1981
24955W        W41429   2.472   4.109  15.456  0.1098  0.2348  0.0490
24956W        W41430   6.567   8.273   4.523  0.1122  0.2189 -0.0465
24957W        W41431   1.792  11.093   3.386  0.0711  0.0205  0.0354
24958W        W41432   1.756   5.938   4.041 -0.0390 -0.0945 -0.3112
24959W        W41433  15.703  15.240   2.081 -0.0235  0.3705  0.0081
24960W        W41434   9.668  15.756  14.083  0.1279 -0.0038 -0.0369
24961W        W41435  17.002  12.493   5.275 -0.1453  0.3690 -0.2531
24962W        W41436  18.079  12.583  15.054  0.1469 -0.0492 -0.0458
24963W        W41437  16.980   9.410  12.749 -0.0935 -0.0997  0.1713
24964W        W41438  16.220  11.885  15.347 -0.1269  0.1108  0.1164
24965W        W41439   2.037  16.385  15.860 -0.1140  0.2065 -0.0674
24966W        W41440   6.834  12.365  13.846  0.1378 -0.0058  0.0617
24967W        W41441   6.943   8.653   1.085  0.0224  0.2538 -0.1628
24968W        W41442  11.428  13.999   4.452  0.0147  0.0358 -0.0316
24969W        W41443   7.300  15.206   3.625  0.2117 -0.1536 -0.1888
24970W        W41444  12.307   1.949  14.625  0.2500 -0.1285 -0.0162
24971W        W41445   6.686   2.231   4.071  0.1989 -0.1348 -0.2834
24972W        W41446  17.314  11.126  11.902 -0.2495  0.0200  0.2627
24973W        W41447  15.667   0.860   2.952  0.2434 -0.0739  0.0132
24974W        W41448  11.681   1.350  10.546 -0.2466 -0.0550 -0.0774
24975W        W41449   0.996   1.520  12.959 -0.3655  0.1336 -0.2677
24976W        W41450  15.406  14.245  14.456  0.2926 -0.4056 -0.0461
24977W        W41451   0.597   9.253   3.904 -0.1734 -0.2386 -0.1734
24978W        W41452  17.105  17.503  15.948 -0.0382  0.1507  0.0341
24979W        W41453   5.956  16.431  16.062  0.1176  0.3894 -0.0318
24980W        W41454   2.530   1.840  13.369 -0.1351 -0.3297  0.0910
24981W        W41455   9.303   2.190  11.453  0.4105 -0.1484 -0.3057
24982W        W41456  15.037  10.637  15.322  0.2410 -0.1546  0.0804
24983W        W41457  14.646   3.977   1.223 -0.1687  0.0438 -0.0965
24984W        W41458  14.610   7.220  15.814 -0.1026 -0.1903  0.1509
24985W        W41459  11.327  14.615   0.548 -0.0725  0.1382 -0.2635
24986W        W41460   2.306   9.957   2.623 -0.1593  0.3014  0.0842
24987W        W41461  15.749   6.523   5.700 -0.2233 -0.2239 -0.1780
24988W        W41462   9.987  12.949  12.729  0.0516 -0.0323  0.2400
24989W        W41463  11.128  15.069  15.385  0.0371  0.1284 -0.1314
24990W        W41464   8.848   7.077   5.514 -0.3871  0.0477  0.0393
24991W        W41465   2.242  18.019  11.725 -0.1766  0.3402 -0.2513
24992W        W41466   4.461   9.282   1.392 -0.2380  0.5184 -0.0574
24993W        W41467   1.105   1.871  14.244 -0.2004  0.0642  0.3477
24994W        W41468  13.064   2.495  13.744 -0.1163 -0.0614 -0.3841
24995W        W41469   6.539  15.535   5.217 -0.1514  0.3277 -0.0690
24996W        W41470  11.979  11.249   3.199 -0.2214  0.2277 -0.1125
24997W        W41471   9.334   6.351   0.817  0.1328 -0.4919  0.0415
24998W        W41472  14.766   8.211  12.733  0.1092  0.0732  0.1705
24999W        W41473   5.807  16.394  15.589  0.1886  0.0416  0.6655
25000W        W41474   1.233  13.162   2.782 -0.2760  0.0806 -0.1136
25001W        W41475  10.302   0.834   6.551 -0.0355  0.3312 -0.1633
25002W        W41476  13.409   2.140  12.972  0.1881 -0.1176  0.1742
25003W        W41477  12.548   5.218  13.891 -0.2594  0.1301 -0.0359
25004W        W41478   6.679   2.939   1.239 -0.0315  0.2119  0.0720
25005W        W41479  15.608  16.781  12.011  0.3133 -0.0488  0.1104
25006W        W41480  10.372   9.323  16.177  0.2083 -0.0645 -0.1591
25007W        W41481   6.497  11.615   2.927 -0.1720 -0.4136  0.0624
25008W        W41482  12.689   3.118  13.728 -0.1122 -0.1384 -0.0966
25009W        W41483   1.411  14.508  13.983  0.2298  0.0769 -0.0505
25010W        W41484  17.363   5.307   1.059 -0.0918 -0.1205  0.1516
25011W        W41485  14.850  13.930  12.617 -0.0398  0.0148  0.1803
25012W        W41486  13.825  12.116   2.539 -0.1981 -0.4964  0.1882
25013W        W41487  11.356  17.331  15.710 -0.0667  0.0924 -0.0621
25014W        W41488   6.058   4.839   2.320 -0.1347 -0.3185 -0.0128
25015W        W41489  13.941  12.239   5.180 -0.1017 -0.0140  0.1116
25016W        W41490  13.332   6.114  16.287  0.0883 -0.2076  0.0012
25017W        W41491  15.515  12.627  12.278 -0.2833  0.3502  0.1399
25018W        W41492  13.000   9.870   2.969 -0.3943 -0.0384  0.1702
25019W        W41493  17.331  17.839  14.952  0.2774  0.0039 -0.1326
25020W        W41494  14.526   6.620   4.771  0.0321  0.0161  0.1198
25021W        W41495  13.562   9.511   6.182  0.1360 -0.2246  0.3421
25022W        W41496   3.232  12.421  15.457  0.0210  0.2728  0.1030
25023W        W41497   3.046  17.662  15.305  0.3368 -0.2261  0.0625
25024W        W41498   6.076   0.103  11.622 -0.0752  0.0621  0.1521
25025W        W41499   5.141   2.344   1.861 -0.2378  0.2574  0.0854
25026W        W41500  12.666  14.041   2.802 -0.0429 -0.2753 -0.0311
25027W        W41501   1.916  16.454   5.422 -0.0787  0.1757  0.0404
25028W        W41502  10.544   3.506   2.951 -0.1065  0.1513  0.3801
25029W        W41503  14.276  16.514   1.966 -0.2560  0.3753  0.0289
25030W        W41504   6.661   2.037   3.085 -0.2805 -0.2889  0.2550
25031W        W41505   3.416   7.583   5.336  0.0462 -0.3997 -0.0328
25032W        W41506   4.648   3.394   2.306  0.1708  0.0767  0.1493
25033W        W41507   3.105  14.213  12.728 -0.1631  0.0511  0.1928
25034W        W41508  16.507   8.276  14.306  0.1026 -0.0021 -0.1504
25035W        W41509   4.741  10.791  15.584  0.2053 -0.0252  0.2517
25036W        W41510   5.422   2.201   2.276  0.0179 -0.3914  0.1921
25037W        W41511  10.873   4.441   3.659  0.1563 -0.0567 -0.1526
25038W        W41512   4.443  11.831  15.365  0.3971 -0.0994  0.1744
25039W        W41513   5.182  10.114   0.758 -0.1637  0.0793 -0.3212
25040W        W41514   9.654   1.361   5.252  0.1500 -0.0009  0.2762
25041W        W41515  14.183  15.803   5.133  0.1002 -0.2532 -0.3944
25042W        W41516  13.917   9.707  13.716  0.1107  0.0910  0.3590
25043W        W41517   1.013  10.037   3.184 -0.1824 -0.1050 -0.2750
25044W        W41518  17.754   4.789  11.689 -0.4162 -0.1602  0.0882
25045W        W41519   3.967  16.299  14.083 -0.0223 -0.3368  0.0671
25046W        W41520  12.857  15.136  15.502  0.2564 -0.1558  0.0058
25047W        W41521   5.688  13.478  14.287  0.2599  0.0931 -0.1359
25048W        W41522   7.359  17.644  14.649 -0.1368  0.0469 -0.2150
25049W        W41523   7.095   1.860   0.773  0.0882 -0.0108  0.1475
25050W        W41524  15.442   8.006   4.947 -0.0164  0.1142  0.1949
25051W        W41525   1.440  14.015   4.359 -0.2522  0.0220  0.3248
25052W        W41526   6.256   4.249   2.697 -0.0706  0.1148  0.2793
25053W        W41527  12.810   4.289   3.799 -0.2007  0.1049 -0.3000
25054W        W41528  17.408   5.622   3.192  0.2763 -0.2021  0.0425
25055W        W41529   9.022   8.465   1.550  0.2420  0.2422  0.0003
25056W        W41530  15.686  12.051   0.645  0.2584 -0.1079  0.2939
25057W        W41531   3.235   6.667  14.813  0.0132  0.1404 -0.1579
25058W        W41532   6.510   6.305  14.640 -0.1421  0.1927  0.2393
25059W        W41533  14.795   4.390  12.863 -0.2299 -0.2891  0.1390
25060W        W41534  15.857   9.406  13.662 -0.0990  0.1145 -0.0487
25061W        W41535  16.650  17.389  13.785  0.3058  0.2930 -0.2056
25062W        W41536   5.665   3.600   0.551  0.1688 -0.0829 -0.1459
25063W        W41537  11.705   7.640   2.407  0.1186 -0.1306 -0.1923
25064W        W41538   2.793   5.267  13.390  0.2482  0.0429 -0.3719
25065W        W41539  15.985   3.213   1.402 -0.0273 -0.1304 -0.0707
25066W        W41540   9.021   9.471  16.226 -0.0250 -0.1291 -0.2088
25067W        W41541   5.487  11.560  14.735 -0.0750  0.1941 -0.0404
25068W        W41542   3.111  11.650   2.343  0.0170 -0.1691 -0.3225
25069W        W41543   6.664  10.968  14.836  0.0618 -0.1331  0.1761
25070W        W41544  10.091  15.124   1.579  0.1976  0.2319 -0.0967
25071W        W41545   8.695   1.687   3.098 -0.1180 -0.0295 -0.0157
25072W        W41546   9.373  14.409   3.771 -0.0185 -0.1970 -0.0036
25073W        W41547   7.292   8.456   2.656  0.1839 -0.1836 -0.1048
25074W        W41548   9.892   2.871   5.169 -0.0679  0.0643 -0.0754
25075W        W41549  16.657   2.173   4.477  0.1123 -0.3196 -0.1458
25076W        W41550   6.093  14.199   1.365 -0.2425  0.2333 -0.0105
25077W        W41551  10.973  16.931   3.061  0.2077  0.1991 -0.1735
25078W        W41552   1.797   7.303  15.980  0.0315  0.0194 -0.0372
25079W        W41553  10.302   9.471   3.993  0.0805  0.0031 -0.0533
25080W        W41554   4.612  14.163  14.959  0.2257  0.1144  0.1012
25081W        W41555   9.065  11.411   4.719  0.3705 -0.3144  0.1767
25082W        W41556   6.297   5.386   1.411 -0.0494  0.0740  0.1770
25083W        W41557   1.776  13.933   5.959  0.1640 -0.2466 -0.1999
25084W        W41558  17.701   5.739   1.850 -0.0923  0.2225  0.1245
25085W        W41559   8.190  13.336   0.358  0.1541 -0.4567  0.0300
25086W        W41560  14.507  11.054  14.621  0.2744  0.3002  0.0128
25087W        W41561   1.076  12.299   3.073 -0.0518 -0.0492  0.0864
25088W        W41562   2.272   1.925  15.730  0.4843 -0.0101  0.0270
25089W        W41563   2.478   2.823  12.839 -0.0842  0.0275 -0.2033
25090W        W41564  15.566   1.721   1.256 -0.0918 -0.1480  0.1352
25091W        W41565   5.380   1.603   1.573 -0.2012  0.2568  0.0336
25092W        W41566   6.504  13.081  11.039  0.0973 -0.3603  0.0325
25093W        W41567  15.119   2.785  13.880  0.1702  0.1829  0.1935
25094W        W41568   9.476  14.810  15.002  0.1881 -0.2206  0.1908
25095W        W41569   5.413   3.906   2.712 -0.0567 -0.0066 -0.1261
25096W        W41570   1.877   2.263  12.546 -0.2514  0.1149 -0.1099
25097W        W41571   7.576   4.783  12.607 -0.0403  0.0446 -0.1587
25098W        W41572   7.208   1.822  14.046 -0.0705  0.2266 -0.1942
25099W        W41573   7.901   6.104   2.140 -0.0078 -0.4039 -0.1998
25100W        W41574  16.525   0.517  14.223 -0.0447  0.0762 -0.0785
25101W        W41575  14.298   2.826  14.060 -0.0415 -0.1217 -0.0047
25102W        W41576  14.160   0.566   0.466 -0.0374  0.0182 -0.2426
25103W        W41577   3.162   0.759  14.687 -0.1862  0.1205  0.2885
25104W        W41578   0.512  16.931   3.538 -0.2517 -0.1071 -0.0170
25105W        W41579  14.618   5.970  14.896  0.0707 -0.2826 -0.2506
25106W        W41580  17.226  17.966  12.631  0.0182  0.0461  0.1645
25107W        W41581  12.425  15.807  10.965 -0.0694  0.0346 -0.1232
25108W        W41582  11.433   5.327  14.116  0.2899 -0.0804  0.0371
25109W        W41583  10.466  15.796  15.180  0.0463  0.1008  0.3129
25110W        W41584   2.531  11.049   2.026 -0.0522 -0.1438  0.0889
25111W        W41585   1.933   4.156   1.993  0.1823 -0.0318 -0.0908
25112W        W41586   0.137   5.431   4.936  0.1026 -0.1868 -0.0514
25113W        W41587  17.500   3.383  11.132 -0.3394 -0.0064 -0.0789
25114W        W41588  17.949  14.275  15.433  0.1482  0.2238 -0.1885
25115W        W41589  15.679  13.014   0.073 -0.0170 -0.2140 -0.0438
25116W        W41590   3.343   2.617   1.448 -0.1576  0.0242  0.0472
25117W        W41591  15.209  11.981   4.150 -0.0313  0.0448  0.1650
25118W        W41592   4.650   0.988   5.311  0.0250  0.0599  0.2151
25119W        W41593  12.183   7.487   2.467 -0.2272 -0.2872  0.0194
25120W        W41594  17.997   1.069   1.276  0.0544 -0.1423 -0.3245
25121W        W41595   3.301  12.997   3.507  0.1682  0.1432  0.1000
25122W        W41596  16.030   3.280  11.686 -0.0006  0.1365 -0.1843
25123W        W41597   4.281   2.926  10.445  0.1851 -0.0387  0.0871
25124W        W41598   9.530   4.003   0.393 -0.1347  0.1219 -0.1005
25125W        W41599   1.913   4.697   2.019 -0.3877  0.2416 -0.2943
25126W        W41600  10.233  14.712  11.578 -0.2217  0.3832 -0.5972
25127W        W41601   2.191   3.655   0.240 -0.1448  0.1904 -0.0958
25128W        W41602   7.188  12.198  15.805  0.0109 -0.1072  0.1894
25129W        W41603   4.172   5.128   0.019  0.1408 -0.0652 -0.0848
25130W        W41604   3.743  12.262   3.834  0.1132  0.0212  0.0963
25131W        W41605   6.407   2.108  13.316  0.1336 -0.1858  0.0803
25132W        W41606  15.585  12.689   4.662  0.2486  0.2006  0.0802
25133W        W41607   8.984  13.504   1.934 -0.0186 -0.0859 -0.1434
25134W        W41608  10.289   7.995  16.207 -0.2550  0.1289  0.1735
25135W        W41609   6.875  16.763   2.565  0.1123 -0.0252  0.0246
25136W        W41610   2.829   4.632   3.519 -0.1513  0.0967 -0.1504
25137W        W41611  11.434  11.746   1.546 -0.0428  0.2756  0.4302
25138W        W41612   9.613  14.988  15.872  0.0188 -0.1696  0.0446
25139W        W41613  17.849   7.475   2.523  0.0677  0.1622 -0.0736
25140W        W41614   6.947   7.220  12.966  0.1375  0.0120  0.1946
25141W        W41615   2.099  13.358  15.026  0.2095  0.1291 -0.1094
25142W        W41616   2.240  11.181  11.781  0.2016  0.0138  0.0494
25143W        W41617   8.047  15.588  14.785 -0.1000  0.0397  0.1212
25144W        W41618   3.399   1.539   0.456 -0.2884 -0.0202 -0.3486
25145W        W41619  14.100   6.246  12.224  0.0571  0.1438 -0.0187
25146W        W41620  17.368  15.498   5.932 -0.1058  0.0435 -0.2481
25147W        W41621   1.972  14.317   0.328 -0.4148 -0.0447  0.3226
25148W        W41622  15.714   4.550   2.715 -0.1889 -0.1733 -0.0725
25149W        W41623   1.072   1.977  11.650 -0.2309 -0.0730 -0.2112
25150W        W41624   6.978   3.485  12.502  0.2597  0.1223 -0.1809
25151W        W41625   7.682  17.174   2.023 -0.0336 -0.1445 -0.3285
25152W        W41626   1.709   1.274  13.040  0.0840  0.1822  0.0487
25153W        W41627   8.155   2.128   0.302 -0.1547 -0.2752 -0.3911
25154W        W41628   2.959   4.915   3.903 -0.0867 -0.1557 -0.1623
25155W        W41629  14.756  16.265  15.424 -0.2188 -0.1664  0.1143
25156W        W41630  10.694  14.827  15.509 -0.1915  0.1270 -0.0430
25157W        W41631   0.820   4.189   3.550  0.1883 -0.0710 -0.2629
25158W        W41632  17.131  16.280   2.045 -0.1329  0.0625  0.0351
25159W        W41633  12.523  15.243   0.014 -0.2446  0.0742 -0.3166
25160W        W41634   3.028   9.813  11.764 -0.2406 -0.0916 -0.2172
25161W        W41635  18.049   5.697   0.810  0.1432 -0.0089 -0.2951
25162W        W41636  13.963  17.087   5.511 -0.0027  0.2106  0.0070
25163W        W41637  15.092   7.731   4.112 -0.0806  0.2604 -0.1175
25164W        W41638   6.588   3.253   0.424 -0.1541  0.1060  0.1830
25165W        W41639   1.741  10.742   4.072 -0.1759 -0.1113 -0.1456
25166W        W41640   9.070  17.725  10.657 -0.1982 -0.3363 -0.1531
25167W        W41641   5.500  10.684   2.333 -0.0827 -0.1601 -0.2584
25168W        W41642   1.185   4.515   3.988  0.0558  0.2933  0.2915
25169W        W41643   4.711   3.957   4.757  0.0086 -0.0115 -0.2774
25170W        W41644   4.803  15.084  14.461  0.3118  0.1816  0.1079
25171W        W41645  13.694   2.054   4.417  0.0749 -0.2081  0.0311
25172W        W41646   8.389   2.200   4.196 -0.1314 -0.0369 -0.0208
25173W        W41647  15.517   6.145   3.548  0.0265  0.0052 -0.0646
25174W        W41648   0.731  13.545   1.900  0.1771 -0.0020 -0.2858
25175W        W41649  14.257  13.065   1.549 -0.1538 -0.0896 -0.1755
25176W        W41650  18.059  10.194   1.903  0.0090  0.1581 -0.0405
25177W        W41651  14.816   2.101  15.767  0.1109  0.0341  0.2151
25178W        W41652   5.827  11.258  16.139  0.1188 -0.0767  0.1304
25179W        W41653  18.146   1.788  13.503  0.0833  0.1344 -0.0195
25180W        W41654   9.605   3.310   5.105  0.1125  0.1633  0.0272
25181W        W41655   3.635  15.864  13.139  0.2208  0.0961  0.0916
25182W        W41656  15.825  17.302  12.207 -0.3218  0.3742 -0.0591
25183W        W41657  15.478   7.862   5.446  0.1252 -0.0424 -0.1256
25184W        W41658   7.681   3.794   5.061  0.3656 -0.1866 -0.2688
25185W        W41659   9.879   9.541  13.065  0.0315  0.1946 -0.0452
25186W        W41660   6.467  11.581   5.799  0.1240 -0.0235 -0.0075
25187W        W41661  17.061  17.905  15.706 -0.1914 -0.0259  0.2611
25188W        W41662  13.074  15.894  14.222 -0.0182 -0.2477 -0.1575
25189W        W41663   9.662   2.715   1.910 -0.1434  0.0964 -0.0595
25190W        W41664   2.140  16.808   2.015  0.0024 -0.4037  0.0355
25191W        W41665  13.021   2.294  14.253  0.0668  0.1406  0.0091
25192W        W41666  12.658  13.508  13.916 -0.2471  0.3218  0.0171
25193W        W41667  17.864  15.744   3.186 -0.1037 -0.3318  0.0114
25194W        W41668   4.909   5.884  13.417 -0.0298  0.2432 -0.0865
25195W        W41669   7.705  15.419   1.339  0.1852  0.1822  0.0616
25196W        W41670  10.061   5.290   5.946 -0.2502  0.0763  0.2733
25197W        W41671  14.810   3.102  11.918  0.0108 -0.1746  0.1716
25198W        W41672  11.389   0.079   4.436  0.2764  0.2421 -0.1188
25199W        W41673   6.959   5.323   1.323 -0.0789  0.1687  0.1713
25200W        W41674  17.834  16.886   3.246 -0.1560 -0.0511 -0.0830
25201W        W41675   2.483   4.219   5.670  0.2144  0.0568 -0.0065
25202W        W41676   0.239   6.485   6.121 -0.1162 -0.0362  0.0048
25203W        W41677  17.918   3.539  15.558 -0.1066 -0.0758 -0.1477
25204W        W41678   0.343  10.941  11.797  0.1439 -0.1256 -0.1691
25205W        W41679  15.961   0.946   1.155 -0.0134 -0.1093  0.1879
25206W        W41680  16.452  17.976   3.935 -0.0365 -0.1818  0.0314
25207W        W41681  11.354  18.099   0.863 -0.0552 -0.2093  0.0223
25208W        W41682  17.480  11.493  14.696 -0.2478 -0.0949  0.1006
25209W        W41683   6.786  18.076   2.337 -0.0135 -0.2450  0.0640
25210W        W41684   1.054   1.816   0.308 -0.2185  0.1906  0.1811
25211W        W41685  13.600   0.608  15.465 -0.2462 -0.0457 -0.0904
25212W        W41686  12.408   0.934   0.608  0.3097  0.0179  0.0559
25213W        W41687  12.506   6.431   0.176 -0.2449  0.4460 -0.0035
25214W        W41688   3.213  13.954   3.868  0.1651  0.1902 -0.0536
25215W        W41689  11.515   9.960  11.895 -0.0472 -0.3937  0.2802
25216W        W41690   7.661   6.862  11.373 -0.3314  0.0688 -0.1130
25217W        W41691   4.375  15.493  11.869 -0.1634  0.0299 -0.2900
25218W        W41692   1.797  16.590   0.500 -0.3190  0.2966 -0.0363
25219W        W41693   4.316  18.173  15.779 -0.0574 -0.0675  0.0742
25220W        W41694   6.536   5.180  14.715  0.1231  0.0140 -0.1556
25221W        W41695  10.871   8.362   3.369 -0.0969  0.0611 -0.0167
25222W        W41696  17.850   7.097   2.823  0.0273 -0.0578 -0.2447
25223W        W41697   9.260  13.004  11.356 -0.0669  0.0375 -0.0518
25224W        W41698  17.081  10.299   0.693 -0.0595  0.1058 -0.2321
25225W        W41699   9.843  10.148   0.043 -0.1695  0.0911  0.2017
25226W        W41700  13.336  16.823   1.937  0.1632  0.0610  0.0065
25227W        W41701   4.166   7.182  12.753 -0.2047 -0.3530  0.4339
25228W        W41702  13.051  12.095   5.583  0.0050  0.1245  0.1686
25229W        W41703   5.275   0.216   5.773 -0.2112  0.0699  0.3291
25230W        W41704  15.564   4.319  12.759  0.5023 -0.1083  0.1978
25231W        W41705  15.864   2.149   1.230 -0.2671 -0.4229  0.1986
25232W        W41706  10.878   3.862   0.737 -0.2816 -0.4011 -0.1255
25233W        W41707  16.374   8.126  11.653  0.1315 -0.1359  0.0298
25234W        W41708   7.731   0.757  15.006 -0.0627 -0.1737 -0.0375
25235W        W41709  15.826  10.397   6.189 -0.2142  0.0562  0.1628
25236W        W41710   3.288  16.076  10.517 -0.3873  0.0756  0.0706
25237W        W41711   8.176  11.167   0.238  0.2267  0.1769  0.1353
25238W        W41712   0.811  10.816  15.149 -0.0105 -0.2984  0.0297
25239W        W41713   9.133   2.565   0.378  0.0442 -0.1210  0.2401
25240W        W41714   0.264  11.683   1.782  0.0269 -0.0603 -0.1323
25241W        W41715   1.318  10.404   2.266 -0.1706 -0.2190 -0.2617
25242W        W41716   2.009  10.356  11.315  0.0078  0.0073  0.0785
25243W        W41717  12.789  14.048  15.482  0.2327 -0.0840  0.2659
25244W        W41718   3.730   7.811   0.036  0.0935 -0.1829  0.2323
25245W        W41719   6.005   2.109  15.814 -0.0460  0.0480 -0.1134
25246W        W41720  13.455  14.853   5.398  0.2328 -0.1066  0.0277
25247W        W41721   9.445   9.774   3.966 -0.3596 -0.0773  0.0774
25248W        W41722   6.311  10.657  13.336  0.2839  0.1710 -0.2185
25249W        W41723  13.803   8.156  14.483  0.0353 -0.0405 -0.2963
25250W        W41724   1.482   9.457   0.588 -0.1952  0.1444 -0.0786
25251W        W41725  15.606   4.911   3.141  0.1117  0.2438 -0.0354
25252W        W41726  12.079   3.165   2.203 -0.0857  0.0339  0.3427
25253W        W41727  11.600   3.416   2.957 -0.1382 -0.0760  0.1971
25254W        W41728  14.737   8.731  12.934  0.0989  0.3844  0.0580
25255W        W41729  16.556   8.267   2.738 -0.1911  0.1954  0.1605
25256W        W41730   2.361   9.973  14.309  0.2370 -0.0571  0.0118
25257W        W41731  14.046   0.353  13.485  0.1043 -0.0293 -0.1617
25258W        W41732  16.528   2.877   2.780  0.2022 -0.0731 -0.1196
25259W        W41733  10.630   7.262  15.029 -0.0530 -0.0284  0.2622
25260W        W41734   1.657  14.890   3.481  0.1826  0.2794  0.1259
25261W        W41735   5.028   5.565   1.552 -0.1315 -0.0786  0.0443
25262W        W41736   8.735  13.958   2.001  0.0275 -0.0896  0.0611
25263W        W41737   4.743   0.269   4.832 -0.0184  0.0071 -0.0537
25264W        W41738   5.064   5.440   6.102  0.0246 -0.0750 -0.1305
25265W        W41739   8.721   2.459   0.887 -0.1742 -0.0861  0.1592
25266W        W41740   5.385   4.138   2.264  0.0188  0.0577 -0.1618
25267W        W41741   0.321  10.622  15.797  0.1576 -0.0818  0.2235
25268W        W41742   0.965   5.958  15.606 -0.2609  0.3136  0.2265
25269W        W41743   7.682  10.471  11.306  0.2109 -0.2603  0.0442
25270W        W41744   7.635   3.312  14.604 -0.2123 -0.1060 -0.0128
25271W        W41745  16.896   7.181  14.578 -0.0816  0.0244 -0.1600
25272W        W41746  12.551   0.876  12.351  0.2864 -0.1477 -0.2837
25273W        W41747  12.023   2.507   3.309 -0.2527  0.0525 -0.1648
25274W        W41748   6.336   5.657  13.387 -0.0688 -0.3380 -0.4502
25275W        W41749   5.435   4.849   3.207 -0.1663  0.2085  0.1030
25276W        W41750   6.221   3.439  13.584 -0.0903  0.0505  0.0690
25277W        W41751   9.307   5.790   1.538 -0.2325 -0.0650  0.3931
25278W        W41752  14.556  17.259   2.629  0.0209  0.1166 -0.0034
25279W        W41753   5.716  18.117  15.026 -0.0642  0.0835 -0.1919
25280W        W41754   6.324  13.474  12.675 -0.0500 -0.1154 -0.0001
25281W        W41755  13.594   6.577   3.597 -0.1264 -0.5218 -0.1539
25282W        W41756   8.138   0.878  11.318  0.0342  0.0950 -0.1370
25283W        W41757  17.371   7.840   1.783 -0.1866 -0.3112  0.1434
25284W        W41758  12.530   5.343   5.310  0.3109  0.1059 -0.2195
25285W        W41759   7.031  14.273   3.641  0.1044 -0.1094  0.1040
25286W        W41760   4.430  13.209  12.024 -0.1977 -0.1096 -0.0312
25287W        W41761  10.710   7.900   4.026  0.2821  0.0434  0.4800
25288W        W41762   6.347   1.832  14.973 -0.0686  0.1970  0.1966
25289W        W41763   4.363  11.160   0.824  0.0949  0.1948  0.0803
25290W        W41764   0.882  12.607   2.272  0.0598 -0.0891  0.2514
25291W        W41765   9.602   7.184   2.328 -0.0828 -0.2608  0.4015
25292W        W41766  16.741   9.196  15.601 -0.0199  0.2072 -0.1730
25293W        W41767  17.827   0.100   5.204 -0.1561 -0.0110  0.2772
25294W        W41768   6.014   2.169  13.744  0.2700  0.2788 -0.2556
25295W        W41769   1.573   3.302  12.883  0.0372 -0.1966 -0.0182
25296W        W41770  12.362  12.065  15.580  0.0090 -0.1194  0.2406
25297W        W41771   9.697   8.575   4.795 -0.2029 -0.0633  0.2058
25298W        W41772   4.192  13.871  14.288 -0.1412 -0.0312  0.1236
25299W        W41773   2.126  16.600   2.975  0.2289  0.0446 -0.0349
25300W        W41774   2.730   1.556   1.122  0.0179 -0.3997  0.1092
25301W        W41775   2.955  13.330   2.384  0.0011 -0.2045  0.2553
25302W        W41776  11.336  15.232  10.675  0.4542 -0.1200  0.0124
25303W        W41777   8.682   1.541  15.417  0.3950  0.1245  0.0889
25304W        W41778  13.473  15.924  13.643  0.0476 -0.2392 -0.4000
25305W        W41779   2.079   3.453  12.586  0.0375 -0.0984  0.0240
25306W        W41780   2.329   7.864  15.060  0.0350  0.2746  0.1696
25307W        W41781   1.809  14.182   1.418  0.1365  0.0252 -0.1508
25308W        W41782  14.449  14.495   1.681 -0.1073  0.2053  0.2519
25309W        W41783  15.792   2.921   3.640  0.2072 -0.1540 -0.1489
25310W        W41784  15.078   1.671   3.414 -0.0275 -0.0665  0.2523
25311W        W41785   7.946  16.582  14.197  0.0568  0.0298  0.0398
25312W        W41786  11.117   2.172  15.846 -0.1098 -0.0902 -0.0185
25313W        W41787   3.088   7.570  12.232  0.0707  0.0896 -0.1349
25314W        W41788   7.425  10.980   3.725  0.0338 -0.0213  0.2809
25315W        W41789  17.794   2.480  11.774  0.0964 -0.0777 -0.1404
25316W        W41790  10.957   5.662  15.686  0.1994  0.2002  0.1547
25317W        W41791   9.886  12.300  11.537 -0.1173 -0.0122  0.0871
25318W        W41792  11.012  10.625  11.680 -0.0439 -0.3418 -0.0236
25319W        W41793   6.542   7.547  12.532  0.2095 -0.0523  0.0323
25320W        W41794  12.305  11.592  15.003  0.1010 -0.1336 -0.0602
25321W        W41795   9.712   3.831  15.852 -0.0928  0.3454  0.2296
25322W        W41796  16.809  17.702   0.130  0.1314  0.2266 -0.0009
25323W        W41797   6.334   2.729  11.645  0.0281 -0.0763 -0.1930
25324W        W41798  10.461   4.928   4.654  0.0903  0.5894 -0.0660
25325W        W41799  11.279   2.181   0.105 -0.1245  0.2131 -0.0638
25326W        W41800  15.683   0.338   4.560  0.3281 -0.1314 -0.0130
25327W        W41801   2.687   2.968  13.752 -0.0417  0.1122  0.1909
25328W        W41802  14.294   1.652   0.370  0.0884  0.0375  0.0474
25329W        W41803   4.000  13.160  13.934 -0.3888  0.4143 -0.1026
25330W        W41804  16.663  10.483   3.193 -0.2901  0.0615 -0.0696
25331W        W41805   0.381  14.555   3.738  0.1242  0.2030 -0.1944
25332W        W41806   1.505   0.910   0.319  0.1555  0.1543  0.1023
25333W        W41807  17.251  12.862   2.459  0.0561 -0.1354 -0.0090
25334W        W41808  16.461   3.315   1.296 -0.0348 -0.1509  0.0959
25335W        W41809   1.271  17.229  13.192 -0.0952 -0.0768 -0.0248
25336W        W41810   8.255  10.236   2.888  0.1858 -0.1046  0.1186
25337W        W41811  16.119  15.361   0.617  0.2131  0.1265 -0.2718
25338W        W41812  14.039  18.105  11.806  0.3365 -0.2181 -0.0706
25339W        W41813  12.207  10.140   2.606  0.2759 -0.0798  0.0868
25340W        W41814  12.967   9.153   0.572 -0.3333  0.0154  0.1541
25341W        W41815   2.314   4.488   4.607 -0.1342 -0.0497 -0.1115
25342W        W41816   8.048   0.069   2.780  0.0448 -0.0502 -0.2719
25343W        W41817   4.125   7.049   2.363  0.1988  0.1196  0.0858
25344W        W41818  11.055   7.010  14.859  0.0808  0.1052  0.1432
25345W        W41819   4.290   5.687  13.394 -0.0365  0.1114 -0.0241
25346W        W41820   6.135   4.950   0.440  0.2661 -0.3344  0.0939
25347W        W41821   9.952   9.039  11.297 -0.0156 -0.0894 -0.2960
25348W        W41822   4.805  12.886  12.114 -0.1625 -0.0308  0.1743
25349W        W41823   0.193   9.814   1.787  0.2660  0.1194 -0.1097
25350W        W41824   1.265  15.503   2.126 -0.0007  0.1233 -0.0579
25351W        W41825  12.535  16.030   1.416 -0.1113  0.0375 -0.2363
25352W        W41826   9.735   6.530  15.072  0.0070 -0.2962  0.0493
25353W        W41827   9.183   7.065  14.487 -0.0283  0.1181  0.2090
25354W        W41828  15.554   0.782   0.850  0.1120  0.2858 -0.2583
25355W        W41829  15.944  17.571  15.159  0.1562  0.0453  0.2693
25356W        W41830   8.494  10.605   1.384  0.1700  0.1818 -0.0865
25357W        W41831  17.192   6.091  11.855 -0.1662 -0.2263 -0.0059
25358W        W41832   7.526   6.609   1.525 -0.0258  0.2877 -0.0453
25359W        W41833  10.269   9.835  12.859 -0.2454 -0.1479 -0.1845
25360W        W41834  15.180  10.200   4.741 -0.1493  0.0866 -0.0667
25361W        W41835  12.167  16.632  12.609 -0.0457 -0.0527 -0.2541
25362W        W41836  13.997   3.590   4.081  0.1414 -0.0056 -0.2051
25363W        W41837   2.334   6.589   2.285  0.2369  0.0009  0.0872
25364W        W41838  13.571  10.977  15.937 -0.0293 -0.1239  0.0557
25365W        W41839   8.956   4.454  15.285  0.0492  0.0688 -0.0322
25366W        W41840   8.826  16.942  15.729  0.1523  0.0698  0.0267
25367W        W41841   0.869  13.245  13.303  0.1205  0.0247 -0.0233
25368W        W41842  12.704   8.219   1.516 -0.0134 -0.0927  0.0937
25369W        W41843  11.772  11.679  15.051 -0.2095  0.0304  0.1193
25370W        W41844  14.146   5.664  12.392 -0.0268  0.0826  0.1217
25371W        W41845  15.284  12.836  11.910 -0.0682 -0.2666  0.0502
25372W        W41846   9.531  16.772  14.921  0.1285  0.0516 -0.2371
25373W        W41847   9.910  14.063  13.022  0.2732  0.3329 -0.1906
25374W        W41848  12.190  17.790  12.847 -0.0089 -0.0076  0.0079
25375W        W41849   4.110  17.508   2.800 -0.1941  0.0211 -0.0367
25376W        W41850   9.076   9.750  13.537  0.0634 -0.3058 -0.0056
25377W        W41851   2.513  16.538   1.065  0.3227  0.0605  0.2138
25378W        W41852   4.995   6.888   4.666 -0.0931 -0.0577 -0.1423
25379W        W41853   3.002   3.840   4.060 -0.0412 -0.1411 -0.0992
25380W        W41854   2.410   8.822   3.844 -0.0858  0.0251  0.0210
25381W        W41855   9.028  14.439  14.384 -0.2029  0.4447  0.1983
25382W        W41856   9.323   9.326   0.632 -0.2055  0.1609 -0.0478
25383W        W41857   2.211   8.108   4.458  0.3125  0.1956  0.0120
25384W        W41858   4.174   0.428   5.296 -0.0501  0.2489  0.0373
25385W        W41859   3.473   0.199  11.417 -0.1077  0.1202  0.1295
25386W        W41860   8.805  17.929   1.834  0.1151 -0.0341  0.0892
25387W        W41861   8.419   8.462   5.450  0.0967  0.1601  0.0294
25388W        W41862  10.016   5.797  16.193  0.0380  0.2133 -0.2290
25389W        W41863  12.842  11.191  15.433  0.2753 -0.0018  0.2262
25390W        W41864   4.888  15.491  14.159  0.0195 -0.1957 -0.1768
25391W        W41865   7.210   0.798   3.290  0.3831 -0.3928  0.0860
25392W        W41866   5.215  11.771   2.690 -0.0984 -0.0431  0.1316
25393W        W41867   3.251  13.515   4.965  0.0981 -0.3203  0.2952
25394W        W41868   2.228   0.419   1.302  0.1218  0.2145  0.0288
25395W        W41869   0.584   1.548  15.449  0.0864  0.1505  0.0891
25396W        W41870  18.048  10.790  14.718 -0.1199 -0.1041 -0.0093
25397W        W41871   1.912   9.267   0.770 -0.2037  0.1241 -0.0136
25398W        W41872   2.576   2.325   3.032  0.0835  0.0292  0.0109
25399W        W41873  10.884  11.213  11.933  0.1240  0.1658 -0.1408
25400W        W41874   0.487   6.361  13.642 -0.0081  0.2661  0.1493
25401W        W41875  12.208  17.504   2.843  0.0642 -0.1801  0.2175
25402W        W41876   7.254   0.438   5.626 -0.0683 -0.3492  0.3208
25403W        W41877   2.925  13.819   3.332  0.0308  0.0560 -0.0024
25404W        W41878   5.473   8.173   1.156  0.0014  0.0544 -0.1495
25405W        W41879   3.736   7.417   1.472  0.0365 -0.0071  0.1651
25406W        W41880   8.862   1.355  14.002  0.0269 -0.1412 -0.0457
25407W        W41881   8.376   3.609   3.814  0.0205  0.3192  0.0415
25408W        W41882   0.607   5.374   1.361 -0.0006  0.0513  0.1172
25409W        W41883   2.193  15.784   1.976 -0.1711  0.2704  0.0090
25410W        W41884  10.061  17.405   5.670 -0.1487  0.1624 -0.1105
25411W        W41885  13.427  14.421  13.904 -0.2250 -0.1755  0.2416
25412W        W41886   8.883  16.503  13.388 -0.2574  0.0408  0.2408
25413W        W41887  10.805  13.797   5.100  0.1939  0.1206  0.3000
25414W        W41888   0.762  14.231   2.477  0.0287 -0.1455  0.2282
25415W        W41889   6.154  13.625   3.299 -0.1199 -0.1502  0.4542
25416W        W41890   6.350  12.302  12.051 -0.2323 -0.1343  0.0754
25417W        W41891   0.370  14.520  11.046 -0.1160 -0.1394  0.1134
25418W        W41892  13.760   1.832   0.055 -0.2185 -0.0732  0.0285
25419W        W41893   6.644   5.153   0.675  0.0294  0.0729 -0.1084
25420W        W41894  14.026   7.676  11.069  0.1801 -0.0897 -0.2493
25421W        W41895  16.392  17.137   4.829  0.0079 -0.1169  0.2790
25422W        W41896  15.142  16.555   3.073 -0.3218 -0.0376  0.0883
25423W        W41897   8.521   9.620  16.096  0.1786 -0.1133 -0.0224
25424W        W41898   6.463  15.175   2.165  0.1186  0.0029 -0.2094
25425W        W41899  16.113   6.398  15.402 -0.0138  0.4435  0.3940
25426W        W41900   2.091   0.136  14.994  0.1169 -0.0944  0.2362
25427W        W41901   8.436  12.437   0.885 -0.1205 -0.2707 -0.2893
25428W        W41902   8.568   8.334  12.901  0.1801 -0.0117 -0.0085
25429W        W41903   0.366   6.265  11.354  0.4338 -0.1218 -0.2247
25430W        W41904   5.227   6.405   2.281  0.2723  0.1378 -0.0866
25431W        W41905  10.821  12.129  11.622  0.0420 -0.2844  0.0998
25432W        W41906  16.190  17.830   2.550 -0.0613 -0.0017  0.1802
25433W        W41907   4.384   6.638   1.511 -0.0958 -0.2117  0.1150
25434W        W41908  14.832  10.306   2.927 -0.0286 -0.0089 -0.1749
25435W        W41909   7.355   4.846   1.875  0.2575  0.1059 -0.2662
25436W        W41910   0.552   9.376   4.986  0.1222 -0.2659 -0.1709
25437W        W41911   0.737   2.234  13.811 -0.1333 -0.1557  0.2569
25438W        W41912   9.589  13.501   3.114  0.0566 -0.4023 -0.1833
25439W        W41913   5.878  14.326  15.120 -0.1243 -0.1867  0.0235
25440W        W41914   4.697  17.262  12.685 -0.2241 -0.1020 -0.0733
25441W        W41915   9.722   0.474  14.637 -0.1103  0.0580  0.0713
25442W        W41916   5.835   0.413  13.034 -0.0685  0.1517 -0.0153
25443W        W41917   0.184  12.124   0.737  0.1911  0.0095 -0.3944
25444W        W41918   8.531   0.313   3.666 -0.0627 -0.0205  0.1716
25445W        W41919   6.486  17.856  15.099  0.2947  0.1374  0.1132
25446W        W41920   2.367   7.684   4.084  0.1233 -0.0980  0.0942
25447W        W41921  10.189  12.746  14.501  0.1267 -0.0082 -0.2784
25448W        W41922  14.650   5.520  11.558  0.2579  0.2616  0.0398
25449W        W41923  12.939   6.428   1.128  0.0694 -0.4982 -0.3894
25450W        W41924   4.451  17.874   5.880 -0.2097  0.0161 -0.2397
25451W        W41925  13.365  12.999  14.329  0.1731 -0.1246  0.1722
25452W        W41926   1.232  14.903  13.605  0.1487 -0.0183 -0.0468
25453W        W41927  12.982  16.381  14.212  0.1566 -0.1613  0.0921
25454W        W41928   6.265   6.706   0.206  0.1896  0.2050 -0.0560
25455W        W41929   1.838  14.647   1.584  0.2016  0.0372 -0.1505
25456W        W41930   9.101   9.103  13.466  0.0313  0.0079 -0.0457
25457W        W41931  12.034  16.227   5.376  0.1194  0.1452  0.1106
25458W        W41932  14.178   1.296  13.097  0.1344 -0.2488 -0.0133
25459W        W41933   0.005   8.890   3.742 -0.0682 -0.0557  0.1856
25460W        W41934  15.422   5.823  15.106 -0.1295  0.0233 -0.1722
25461W        W41935   4.227  12.466  13.196 -0.0162  0.1992  0.0970
25462W        W41936   6.635   5.794   4.296  0.0201  0.0544 -0.0662
25463W        W41937  16.734  15.632  12.185  0.1899  0.0261  0.0460
25464W        W41938   9.703  12.550   3.156  0.2208 -0.2749  0.1264
25465W        W41939   6.342  14.158  14.870 -0.1103 -0.0760 -0.1329
25466W        W41940   1.858  11.673   3.261  0.4464 -0.1165  0.1310
25467W        W41941   5.651  17.223   3.465  0.1744 -0.0846 -0.2768
25468W        W41942   0.293  13.147   4.236  0.1818 -0.0333  0.0112
25469W        W41943   2.476  16.864   0.124 -0.3941  0.0419  0.0911
25470W        W41944  10.454  16.636   2.615  0.2835 -0.5239 -0.0070
25471W        W41945   2.965   0.773   5.962  0.2329  0.1619 -0.3704
25472W        W41946   5.303   8.194   2.035  0.0728  0.0312 -0.3148
25473W        W41947  14.674  17.920   5.320 -0.1069  0.1302 -0.1101
25474W        W41948  16.753  10.348   1.855  0.0420  0.2851 -0.2644
25475W        W41949  12.897   8.412   1.040 -0.0378 -0.1378 -0.0564
25476W        W41950   2.207  16.908   1.070  0.4628  0.0678 -0.1287
25477W        W41951   7.285   6.225   5.137 -0.1383  0.0241 -0.0193
25478W        W41952   5.239  16.845   4.456 -0.0178  0.1440  0.2766
25479W        W41953  13.318  11.115  15.526 -0.1154 -0.0550  0.0625
25480W        W41954  14.009   1.316  12.141  0.1560 -0.0658 -0.1659
25481W        W41955  10.407   9.697  13.312 -0.2768 -0.1109  0.3076
25482W        W41956   5.680  14.300  11.103  0.1306 -0.2184  0.3436
25483W        W41957   8.598  15.254   0.911 -0.1329  0.2638  0.0840
25484W        W41958   4.591   7.141   1.611  0.1537 -0.2371  0.0213
25485W        W41959   8.254  17.126   0.915  0.1210 -0.0034 -0.1904
25486W        W41960   8.186  12.029   0.293 -0.0589  0.0753 -0.0290
25487W        W41961  14.705   3.764   1.677  0.1314 -0.0292 -0.3230
25488W        W41962   5.289  12.703  15.444  0.3060 -0.0938 -0.1916
25489W        W41963   4.432   2.998  10.969 -0.2433  0.0375 -0.1059
25490W        W41964   8.220   0.100  13.736 -0.2284 -0.1272 -0.1368
25491W        W41965   7.822  16.451  13.636  0.1412 -0.0150 -0.0575
25492W        W41966   9.081   2.184  14.945  0.1389 -0.1793 -0.1978
25493W        W41967  12.108   4.069  12.792  0.2826 -0.0738 -0.3430
25494W        W41968   0.390   4.458   4.576  0.2297  0.3506 -0.1258
25495W        W41969  13.399   8.631   5.557 -0.0592  0.1835  0.3063
25496W        W41970   4.805   9.353   3.564  0.0776  0.1157 -0.0039
25497W        W41971  15.459   4.482   1.526  0.1240  0.0225 -0.2826
25498W        W41972  10.156   7.369  12.099 -0.0209 -0.1033 -0.1425
25499W        W41973   4.797   5.276   1.227  0.4344 -0.0168  0.0187
25500W        W41974   4.427  10.237   3.519  0.0021  0.1221 -0.3795
25501W        W41975   4.366   3.986   1.127  0.0331  0.1243 -0.1178
25502W        W41976  16.011   4.273   2.051  0.1827  0.0914  0.3142
25503W        W41977  15.536  16.455  13.024  0.2338 -0.2053 -0.0839
25504W        W41978  14.648   8.938   1.748 -0.0811  0.2657  0.0372
25505W        W41979   5.824   1.940  14.959 -0.5119  0.0751  0.1826
25506W        W41980  12.582  14.161   3.281 -0.2788  0.0676  0.1653
25507W        W41981  14.131   2.058  11.745 -0.1020  0.2886 -0.1338
25508W        W41982  17.449  15.630  12.066  0.0650 -0.1687  0.2407
25509W        W41983   9.664  14.996   3.802 -0.1024 -0.0527  0.0269
25510W        W41984  12.583   1.314   2.525  0.2816  0.2269 -0.5125
25511W        W41985   1.976   2.504  14.348 -0.1016  0.1235 -0.1062
25512W        W41986  10.582  16.967   0.177 -0.0336 -0.1850  0.1081
25513W        W41987  16.990  11.233   2.113  0.2823 -0.1584  0.1111
25514W        W41988  17.758   3.773  13.157  0.0359 -0.3253  0.3457
25515W        W41989  10.342  14.413  13.935 -0.2101  0.1137 -0.1190
25516W        W41990   3.614   7.878  13.218 -0.3117  0.1660 -0.2664
25517W        W41991   9.904   9.221   0.050  0.0113  0.0442 -0.0525
25518W        W41992  11.521   3.289  15.858  0.4222 -0.1131 -0.3181
25519W        W41993   4.921   9.856   3.619  0.0356  0.1361 -0.0253
25520W        W41994  11.506  12.665  12.335 -0.1369  0.1518 -0.1969
25521W        W41995  17.707  17.246  10.968  0.1654 -0.0858  0.0754
25522W        W41996   2.217   0.781   4.715  0.0241  0.1647  0.0265
25523W        W41997  14.674  14.476  12.829  0.0226  0.2351 -0.1970
25524W        W41998  16.604   6.395  16.225  0.4011 -0.0407  0.1362
25525W        W41999   0.872   0.502   5.387 -0.0492  0.1557 -0.2208
25526W        W42000   7.747   8.080   3.315  0.2138  0.0575 -0.3172
25527W        W42001   0.724   6.691   3.537 -0.3075  0.1172  0.0195
25528W        W42002   8.323  17.684  15.587  0.0216 -0.0202 -0.3547
25529W        W42003  11.424   5.878  15.533  0.0831  0.1741  0.0243
25530W        W42004   5.853   2.041  16.322  0.0747  0.1384  0.2224
25531W        W42005   2.061  15.182   4.372 -0.0049  0.2459 -0.1028
25532W        W42006   0.248   4.194   2.083 -0.1051  0.3764  0.1216
25533W        W42007   7.941   6.470  13.675 -0.2582  0.1289 -0.2899
25534W        W42008  17.441   8.929   2.628  0.1060 -0.2063  0.0328
25535W        W42009  12.192  15.324   0.826 -0.1183  0.1377  0.1092
25536W        W42010   8.783   1.701   4.393 -0.1554 -0.1180 -0.0597
25537W        W42011  10.848  10.472   4.999 -0.0651 -0.0494 -0.2828
25538W        W42012   7.204  16.854   3.219  0.0453  0.2768  0.1832
25539W        W42013  17.911  17.392  15.510 -0.0928 -0.2810 -0.2522
25540W        W42014   2.193   6.228  12.902  0.1409  0.1000 -0.2331
25541W        W42015   8.730  11.992  13.518 -0.1394  0.0410  0.2820
25542W        W42016   9.071  17.513  14.460 -0.2616 -0.0407  0.1607
25543W        W42017   6.425   3.535  11.798  0.0816  0.0458  0.1848
25544W        W42018   4.892  11.110   3.096  0.2986  0.2025  0.0795
25545W        W42019  15.435   6.601   3.807 -0.1817 -0.0526  0.2326
25546W        W42020   6.131   6.348   2.779  0.0531 -0.0468 -0.0478
25547W        W42021  12.396  13.618   1.804 -0.0458 -0.1611 -0.3010
25548W        W42022  14.434   8.531   3.885 -0.1535  0.0534  0.2334
25549W        W42023   4.273   1.245   5.023  0.1913 -0.3758  0.2170
25550W        W42024   8.884   7.549  11.578  0.2088  0.2606  0.2501
25551W        W42025  17.646  17.063  12.319 -0.0740  0.0160  0.0984
25552W        W42026   3.817   8.161   3.540  0.0428  0.0818  0.1553
25553W        W42027  14.600   9.219   0.087  0.0758  0.2684  0.0975
25554W        W42028  11.884  13.846  11.378  0.0847  0.1347 -0.0507
25555W        W42029   3.474  18.019  14.420  0.0686  0.0039  0.1006
25556W        W42030   7.152   5.077  12.461  0.3158  0.2665  0.1534
25557W        W42031  11.599  13.968   3.675  0.2143  0.1372  0.0040
25558W        W42032  12.648   4.346  16.294  0.4113  0.1153  0.1139
25559W        W42033  17.699   3.739  15.141 -0.1714  0.0815 -0.1797
25560W        W42034   8.455   1.904  12.023 -0.0275 -0.1450 -0.0108
25561W        W42035   6.105   8.461   2.407  0.1619 -0.0246  0.1295
25562W        W42036  12.493   0.575  16.176 -0.2216  0.0428  0.0894
25563W        W42037   2.819   1.605   4.264  0.2697 -0.1751  0.1075
25564W        W42038  14.049   0.946  14.006  0.3555  0.0206  0.3075
25565W        W42039   3.331   3.614   2.667  0.0020  0.1353 -0.0709
25566W        W42040   8.402   8.155   4.625  0.2838 -0.0116 -0.0807
25567W        W42041   5.021   4.049  14.607 -0.0296  0.0077  0.2012
25568W        W42042  10.161   6.018  14.643 -0.2802 -0.0678 -0.0617
25569W        W42043  12.448   2.016  16.046  0.2596 -0.3632  0.0363
25570W        W42044  15.129   0.643   0.514 -0.0141  0.1070 -0.0083
25571W        W42045   6.613  13.273   3.195 -0.0495 -0.1608  0.0094
25572W        W42046  12.010   6.575   3.000  0.0492 -0.2469 -0.3955
25573W        W42047  12.409  12.024   0.905  0.2566  0.0489 -0.0864
25574W        W42048   6.741   4.781  12.458  0.2371 -0.1599  0.3458
25575W        W42049  12.712   7.783   0.184 -0.1377  0.2400  0.0687
25576W        W42050  13.042   6.118  11.875 -0.5450 -0.1137 -0.0494
25577W        W42051   8.583   8.189   2.592 -0.2750  0.1034 -0.2817
25578W        W42052   8.610   0.431  13.543 -0.1718 -0.2909 -0.1013
25579W        W42053  13.246  13.191   2.291 -0.3337  0.0976 -0.2238
25580W        W42054   5.777  12.157   1.239  0.0675  0.2332 -0.0069
25581W        W42055   9.036   8.936   0.463 -0.1778 -0.0359 -0.0354
25582W        W42056  13.325   0.141   2.979  0.2746  0.4315  0.2014
25583W        W42057   5.208   4.835   0.601 -0.0537 -0.1454  0.0473
25584W        W42058   7.496  10.087  15.285  0.0855 -0.2000  0.2967
25585W        W42059  16.076   1.210   5.575  0.3034 -0.1327  0.1259
25586W        W42060   6.845   5.545  12.470  0.0405  0.1127 -0.0454
25587W        W42061  10.130  10.055   0.570 -0.0312  0.3017  0.0095
25588W        W42062   0.496   9.289  11.350 -0.2132 -0.1278  0.0614
25589W        W42063   3.805  12.192   2.421 -0.1097 -0.1597 -0.1236
25590W        W42064  18.087   6.665  14.148 -0.1035 -0.1896 -0.1597
25591W        W42065  14.343   0.541   6.090 -0.4859  0.1850  0.1645
25592W        W42066  12.828   8.107  14.210  0.0081  0.1446 -0.2280
25593W        W42067   0.441  17.097  13.834 -0.3396  0.0082 -0.2080
25594W        W42068  15.857  11.641   0.333  0.0589  0.0350  0.0743
25595W        W42069  13.679   5.885  11.325 -0.1138  0.2855  0.1097
25596W        W42070  13.426   5.740  11.799 -0.0500  0.1401  0.1058
25597W        W42071  15.059   3.501  14.248  0.1256  0.0515  0.3431
25598W        W42072  16.080  15.191  13.450 -0.2302  0.1652 -0.0475
25599W        W42073   3.323  15.983  11.005  0.2470  0.3761 -0.0459
25600W        W42074   0.018  17.314  12.545 -0.1049  0.0692 -0.0587
25601W        W42075  14.381   3.373   0.581  0.1336 -0.0581  0.0650
25602W        W42076  11.420  12.560  13.652 -0.0681  0.0000 -0.2408
25603W        W42077  11.080   7.503   1.439  0.2534 -0.0189 -0.1168
25604W        W42078   8.951  15.803   1.055 -0.2023  0.3060  0.1422
25605W        W42079  15.952  14.778  15.877 -0.3661 -0.1027  0.1554
25606W        W42080  11.646   6.767  13.247  0.3652 -0.0399 -0.1954
25607W        W42081   9.564   0.154   1.860 -0.2580  0.0056 -0.0978
25608W        W42082   7.705   6.303  13.137 -0.1168 -0.0186 -0.1967
25609W        W42083   2.965   0.845  15.895 -0.2269  0.2434  0.1675
25610W        W42084   2.466  12.337   1.395  0.1483 -0.4307 -0.1596
25611W        W42085  16.464   8.611   1.445  0.2841  0.0609  0.0407
25612W        W42086  15.349  16.110   3.910 -0.2781 -0.3017 -0.0558
25613W        W42087  12.153   7.391   4.326 -0.2169  0.0255  0.0262
25614W        W42088   6.917   1.953  11.735 -0.0469  0.1644 -0.0609
25615W        W42089   2.352   7.469   0.482  0.1009 -0.1119  0.0372
25616W        W42090   6.803  12.784  11.337 -0.0006  0.1971  0.1763
25617W        W42091   0.105   5.337   3.028 -0.0660 -0.0020 -0.1231
25618W        W42092  13.294  11.035  14.965  0.2059  0.2208  0.2607
25619W        W42093   0.686   9.914  15.505 -0.0272  0.1700 -0.2326
25620W        W42094  13.222  15.553  12.289  0.1321 -0.0257 -0.0101
25621W        W42095   2.367   4.938  14.972  0.1049 -0.0135  0.1131
25622W        W42096  15.232   1.082  13.311 -0.2702 -0.0063  0.1987
25623W        W42097   0.887   3.613  14.093 -0.0102 -0.0154  0.1239
25624W        W42098  14.618  11.231   3.299  0.0757  0.3554 -0.0779
25625W        W42099   8.087   5.538   2.129  0.2681 -0.2960  0.0343
25626W        W42100   2.445   2.395  13.165  0.2012 -0.0260 -0.1694
25627W        W42101  15.051  13.395   2.550 -0.1157 -0.1094 -0.2970
25628W        W42102  12.335   3.620   3.393 -0.0631 -0.1059  0.1233
25629W        W42103   4.307  14.499  11.427  0.0929 -0.0473 -0.0066
25630W        W42104  15.507   7.547   9.691  0.1951 -0.3686  0.3937
25631W        W42105  15.244   4.637   2.930 -0.2133  0.3546  0.0560
25632W        W42106  15.683  10.010   0.024  0.1233  0.2282  0.2948
25633W        W42107   3.150  10.045  16.121 -0.4016 -0.2833  0.1047
25634W        W42108  11.460  15.024  15.793  0.2536  0.1796  0.0952
25635W        W42109  10.150  11.020  12.640 -0.0285 -0.1993 -0.1790
25636W        W42110   7.728   8.894   4.630  0.0101 -0.1919 -0.2333
25637W        W42111   9.080   4.781   1.682  0.0845 -0.2677  0.1385
25638W        W42112  15.640  16.642   3.965 -0.1382  0.1977 -0.1695
25639W        W42113  14.449  14.748   0.179  0.1374 -0.1224  0.3624
25640W        W42114   9.501   9.117  12.945 -0.0155  0.0118  0.0495
25641W        W42115  16.010  13.444  12.113 -0.0296  0.1047 -0.0975
25642W        W42116  10.945   6.150  15.609 -0.2047  0.2100  0.1834
25643W        W42117  15.142   7.323   1.247  0.1403 -0.0336  0.2835
25644W        W42118   4.375   1.689  14.380 -0.0781  0.2393  0.0573
25645W        W42119   5.795   0.749  16.293 -0.1416 -0.1522  0.2538
25646W        W42120  11.236   1.257  16.004 -0.0322 -0.0962 -0.1274
25647W        W42121   8.702   3.084  13.487  0.0896  0.1817  0.0455
25648W        W42122  11.779  11.889   6.018 -0.1061  0.1745 -0.0627
25649W        W42123  10.916   0.753   5.831 -0.0626  0.1713 -0.6207
25650W        W42124   2.412  11.140  12.265 -0.1589  0.0799 -0.1359
25651W        W42125  12.166   5.427  14.207  0.2559  0.4371  0.1266
25652W        W42126   9.056   9.504  13.091 -0.2473  0.1752 -0.1697
25653W        W42127  15.602   9.472   1.933 -0.1087 -0.0911  0.3375
25654W        W42128   7.641   3.245  13.642  0.2813  0.1398 -0.2037
25655W        W42129  11.472   9.055   5.067  0.2977 -0.2691  0.1487
25656W        W42130  13.314  11.031   0.652  0.1389 -0.0035  0.0248
25657W        W42131   8.785  14.571   5.438  0.0717  0.0033 -0.1618
25658W        W42132   2.007  11.599   2.018  0.1673 -0.1411 -0.1639
25659W        W42133   7.768  10.227  13.701 -0.1090  0.1859  0.2322
25660W        W42134   8.956  16.017  15.733  0.0526  0.0747  0.4085
25661W        W42135   5.789   0.305  14.219  0.0396 -0.1976 -0.0556
25662W        W42136  10.578  10.867  14.951 -0.1262  0.3432 -0.1060
25663W        W42137  10.989  17.120  12.669 -0.0653  0.0359  0.1862
25664W        W42138   5.948   9.409   1.714 -0.0432 -0.0467  0.0716
25665W        W42139   8.679  14.811   5.890  0.3883 -0.0646 -0.1393
25666W        W42140  11.785   2.200  11.370 -0.2283 -0.3049  0.0903
25667W        W42141  11.053   4.365   2.611  0.0347  0.6089 -0.2620
25668W        W42142   7.505  15.807   1.656 -0.2631  0.2724  0.0226
25669W        W42143  14.192  17.234   4.750 -0.1597 -0.1475 -0.1710
25670W        W42144  13.497  14.352   1.151  0.0621 -0.2900 -0.0199
25671W        W42145   6.642   8.045   3.824 -0.0594  0.2376  0.2819
25672W        W42146  15.478   2.514   1.426 -0.3548  0.1609 -0.2605
25673W        W42147   7.290  11.294  15.529  0.1117 -0.2186  0.2605
25674W        W42148  17.469   2.490  16.173  0.0274  0.0230 -0.4184
25675W        W42149   2.792   8.028   4.841 -0.0911 -0.3644 -0.1538
25676W        W42150   6.796   2.587   3.706  0.0277  0.0134  0.0547
25677W        W42151  12.902  17.278  11.430 -0.0895 -0.3102  0.2191
25678W        W42152  16.796   9.414   0.304  0.0205  0.1647  0.1825
25679W        W42153   5.727  11.149  11.396  0.2000  0.0693 -0.1256
25680W        W42154   4.003   9.533  14.639  0.1543  0.0343 -0.0496
25681W        W42155   0.945   7.481   3.033 -0.0672  0.4386  0.2683
25682W        W42156  11.741   4.884   4.657 -0.1543  0.1316  0.0371
25683W        W42157   2.917  16.300  13.575  0.0983  0.2959  0.2019
25684W        W42158  12.502   0.010  15.411 -0.0004 -0.2803  0.0390
25685W        W42159   3.798   0.862  13.174  0.4641 -0.1003  0.0166
25686W        W42160  17.182   4.452   1.311  0.0602  0.0924 -0.1357
25687W        W42161  15.285  14.865   0.684 -0.1226  0.0981 -0.4229
25688W        W42162   7.945  17.902  12.923  0.1773 -0.0687 -0.0407
25689W        W42163   8.494  15.838   4.776  0.3318 -0.0382 -0.1979
25690W        W42164   1.764  15.790   3.475 -0.1376 -0.2823  0.2621
25691W        W42165   5.589  10.912   0.068 -0.2183  0.0942  0.2648
25692W        W42166   3.251  15.752  16.180 -0.2254  0.0677 -0.0419
25693W        W42167   4.151   6.195  14.770 -0.1414  0.0768 -0.0354
25694W        W42168  12.213   5.181   4.878  0.1923  0.0687 -0.1367
25695W        W42169   9.423  12.430  11.342 -0.1159  0.0994 -0.1356
25696W        W42170  12.106  17.216   5.827 -0.1484 -0.0103 -0.0748
25697W        W42171   0.837  17.914  12.568  0.1279  0.1392 -0.1203
25698W        W42172  10.131   5.959  15.164  0.2550  0.2777  0.4243
25699W        W42173  12.289   2.857   1.832  0.3206 -0.0100  0.0345
25700W        W42174   5.458  15.971   4.062  0.1737 -0.2772 -0.2433
25701W        W42175   2.569   8.097  14.252  0.1051 -0.1145  0.0581
25702W        W42176   6.367   0.895  15.753 -0.2101 -0.0682  0.1407
25703W        W42177  12.948  16.935   3.999 -0.0261  0.2179  0.0323
25704W        W42178  15.968  13.418   5.200 -0.0603 -0.0546  0.2107
25705W        W42179   4.264   6.399  11.915 -0.1145  0.0950 -0.3471
25706W        W42180   3.953  11.364   1.665 -0.0855 -0.0754  0.0539
25707W        W42181   3.686   6.559   5.196  0.1046  0.0718  0.1530
25708W        W42182  11.578   2.513   5.202 -0.1501 -0.0936  0.0655
25709W        W42183  11.555  10.245   4.254 -0.2304  0.0375  0.0260
25710W        W42184  15.463   8.652  13.134  0.1957  0.0274 -0.2172
25711W        W42185   6.114   0.431   2.660 -0.1592  0.2688  0.0703
25712W        W42186  13.933   7.124  12.407 -0.0388  0.0377  0.0746
25713W        W42187   1.029  12.143  14.492 -0.1235  0.0684  0.1932
25714W        W42188   4.829   0.951   1.797  0.1876  0.4444 -0.1277
25715W        W42189   4.626   3.987  16.048  0.3843  0.1186 -0.2261
25716W        W42190  12.369   1.451  11.621  0.2440  0.0491 -0.0318
25717W        W42191   2.862  17.730  13.419 -0.0414  0.1660 -0.1165
25718W        W42192   3.439  12.003  15.641  0.1031 -0.0211  0.1919
25719W        W42193   4.108  13.433   3.228  0.0612 -0.0567  0.2289
25720W        W42194   4.161   9.641   4.759 -0.2543 -0.0733 -0.1806
25721W        W42195   9.802   1.190  12.932  0.2159 -0.1208  0.3198
25722W        W42196  11.310  12.403   4.495  0.0957 -0.3462  0.1986
25723W        W42197   9.246   4.178  14.840  0.1529 -0.3170 -0.1513
25724W        W42198   7.772  15.333  15.689 -0.0111 -0.3890  0.1144
25725W        W42199  15.061  13.205   2.098 -0.1275 -0.2203  0.0252
25726W        W42200  17.081  13.982  15.301 -0.2700 -0.0569 -0.0595
25727W        W42201  14.117  17.786   3.889  0.1095 -0.1706  0.1352
25728W        W42202   2.042  12.689   1.436 -0.1806 -0.1245 -0.1045
25729W        W42203  11.034  16.776   1.686 -0.0790  0.1129 -0.3074
25730W        W42204   8.316   4.883   1.307 -0.0021  0.1059 -0.3322
25731W        W42205   3.528   5.118  15.575 -0.3208 -0.2335 -0.2660
25732W        W42206  12.026  13.753   2.436  0.1793  0.1698  0.0644
25733W        W42207  17.845  17.584  14.766 -0.2035 -0.1761 -0.0822
25734W        W42208   3.700   5.040   0.180 -0.2250 -0.0463  0.1190
25735W        W42209   4.622  11.809   4.684 -0.0805  0.3717 -0.2528
25736W        W42210  11.831  16.709   2.949  0.0511  0.1659 -0.0031
25737W        W42211   1.304  17.814  15.328 -0.3412  0.1365  0.3319
25738W        W42212  11.815   5.241   2.353  0.2437 -0.0748  0.0586
25739W        W42213  10.693  14.407   4.171 -0.2031  0.3743  0.1678
25740W        W42214  13.799   4.532   0.704 -0.0405  0.2647 -0.0664
25741W        W42215   7.295   1.150  15.785  0.0678 -0.2087  0.1193
25742W        W42216   6.939   9.199   0.202  0.0025 -0.0232  0.2324
25743W        W42217   7.686   0.237   5.807  0.3455  0.1607 -0.1848
25744W        W42218  17.112  10.204   3.243  0.2380 -0.2514  0.0131
25745W        W42219   0.206  14.003  12.405 -0.3392  0.2036 -0.0597
25746W        W42220   4.343  16.335   4.414 -0.0976  0.0093 -0.0967
25747W        W42221  12.597  10.501   4.643 -0.0813  0.0417  0.0595
25748W        W42222  11.487   7.346  13.357 -0.0879 -0.1746 -0.0362
25749W        W42223   0.619   3.274   2.525  0.1391  0.1730 -0.1080
25750W        W42224  12.993   6.647  11.156  0.2286  0.3298 -0.2230
25751W        W42225   4.758  10.399   1.454 -0.2705  0.0304  0.1559
25752W        W42226  17.514   0.742   2.912 -0.1902 -0.0463 -0.1527
25753W        W42227  13.694  17.489  15.343 -0.0891 -0.0936 -0.2217
25754W        W42228   5.601  17.192  10.431 -0.3002 -0.0778  0.0975
25755W        W42229   1.395   0.340   5.190 -0.1584  0.1142  0.0384
25756W        W42230   3.634  11.545  15.987 -0.0249 -0.0635  0.0054
25757W        W42231  11.596  12.112  14.852  0.0801 -0.0226 -0.0801
25758W        W42232  13.436  14.400  15.373  0.0366 -0.0652  0.2437
25759W        W42233   6.250  16.030  16.114  0.0913  0.5025  0.0199
25760W        W42234   0.358   7.923  11.434 -0.2116  0.2348 -0.2585
25761W        W42235  18.000  12.404   0.011  0.0179 -0.0076  0.3200
25762W        W42236  11.821   7.819   0.779  0.1052  0.0361 -0.2394
25763W        W42237  12.351  16.201  11.365 -0.0228  0.0622 -0.0919
25764W        W42238   2.083   1.019  13.349  0.1175  0.1637 -0.0385
25765W        W42239   2.837  12.244   5.290 -0.1345  0.1632 -0.3876
25766W        W42240   2.100  13.327   3.929 -0.0586  0.0013 -0.1719
25767W        W42241   4.324  11.336  10.742  0.0255  0.1381  0.1992
25768W        W42242  10.027   8.966  13.656 -0.1130  0.0425  0.0725
25769W        W42243   7.625  16.481  14.543  0.2439 -0.0468  0.3297
25770W        W42244   7.336  15.617   2.079  0.3588  0.0200 -0.1423
25771W        W42245   3.310   1.171   0.746 -0.3727  0.4579 -0.1309
25772W        W42246   9.505   5.024  12.950 -0.4909  0.2170  0.0069
25773W        W42247  12.450   0.690  13.463  0.0797 -0.1888 -0.2337
25774W        W42248   5.780   9.340   5.223  0.2736 -0.0443  0.1940
25775W        W42249   1.107   9.145   2.883 -0.5003  0.0918  0.0763
25776W        W42250  15.081   5.179   1.745  0.3336  0.1784  0.0541
25777W        W42251  15.946   7.263  10.107  0.1746 -0.2459 -0.1118
25778W        W42252   0.411  11.153   4.717  0.1129 -0.0617 -0.0513
25779W        W42253   5.211   1.373  14.377  0.3332  0.2096 -0.0936
25780W        W42254   5.964   3.706   5.774 -0.0078  0.0664  0.3608
25781W        W42255   1.690   2.001   3.231  0.2284  0.0479  0.0206
25782W        W42256   3.919  10.531  12.104 -0.3697  0.0066  0.1149
25783W        W42257   0.208  12.330   2.844 -0.1082  0.1475 -0.0763
25784W        W42258  16.676   9.317  13.496  0.0958 -0.0821  0.0039
25785W        W42259   0.921  14.130   1.146 -0.3483 -0.1028 -0.2350
25786W        W42260  10.433   8.486   5.235 -0.1243  0.1765  0.2708
25787W        W42261  13.580  15.342   1.275  0.0862 -0.0218 -0.2522
25788W        W42262  14.880  17.125   1.091  0.2290  0.0144 -0.2944
25789W        W42263  15.681   8.800   5.305  0.0123 -0.1031 -0.2936
25790W        W42264   8.788   4.787   5.455  0.1861 -0.0240  0.1061
25791W        W42265  16.983   8.875   4.828 -0.1323  0.2543 -0.2865
25792W        W42266  12.255   3.904   1.116  0.0279 -0.0054 -0.0171
25793W        W42267  12.505  10.792  11.033  0.1880  0.1325  0.3701
25794W        W42268  11.950   4.412   1.909 -0.1887  0.1258  0.2088
25795W        W42269   8.137  12.675   3.342 -0.2313 -0.0307 -0.1990
25796W        W42270   3.717  13.100   4.526  0.2241 -0.0154 -0.4354
25797W        W42271   8.553   1.257   2.228  0.1175 -0.1465 -0.0947
25798W        W42272  17.581   2.080   4.635 -0.0310  0.0257 -0.1657
25799W        W42273  11.273   6.444  13.469 -0.1096 -0.1642  0.1166
25800W        W42274  11.389   7.471  11.941  0.0047  0.4207  0.3264
25801W        W42275   2.342   1.109   2.146  0.0099 -0.2601 -0.0134
25802W        W42276  14.612  10.443  13.653  0.1716 -0.0828  0.1810
25803W        W42277   2.410   5.888   3.954 -0.0275 -0.3779 -0.4003
25804W        W42278   6.342   5.627   0.595  0.3436  0.0142  0.0997
25805W        W42279  10.526  10.581  15.838 -0.3134  0.0896  0.5752
25806W        W42280  12.371   8.877   2.703  0.0896 -0.1746  0.2696
25807W        W42281   8.393   8.844   4.027 -0.0092 -0.0746  0.0079
25808W        W42282   8.567   6.298  11.596 -0.0701  0.1129 -0.0015
25809W        W42283   0.541  14.507  15.710  0.1654 -0.0212  0.0990
25810W        W42284  14.249  18.082   4.774  0.0843 -0.2639 -0.1264
25811W        W42285   0.187   9.744   2.766  0.2085 -0.0130  0.2559
25812W        W42286   1.949  16.121   3.172 -0.0459  0.1247 -0.1611
25813W        W42287  13.998   8.598   0.592 -0.0604  0.0019 -0.0396
25814W        W42288  13.167  13.003   4.506  0.0480 -0.1821 -0.0552
25815W        W42289   2.116   8.293   2.166 -0.1687  0.2969 -0.1107
25816W        W42290   1.056   7.838   2.379  0.0654  0.1811 -0.0076
25817W        W42291   0.518   0.423   3.396  0.1019 -0.1645  0.2283
25818W        W42292   4.861   5.330   2.922  0.1057 -0.5567  0.1269
25819W        W42293  10.404   5.942   4.973 -0.0660 -0.0448  0.0041
25820W        W42294   7.385  10.726  16.274  0.0169  0.0978  0.3216
25821W        W42295   1.208   3.313  12.461 -0.3236  0.3386  0.0124
25822W        W42296  10.041   2.602   0.491  0.0794  0.0203 -0.0451
25823W        W42297  14.374  11.640  13.948  0.3743  0.0882 -0.1780
25824W        W42298  18.166   1.571   1.165  0.4784  0.4950  0.0556
25825W        W42299   8.651   1.950   3.528  0.0884 -0.2113  0.4135
25826W        W42300  11.672  15.998   2.001 -0.0435 -0.1275 -0.0335
25827W        W42301  12.525   1.091  13.875 -0.4514  0.1361 -0.1545
25828W        W42302   8.575  16.771  14.799  0.1491  0.0912  0.0561
25829W        W42303  17.187  12.314   4.554 -0.0019 -0.1525 -0.1019
25830W        W42304   9.544   4.438   1.776 -0.1439  0.0861 -0.0285
25831W        W42305   7.147   3.862  10.505  0.1158 -0.2327 -0.1577
25832W        W42306  12.953   9.745   4.977  0.0618  0.0495 -0.0528
25833W        W42307   8.216   8.459  11.666  0.0056 -0.0301  0.1813
25834W        W42308   6.503  10.035   1.658 -0.0144  0.1473  0.0519
25835W        W42309   9.357   8.690   3.717 -0.0862  0.2270 -0.2439
25836W        W42310  10.119   3.551   3.488 -0.2431 -0.4387 -0.0504
25837W        W42311  10.011   9.303   2.551  0.0286  0.1367 -0.0791
25838W        W42312  16.594  12.177   2.007 -0.0363 -0.1916  0.0188
25839W        W42313  12.295  15.310   2.453 -0.1015 -0.2326 -0.0083
25840W        W42314   6.637   4.885  11.667 -0.3688 -0.2262 -0.0264
25841W        W42315   6.618   5.673  12.899  0.0672 -0.1250  0.0191
25842W        W42316   1.520   3.385   1.531 -0.1080  0.1009 -0.0031
25843W        W42317  12.545   3.852  12.156  0.1171  0.0366 -0.0452
25844W        W42318   4.705   8.529  15.190  0.0657  0.0127 -0.0042
25845W        W42319   1.219  11.334   2.610 -0.0419  0.1019  0.1277
25846W        W42320  17.883  10.930   2.337  0.2925 -0.3011 -0.0534
25847W        W42321   4.118  10.431  16.346  0.3208 -0.1949 -0.3207
25848W        W42322   6.771   6.241   0.377  0.0000  0.2161 -0.2402
25849W        W42323  10.771   3.821  14.847 -0.0574 -0.2345 -0.0668
25850W        W42324   3.614   6.764  11.414 -0.1256  0.2954 -0.2501
25851W        W42325   1.832   0.281   2.308  0.0343  0.4845  0.1409
25852W        W42326  16.540   7.655  16.250 -0.0122  0.0563 -0.0546
25853W        W42327  16.714  10.906   5.218 -0.0742  0.3485 -0.1794
25854W        W42328  12.815   1.334  14.353 -0.2215 -0.0609 -0.0724
25855W        W42329  17.369  14.023   2.158 -0.3766  0.2135 -0.1896
25856W        W42330  12.382  17.312  11.623 -0.0990  0.2919  0.2070
25857W        W42331   0.801  13.141  12.067 -0.0906 -0.2923  0.2036
25858W        W42332  16.287   0.815  16.185  0.4075 -0.2221 -0.1676
25859W        W42333   2.323   7.242  11.322 -0.1914 -0.3661 -0.2330
25860W        W42334   2.665  12.792   3.560 -0.0255 -0.2371  0.0201
25861W        W42335   9.382   6.856  15.332 -0.0358 -0.0099 -0.3063
25862W        W42336  13.756  14.726   2.286  0.1476 -0.1927 -0.2932
25863W        W42337  11.506   8.338  14.264  0.0128  0.1235  0.0778
25864W        W42338   1.571   9.710   3.478  0.0187 -0.0366  0.2052
25865W        W42339   2.521  10.104   0.887  0.2323 -0.2611 -0.0908
25866W        W42340   5.513   0.985  14.220  0.0920 -0.2405 -0.0201
25867W        W42341   3.312   0.871   1.500  0.0626  0.1791 -0.2500
25868W        W42342   7.081   3.163   2.237 -0.1783  0.0935  0.1547
25869W        W42343   2.789  13.011  12.078  0.0293  0.0183  0.0486
25870W        W42344  12.242  17.041   3.471  0.0322 -0.1788 -0.0296
25871W        W42345   8.976  17.493   2.093  0.0782 -0.0744 -0.1973
25872W        W42346  10.385  17.682  12.035 -0.2512 -0.1125 -0.0857
25873W        W42347  12.928  15.863   1.733  0.1172  0.0264  0.0790
25874W        W42348  13.901   1.230  12.647  0.0774  0.0068 -0.0707
25875W        W42349   1.122   3.972   2.100 -0.0998 -0.3045 -0.0458
25876W        W42350  15.731   6.124  14.258  0.0978 -0.0351 -0.1104
25877W        W42351  15.360   5.509  11.880  0.1515 -0.1303  0.0092
25878W        W42352  18.152   1.031   5.384  0.1176 -0.1137 -0.0916
25879W        W42353  12.431   9.838   1.183  0.0689  0.0191 -0.0879
25880W        W42354  18.065   6.001   1.586  0.1864 -0.0791  0.1648
25881W        W42355   8.529   9.448   1.825 -0.2625  0.1853  0.1728
25882W        W42356  11.269  16.634   3.336 -0.3199 -0.1297  0.0160
25883W        W42357   7.758  14.328  13.168 -0.1104 -0.1320  0.0842
25884W        W42358   1.393   2.980   1.203 -0.0056 -0.1896 -0.3831
25885W        W42359   4.702  15.338   5.085 -0.0170  0.4310 -0.2065
25886W        W42360   8.582  15.889  13.820 -0.2334  0.3206 -0.1370
25887W        W42361  11.042   7.503  13.558  0.0574  0.1604 -0.0615
25888W        W42362  11.972  15.129  12.058 -0.1673 -0.1326  0.1094
25889W        W42363  16.285   5.537  15.145 -0.2349 -0.1327 -0.0521
25890W        W42364   7.241  14.475   1.157 -0.0676 -0.0681 -0.0215
25891W        W42365  14.057   1.447   2.907 -0.2523 -0.1650 -0.1315
25892W        W42366  15.081   3.711   1.953  0.1055 -0.1055  0.0610
25893W        W42367  16.050   9.166   2.126  0.2534  0.2027  0.5004
25894W        W42368   3.961   6.498   3.179 -0.0850  0.1456 -0.0595
25895W        W42369  11.040  18.104  12.909 -0.2191  0.1710 -0.3112
25896W        W42370   5.412  11.701   3.682  0.1626 -0.0751 -0.0660
25897W        W42371  16.858   5.721   4.462 -0.1193  0.1263  0.0680
25898W        W42372   0.302  14.372  12.004  0.1408 -0.1280  0.0802
25899W        W42373  13.466   7.056   1.822  0.1255  0.0293  0.1143
25900W        W42374  14.426   0.143   1.228 -0.0445  0.3161  0.3277
25901W        W42375   5.837   1.493  14.767  0.0089 -0.3906  0.1049
25902W        W42376  12.361  15.890   2.854 -0.3556 -0.1602 -0.1585
25903W        W42377   8.238  13.708  16.327 -0.0484 -0.1154  0.0805
25904W        W42378  16.583   7.292  11.687 -0.1941  0.2195  0.1705
25905W        W42379   1.065   1.667   4.729 -0.0782 -0.1481 -0.0961
25906W        W42380   5.428   6.719  16.221 -0.0828  0.0395 -0.1190
25907W        W42381   5.836   9.126  15.552  0.0394 -0.1442 -0.0702
25908W        W42382   2.983   7.119  13.467 -0.3035 -0.0518  0.0391
25909W        W42383  12.719  17.568  15.602 -0.1010 -0.0312  0.0213
25910W        W42384  17.535  16.598   5.509  0.1766 -0.1059 -0.0308
25911W        W42385  14.843   3.522   1.280  0.0454 -0.1429  0.3527
25912W        W42386   0.788   7.068  10.001 -0.3144  0.1491  0.1452
25913W        W42387   8.268   0.160   4.055  0.4693  0.2997 -0.4091
25914W        W42388  14.092   9.157   2.967 -0.0781 -0.0000 -0.3448
25915W        W42389  17.652   1.492   1.209 -0.2695 -0.2780 -0.2491
25916W        W42390   8.260   3.009   0.562  0.0090 -0.2387  0.2087
25917W        W42391  15.799  16.359   4.805 -0.1905 -0.0500  0.1453
25918W        W42392   6.743  15.392  14.225  0.0366 -0.0137  0.2069
25919W        W42393   8.825   0.846  13.728 -0.0639  0.1059  0.1401
25920W        W42394  13.687  16.808  11.200  0.1357  0.3167 -0.4982
25921W        W42395  11.474  10.522   3.794  0.1870 -0.2303 -0.0575
25922W        W42396   8.739  12.684   3.754  0.1529 -0.0895  0.2248
25923W        W42397   2.498   3.621   4.766  0.2911  0.0062  0.0612
25924W        W42398  10.004   4.139   4.707  0.0231  0.1750  0.1262
25925W        W42399  10.496  13.604   4.778  0.0575 -0.1081 -0.0992
25926W        W42400   8.756  12.764   4.760  0.0656 -0.1291  0.1062
25927W        W42401   8.839   4.879  15.967  0.1929 -0.0954 -0.3071
25928W        W42402  12.182   2.789  14.839 -0.0355 -0.1376 -0.2965
25929W        W42403  13.433   1.957   3.013  0.0992 -0.0537 -0.4618
25930W        W42404   9.008  12.192  11.587  0.2123 -0.0363  0.4006
25931W        W42405  14.775  10.225  12.367 -0.0232  0.1123 -0.2340
25932W        W42406  13.699   5.907  12.299  0.0706 -0.0078 -0.0288
25933W        W42407   4.138  12.344   0.765 -0.1940  0.0012 -0.0159
25934W        W42408  16.106   3.697   1.332 -0.0973 -0.0233  0.1985
25935W        W42409  17.588   2.807   0.702  0.0363 -0.6450  0.1025
25936W        W42410   4.483  12.796   4.870  0.2704  0.1855  0.0746
25937W        W42411  12.283  14.910   4.537  0.2377 -0.1928 -0.1049
25938W        W42412   2.622  12.127   2.894  0.0746  0.0833 -0.0527
25939W        W42413  14.075  17.367  12.407 -0.4089 -0.0887 -0.0522
25940W        W42414   2.229  13.449  15.933 -0.0764 -0.1727  0.0223
25941W        W42415  15.008  11.372  15.771 -0.0183  0.0118  0.0584
25942W        W42416  10.159  12.274   2.494 -0.0530  0.1787 -0.0369
25943W        W42417  14.139  13.375  14.548 -0.1091  0.0299 -0.0533
25944W        W42418  13.034   5.338   1.606  0.1172 -0.1756 -0.2083
25945W        W42419   2.265   9.424   4.532 -0.0817 -0.1911  0.1991
25946W        W42420   8.385   4.680  12.402  0.1095  0.2058  0.1515
25947W        W42421  16.119  15.285   2.759  0.1711  0.1594 -0.3895
25948W        W42422   7.379  17.423  15.117 -0.2837  0.2193 -0.2062
25949W        W42423  11.030  15.681  11.236 -0.1105 -0.0611 -0.1156
25950W        W42424   4.547   7.895  16.116  0.0354  0.2399  0.0440
25951W        W42425   1.056  15.230   1.148 -0.0022  0.1000  0.1849
25952W        W42426   1.708  10.669  15.346  0.2548 -0.2585 -0.1874
25953W        W42427  12.629   4.165  15.828  0.1322 -0.0253  0.0128
25954W        W42428  12.262   3.236   4.772 -0.1094 -0.0564 -0.1145
25955W        W42429   4.150   0.177  15.319 -0.0222  0.1145  0.0674
25956W        W42430  10.275  16.010   1.495  0.0162  0.0151 -0.0678
25957W        W42431  17.721   9.917  12.579 -0.1621  0.0825 -0.1066
25958W        W42432   4.703   1.533   1.698  0.0585 -0.0908 -0.1410
25959W        W42433  16.199   9.320  14.870  0.4188 -0.0161  0.0097
25960W        W42434   1.865  10.713  14.357 -0.1689 -0.2040 -0.0590
25961W        W42435  11.793   8.161  13.302 -0.1020  0.0404  0.0682
25962W        W42436   1.755  17.252   5.304 -0.1978  0.1422 -0.2819
25963W        W42437   3.232   9.408   3.274 -0.0357  0.0479  0.2530
25964W        W42438   2.218   8.054  16.132 -0.1208 -0.1351  0.0024
25965W        W42439   5.218  15.276  11.637 -0.0486  0.1182 -0.3902
25966W        W42440   4.988  16.910   3.971  0.0550  0.0032  0.4149
25967W        W42441   7.472  11.020  12.212  0.1677  0.0557 -0.0923
25968W        W42442  13.806  11.560   0.154 -0.0505  0.2055 -0.1387
25969W        W42443  11.930  11.469   1.651  0.0807  0.2534 -0.0791
25970W        W42444   1.964   7.555   1.472  0.1908  0.0379  0.1029
25971W        W42445   7.070  15.543   5.381 -0.3840  0.1408  0.0116
25972W        W42446   4.907  13.056   4.999  0.3886 -0.1261 -0.0266
25973W        W42447   8.749   9.306  13.778 -0.1166  0.0711 -0.1740
25974W        W42448  10.723   7.473   2.476 -0.1672 -0.1419  0.0776
25975W        W42449   9.131   6.736  14.006 -0.3238 -0.0967  0.1289
25976W        W42450  17.627  11.481   2.818 -0.0334  0.0920  0.0730
25977W        W42451   8.523  12.231  11.757  0.0857 -0.0297  0.2676
25978W        W42452  10.524   0.851  12.727 -0.2106  0.3338  0.1036
25979W        W42453  11.790   8.847  13.704 -0.2050 -0.0838  0.0148
25980W        W42454  17.517  14.469   2.034 -0.0308  0.0878  0.0017
25981W        W42455   6.017  15.360   2.504  0.2330  0.2750  0.2682
25982W        W42456   7.997   7.296   1.242  0.2315  0.0004 -0.2831
25983W        W42457  15.548   9.742  14.323 -0.0642 -0.2024  0.1056
25984W        W42458   7.866  14.161  13.639 -0.2289  0.2215 -0.1008
25985W        W42459   4.897  11.472   0.266  0.0402 -0.2343 -0.0306
25986W        W42460   4.978  12.969  11.327 -0.3664 -0.1693  0.2263
25987W        W42461   1.764   9.105  13.057  0.2738 -0.3522  0.1992
25988W        W42462  13.998   4.421   2.053  0.1225 -0.4078 -0.2692
25989W        W42463   8.886   8.810  15.007 -0.1203 -0.1273  0.0330
25990W        W42464   7.100   2.385  15.289  0.1074 -0.1582 -0.0905
25991W        W42465   5.736   4.536  13.876 -0.0097 -0.0604  0.1384
25992W        W42466  10.240  16.573  12.688 -0.1021 -0.0049 -0.1108
25993W        W42467  13.791  15.184  13.158 -0.1134 -0.1280 -0.1624
25994W        W42468  10.481   2.901  13.787  0.4478 -0.0655 -0.2737
25995W        W42469   9.573   5.565  15.312 -0.2920 -0.1291 -0.1565
25996W        W42470  12.392   5.924   0.361 -0.1327  0.1149  0.0167
25997W        W42471   3.161   2.463   4.135 -0.2298 -0.2958 -0.1431
25998W        W42472   0.176  12.224  12.858 -0.2427  0.0701 -0.0664
25999W        W42473  16.302   8.670   2.588  0.3066 -0.0802 -0.0839
26000W        W42474  10.533  10.343   1.743  0.0377  0.1208  0.1175
26001W        W42475  17.690   8.623  14.725  0.0890 -0.2481  0.1793
26002W        W42476  14.273   6.786   2.387  0.1313  0.0601  0.2072
26003W        W42477   2.585   1.185  13.204  0.0415 -0.1276  0.2708
26004W        W42478   3.287   5.307  13.329  0.2703  0.0345  0.4270
26005W        W42479   7.952   9.885  14.044 -0.0643  0.0393  0.0027
26006W        W42480  10.606  11.439  14.681  0.1612 -0.2697  0.2920
26007W        W42481   0.123   5.840  15.828 -0.1406 -0.0351  0.0318
26008W        W42482  13.531   5.319  14.040 -0.0200 -0.0904  0.0582
26009W        W42483  13.275  18.146   4.072  0.0675 -0.1401 -0.2624
26010W        W42484  12.521  17.900   0.216 -0.0666 -0.1134  0.1929
26011W        W42485   6.492  14.248   2.756 -0.0194 -0.1943 -0.0116
26012W        W42486   3.351   8.537  12.722 -0.1298  0.2763  0.2503
26013W        W42487  14.539   1.367  12.788 -0.1808 -0.0731  0.1428
26014W        W42488  10.804   6.392  12.996  0.2492  0.0177 -0.1069
26015W        W42489   8.248  13.069  14.115  0.3685 -0.2015 -0.2016
26016W        W42490  17.586   1.099  14.746  0.1105  0.1430 -0.0016
26017W        W42491  10.769  16.393  15.682 -0.0214 -0.3812 -0.1227
26018W        W42492   0.583   8.224  14.063 -0.1144 -0.1283  0.0891
26019W        W42493  11.517  10.782  15.137 -0.0844  0.2371 -0.2249
26020W        W42494  14.626   5.875   0.734 -0.2181 -0.0699  0.0571
26021W        W42495   4.064  11.710  16.254 -0.0856  0.4060  0.0985
26022W        W42496   8.365  12.619   5.254 -0.1188 -0.0922 -0.1562
26023W        W42497   9.497   7.749   1.713  0.0532 -0.1128 -0.2779
26024W        W42498   6.093  13.448  15.242 -0.2030  0.2496 -0.0374
26025W        W42499  13.692   7.608   5.212  0.2982 -0.0739  0.2335
26026W        W42500  16.390  16.446   0.040  0.1715 -0.0343 -0.1210
26027W        W42501   9.123   1.399   1.053 -0.1499  0.3248 -0.0510
26028W        W42502  17.576  14.025   4.688 -0.1691  0.0609 -0.3439
26029W        W42503  11.362  14.162  12.289  0.0158 -0.3904 -0.1292
26030W        W42504  13.617   4.008   2.653 -0.0662 -0.1869 -0.0702
26031W        W42505   8.354   0.373  12.413 -0.1615  0.1367 -0.2295
26032W        W42506   9.067   9.711   0.384 -0.0588  0.0422 -0.0365
26033W        W42507  17.481   4.524   4.835  0.1634  0.0255 -0.0633
26034W        W42508   8.496   3.458  13.870 -0.1493 -0.1537  0.2146
26035W        W42509   6.015   0.946   4.342  0.1852 -0.0793  0.1261
26036W        W42510   6.148  11.505  12.597 -0.1077 -0.1172  0.1077
26037W        W42511  17.254  10.344   1.934  0.0777  0.0142  0.2955
26038W        W42512  11.832  16.789   4.824  0.1248  0.3959 -0.0699
26039W        W42513  16.643   6.616   3.311  0.1062  0.0307  0.0158
26040W        W42514   7.904  10.947   3.968 -0.2516 -0.1016  0.0729
26041W        W42515  17.852  14.460  13.401  0.2730  0.2821 -0.2503
26042W        W42516   8.042  12.896   1.795 -0.1643  0.2934 -0.2698
26043W        W42517   8.080   7.855   0.411  0.1792 -0.2165  0.0542
26044W        W42518  11.516   8.065   2.632 -0.0694  0.0958 -0.0891
26045W        W42519   0.872   6.751   4.827  0.0063  0.0287  0.2634
26046W        W42520  14.485   6.255   0.401  0.3133  0.1359 -0.3504
26047W        W42521  15.084  15.220   0.953 -0.1370 -0.1621 -0.4991
26048W        W42522   4.684  10.674   0.258  0.0745 -0.1839  0.0290
26049W        W42523  16.310   5.196   0.434 -0.0247 -0.0938  0.1472
26050W        W42524   0.782  15.636   1.958 -0.0263  0.1513 -0.1812
26051W        W42525   7.172  17.612  11.335 -0.2077  0.0135  0.0457
26052W        W42526   9.510  12.481   4.430 -0.2346 -0.1464  0.1326
26053W        W42527   0.887   5.802   4.810 -0.1187  0.2382  0.0787
26054W        W42528  10.979   5.498  16.212 -0.0730  0.0058 -0.0624
26055W        W42529   0.650   1.962  12.972  0.2439  0.0828 -0.0324
26056W        W42530  14.396   2.672   2.599  0.0363  0.1177 -0.1165
26057W        W42531  10.495   6.089  13.735 -0.2810 -0.1257  0.1488
26058W        W42532   5.430  16.895   2.376 -0.0972 -0.1017 -0.0919
26059W        W42533  12.752   9.764   0.762 -0.1481  0.2431 -0.1420
26060W        W42534  15.617   1.503  15.424 -0.1548 -0.3230 -0.0190
26061W        W42535   7.090   8.581  12.784  0.0543 -0.1567  0.0094
26062W        W42536  11.925  12.870   2.777 -0.2022 -0.1047  0.2967
26063W        W42537  14.993   7.937   5.118  0.0532  0.4108  0.2303
26064W        W42538  10.528   1.958   1.073  0.0802 -0.3201 -0.1065
26065W        W42539  16.638  13.794  11.652  0.1835  0.0542 -0.0568
26066W        W42540   7.820   3.658   3.745  0.1772 -0.4323  0.1050
26067W        W42541   6.451   1.684   0.408  0.1633  0.1150 -0.1362
26068W        W42542   0.225   4.158   2.643  0.2091 -0.2284  0.0062
26069W        W42543  15.022  16.313  12.948  0.0210  0.2631 -0.3031
26070W        W42544   0.547   1.258   1.157 -0.3476 -0.1884 -0.0860
26071W        W42545   2.945  17.883   2.415 -0.0219  0.4744 -0.0920
26072W        W42546   5.101  17.564  12.714 -0.1840  0.0498  0.1853
26073W        W42547   6.384   0.407  12.955 -0.1495  0.2388  0.3836
26074W        W42548   7.924  12.055   2.234  0.0503  0.1275  0.0863
26075W        W42549   9.472   3.114   2.889  0.2009 -0.2312 -0.2033
26076W        W42550   8.424  13.102   3.623  0.0916  0.1225 -0.0440
26077W        W42551   1.715   8.631  15.963  0.1925  0.0235 -0.0288
26078W        W42552   4.912   9.125   5.298 -0.3034  0.1407 -0.0114
26079W        W42553  15.182   9.611  15.146 -0.1996 -0.0999  0.1944
26080W        W42554   7.810  10.868   5.053  0.1609  0.1478  0.1688
26081W        W42555  17.504  15.674   0.075  0.1815  0.0475  0.1068
26082W        W42556  16.224   1.141   4.917  0.0171  0.0798  0.1386
26083W        W42557   7.991  16.444   3.516 -0.0062 -0.3286 -0.1316
26084W        W42558   9.761   9.373  15.399  0.4130 -0.3094 -0.0819
26085W        W42559   9.108   3.494   1.731 -0.1769 -0.0474  0.0079
26086W        W42560   8.806   0.938   2.560  0.1510 -0.1316 -0.3363
26087W        W42561   4.936   9.877  16.246  0.0895  0.0585  0.1194
26088W        W42562  11.805  16.959  12.521 -0.1223 -0.1879 -0.0132
26089W        W42563  10.417   2.061  12.166  0.0886  0.0311  0.0654
26090W        W42564   9.782   3.332  12.652  0.0644 -0.2890  0.0574
26091W        W42565   3.790   6.554   4.549 -0.0539 -0.1955  0.1987
26092W        W42566   8.216   6.315   5.096 -0.2434  0.3468 -0.2696
26093W        W42567  17.714   0.135  15.076  0.0478 -0.0320  0.2322
26094W        W42568  14.784   8.119   0.058  0.2253  0.3034 -0.1726
26095W        W42569  15.226   0.042  14.654 -0.0706 -0.0388  0.1709
26096W        W42570  17.545  16.945   2.007  0.1628 -0.1752  0.1854
26097W        W42571  16.610  11.922  15.059  0.0078  0.1902  0.2337
26098W        W42572  13.463  10.669   4.249  0.0380  0.3709 -0.2953
26099W        W42573   9.704  16.376  12.301  0.0004 -0.0205  0.2066
26100W        W42574  17.285  10.539   0.182 -0.3155 -0.0329 -0.2131
26101W        W42575   3.569   9.135   1.618  0.1511  0.3371  0.0655
26102W        W42576  12.543   4.801   0.034  0.3544 -0.1131  0.0533
26103W        W42577  15.676  14.305   5.825  0.0784  0.1431  0.0106
26104W        W42578   3.210  14.363   4.309  0.0356  0.1562 -0.0982
26105W        W42579   3.547  12.733   2.019 -0.0515  0.1164 -0.0061
26106W        W42580  14.424  15.243  13.859  0.2301  0.0950 -0.3199
26107W        W42581  10.124   8.007   2.107 -0.1958  0.1935 -0.1083
26108W        W42582   9.195  14.638   2.738  0.3069  0.1584  0.0935
26109W        W42583  11.005  12.028   5.483  0.0548 -0.1476 -0.1711
26110W        W42584   1.761  17.315  13.174 -0.0119  0.2316  0.2346
26111W        W42585  11.734  15.446   3.277 -0.2805  0.1133  0.1169
26112W        W42586   3.625   9.769   0.159  0.1685 -0.2090 -0.0780
26113W        W42587   5.102   6.165   0.297 -0.2485  0.0938 -0.1770
26114W        W42588  15.466  16.973  15.785  0.2389  0.1174  0.2773
26115W        W42589  18.076  14.099  14.977 -0.4027 -0.0311  0.1432
26116W        W42590   3.478   0.824   5.975 -0.1816 -0.0188 -0.0791
26117W        W42591   8.643   2.532   0.313 -0.0729 -0.2962  0.0848
26118W        W42592  17.274  15.358   2.309  0.1092 -0.1214  0.1005
26119W        W42593   5.877   8.017   2.677  0.0156  0.1032 -0.2858
26120W        W42594   8.604   0.879   0.991 -0.1105  0.1492 -0.2689
26121W        W42595   7.146  16.622  13.372  0.0570 -0.1396  0.0434
26122W        W42596   9.941   0.176   1.339  0.1819 -0.2028 -0.0115
26123W        W42597   1.435   2.681  15.101 -0.1768 -0.0053  0.1240
26124W        W42598  10.459  14.891  12.012  0.0312  0.0012 -0.0806
26125W        W42599  17.599   6.420  13.982 -0.2907 -0.0336  0.1319
26126W        W42600   3.537  10.719   3.955 -0.1857  0.0037  0.0287
26127W        W42601  12.987  14.629  14.623 -0.0028 -0.1266  0.0265
26128W        W42602   9.952   2.699  12.954 -0.2446 -0.2138  0.1981
26129W        W42603  17.886  12.261   2.532  0.1461  0.0750 -0.0790
26130W        W42604   4.599   6.702   0.091  0.1837 -0.3762  0.1728
26131W        W42605  10.681  14.376  15.770 -0.1573  0.0261 -0.0490
26132W        W42606  17.145  10.455   1.246 -0.1804  0.2152  0.4473
26133W        W42607  15.126   9.057  13.243 -0.0099 -0.0008  0.1782
26134W        W42608   7.584  12.665  13.406  0.0008 -0.0947 -0.0540
26135W        W42609   4.808  14.597  12.820  0.2195  0.2461 -0.0750
26136W        W42610  15.626   6.903   0.581 -0.1994 -0.1447 -0.1433
26137W        W42611  10.704  13.113   1.468 -0.1002  0.1329  0.0465
26138W        W42612  10.161  11.182  15.667 -0.2090 -0.3520 -0.3328
26139W        W42613   8.312   7.042   5.564 -0.0199  0.0580  0.1525
26140W        W42614   9.255  11.597  15.752  0.2302 -0.0564 -0.3784
26141W        W42615  12.873   4.587   5.471 -0.4412  0.2500 -0.3069
26142W        W42616   3.756  14.921   0.679  0.0489  0.2103  0.0392
26143W        W42617   8.443   3.981   1.913 -0.0298  0.0745  0.1143
26144W        W42618   9.335  16.687  11.381  0.1877  0.1646  0.0346
26145W        W42619   6.499   6.516   0.684  0.1920 -0.3441  0.1984
26146W        W42620   9.468   5.502   1.156 -0.0008  0.0121 -0.3038
26147W        W42621   5.912   8.046  10.500 -0.0484  0.1745 -0.1299
26148W        W42622   0.589   7.528   4.252  0.0218  0.0835 -0.0728
26149W        W42623   5.308   0.458   3.114 -0.1415  0.1210 -0.0693
26150W        W42624  11.440   2.870   4.898  0.1101  0.0650 -0.2459
26151W        W42625  16.618  16.042  14.006 -0.0487  0.2213  0.1685
26152W        W42626  12.887  12.268   2.334 -0.2512  0.2634 -0.0671
26153W        W42627   8.037   8.125   2.694  0.2906  0.1758  0.0004
26154W        W42628   8.186  11.512  12.957  0.1270 -0.0918  0.0068
26155W        W42629  18.006   5.047   4.281 -0.1305  0.0194  0.2212
26156W        W42630  14.588  12.157  12.656  0.1098  0.1695 -0.2722
26157W        W42631   5.445   5.916  14.735 -0.1349 -0.0408 -0.1354
26158W        W42632  13.215   3.512  16.187  0.0556  0.1149  0.1378
26159W        W42633  16.538  15.639   5.280  0.2533 -0.3724 -0.0188
26160W        W42634   2.766  16.408   5.455 -0.0112  0.1436  0.0938
26161W        W42635  10.786   6.598  14.867 -0.1188 -0.1199 -0.3047
26162W        W42636   7.641  10.035  15.828 -0.0773  0.0538  0.2709
26163W        W42637  16.614   7.573  15.678  0.2909 -0.1806  0.0239
26164W        W42638   1.504  16.200   2.382  0.1494 -0.3721  0.0916
26165W        W42639  15.423  11.088   3.043 -0.0731  0.1862  0.2312
26166W        W42640   4.401   5.477   3.191 -0.2993  0.2715  0.2911
26167W        W42641   7.446  14.024   0.348  0.0937 -0.1745  0.0203
26168W        W42642   9.417  10.068   0.332 -0.1654 -0.0883 -0.1260
26169W        W42643  15.780   3.758  14.569  0.0525  0.0548  0.0799
26170W        W42644  15.832   1.770   0.786 -0.2233 -0.1348  0.1099
26171W        W42645   2.358  10.144   4.940  0.0008 -0.0004 -0.2781
26172W        W42646   6.793   3.361   5.185 -0.1897 -0.1162 -0.0720
26173W        W42647  12.309  16.288   0.497  0.1684 -0.2023 -0.1584
26174W        W42648  14.852   8.735   5.062  0.0949  0.1408 -0.0393
26175W        W42649   5.397  16.860  12.718 -0.1844  0.1966 -0.1964
26176W        W42650   9.607   3.866   3.377 -0.1755 -0.0767  0.1217
26177W        W42651  10.279  10.874   2.877 -0.1277  0.0989 -0.1483
26178W        W42652  13.342  17.790   2.081  0.0272  0.0106  0.0826
26179W        W42653   1.229   1.349   0.229 -0.0594 -0.3246  0.0146
26180W        W42654  17.039  17.625   4.207 -0.1584 -0.0380 -0.0983
26181W        W42655  11.010   4.656  15.548  0.0774 -0.0825 -0.2563
26182W        W42656   1.325  12.874  16.046  0.2805  0.1748 -0.0298
26183W        W42657  16.774  17.927   4.909 -0.2563  0.0780  0.0267
26184W        W42658  12.480   7.180   5.656  0.0533 -0.0651 -0.1517
26185W        W42659  14.012  11.273  15.843 -0.1283  0.2266  0.0181
26186W        W42660  14.518   9.649  15.595 -0.3156  0.1192  0.1978
26187W        W42661   3.297   9.940   2.565  0.1901 -0.0517 -0.0203
26188W        W42662   5.262  17.944   3.709 -0.0947  0.2666 -0.1001
26189W        W42663   2.784   7.370   6.147  0.0884 -0.2745  0.1250
26190W        W42664   8.178   9.874  12.055  0.1408  0.1904  0.1121
26191W        W42665  13.802   1.570   5.394 -0.0696 -0.1047 -0.2653
26192W        W42666  10.690   6.865  13.116 -0.0477 -0.0882 -0.2301
26193W        W42667  12.571  12.610   5.181  0.0711 -0.2411  0.1428
26194W        W42668  15.646   3.580  11.892 -0.0278  0.2224 -0.0885
26195W        W42669   8.839   9.995   2.667 -0.1228  0.1252 -0.2124
26196W        W42670   7.955   7.638   0.849 -0.0647 -0.2550  0.3659
26197W        W42671   1.778  16.140  14.333 -0.1309 -0.1087 -0.0434
26198W        W42672  11.063  17.162   4.799 -0.0154 -0.1451 -0.1093
26199W        W42673   7.656   8.831  15.544  0.0139 -0.1646 -0.1033
26200W        W42674  12.709  14.723   2.146 -0.4197  0.1492  0.2034
26201W        W42675   3.795   9.459   4.185 -0.2776  0.1666 -0.1187
26202W        W42676  17.493  10.565  14.809  0.2719 -0.2367  0.1304
26203W        W42677   1.827  10.609  13.890  0.2818  0.2483  0.2225
26204W        W42678  10.872   1.484   2.726 -0.1603  0.1215  0.1731
26205W        W42679  16.539   4.781  15.752  0.2433 -0.3016  0.0404
26206W        W42680  14.568  14.443   0.555  0.2181 -0.1829  0.2823
26207W        W42681   2.092   2.309   0.095  0.1420 -0.1267 -0.2761
26208W        W42682  15.979  16.807   2.964  0.2892 -0.3459 -0.3707
26209W        W42683   3.115  11.837   5.124  0.1538  0.0166 -0.0141
26210W        W42684   0.861  14.989  15.048 -0.4944 -0.1668 -0.0089
26211W        W42685   3.113  10.425   4.887  0.1628  0.3977  0.1443
26212W        W42686   5.279   0.021   4.784 -0.3260  0.0392  0.1878
26213W        W42687   3.863  17.725   1.336 -0.3135  0.1489 -0.0910
26214W        W42688  18.129  16.984   3.673  0.3409  0.0411 -0.0977
26215W        W42689  13.637   2.258   0.297  0.0122  0.0659  0.1137
26216W        W42690  14.253   4.426  12.037 -0.1466 -0.1754 -0.0177
26217W        W42691   5.375   1.083   4.898  0.1734 -0.1290 -0.2199
26218W        W42692   4.636   5.730   1.270 -0.0815 -0.2910 -0.1345
26219W        W42693   5.749   0.089   0.811 -0.1807  0.0470 -0.1612
26220W        W42694   0.381  13.369   0.741  0.2217  0.2210  0.0092
26221W        W42695   5.820   6.172  11.897  0.0599  0.1902 -0.0562
26222W        W42696   2.692   3.750  13.986 -0.1715 -0.0405 -0.0336
26223W        W42697   9.342   7.487   2.817  0.1080 -0.2230  0.2320
26224W        W42698  13.462   1.625   1.129  0.0902 -0.2623 -0.0210
26225W        W42699   8.119   7.302   4.014  0.2859 -0.2440 -0.0545
26226W        W42700   7.056  14.801  16.340  0.0542  0.2115  0.0620
26227W        W42701  14.266   1.059   1.204 -0.0006  0.2252 -0.0669
26228W        W42702  16.330  15.745   3.144  0.0815  0.0561  0.1801
26229W        W42703   1.904  15.625  14.041  0.0574 -0.3120 -0.0802
26230W        W42704  15.704  12.228   2.840 -0.0354  0.3459 -0.0804
26231W        W42705  10.071  11.432   1.345  0.0695  0.1260 -0.1512
26232W        W42706  10.293  14.961   5.876  0.0518  0.3634  0.1700
26233W        W42707  10.969   5.609   0.773 -0.2171  0.0071  0.0262
26234W        W42708  14.632  17.158   4.560  0.0154 -0.0260  0.2426
26235W        W42709   9.285   7.498   1.266  0.2203  0.1175  0.0830
26236W        W42710   4.191  13.621  12.335 -0.2538  0.1450 -0.2018
26237W        W42711  14.952  17.655  10.423  0.2612 -0.2362 -0.0394
26238W        W42712  11.061  12.654   1.332  0.0620 -0.0913 -0.0765
26239W        W42713   7.538   4.270   4.963 -0.2332  0.2177  0.1603
26240W        W42714  14.125  13.171  15.366 -0.0542 -0.1309  0.2693
26241W        W42715  16.412  10.490   2.179  0.1004 -0.2175 -0.2230
26242W        W42716   3.023   1.918  12.014 -0.0007  0.2439 -0.2312
26243W        W42717   6.509   0.461  15.439 -0.1549  0.1714 -0.0993
26244W        W42718   8.546   5.236  12.621 -0.0293  0.2861 -0.1782
26245W        W42719  12.690  11.601   3.665 -0.2990  0.0857 -0.0787
26246W        W42720   9.979  11.940  12.920 -0.0821  0.0685 -0.0897
26247W        W42721   6.038   2.389  14.205  0.0299  0.0221  0.0002
26248W        W42722  14.060  10.596  13.289  0.2741  0.1169  0.1655
26249W        W42723   1.115   6.362  14.945  0.1742  0.1063  0.0297
26250W        W42724   6.387   1.292   0.939 -0.3086 -0.3535 -0.0069
26251W        W42725  14.414  17.046  11.646  0.1341 -0.0792  0.1361
26252W        W42726  11.375   1.933  11.470 -0.1940  0.0494 -0.1212
26253W        W42727  13.952   8.441   3.913 -0.2879  0.0354 -0.3530
26254W        W42728   1.328   9.200   0.995  0.0488 -0.1977  0.0357
26255W        W42729   0.436  11.256   1.354  0.0414 -0.1595 -0.0879
26256W        W42730   9.386  14.122  12.830  0.1147 -0.2736  0.1806
26257W        W42731   9.632  14.726  13.601  0.0197 -0.0650 -0.3767
26258W        W42732   0.531   6.331   4.568 -0.2258 -0.1660 -0.1792
26259W        W42733  13.070   7.373  16.277 -0.1513  0.0540 -0.0135
26260W        W42734  11.249   2.049   4.405 -0.0584  0.1549  0.1377
26261W        W42735  12.296   6.781   3.655  0.0463  0.0123 -0.1672
26262W        W42736  13.939  10.506  11.725 -0.2077  0.0647 -0.0344
26263W        W42737   4.226  11.456  13.584 -0.0160 -0.1375  0.1227
26264W        W42738   0.140   6.089   4.264 -0.0588 -0.0274  0.0304
26265W        W42739   8.573  14.682   0.921  0.2742  0.0582 -0.3401
26266W        W42740   4.407  16.853  13.717  0.1132  0.2804 -0.2304
26267W        W42741  11.867  13.506   1.815  0.1223 -0.1996  0.1304
26268W        W42742  10.166  17.157  12.823  0.2233 -0.0973 -0.0432
26269W        W42743   8.201   8.063   1.697 -0.2097 -0.1445 -0.0587
26270W        W42744   3.468   8.834  15.567  0.0481 -0.1813  0.0097
26271W        W42745   0.704  11.460  12.375  0.2203  0.1400 -0.1245
26272W        W42746   8.071   0.705   1.013 -0.1071 -0.2180 -0.0033
26273W        W42747   5.686  14.336   4.415  0.3728  0.0808  0.2401
26274W        W42748   0.689   3.849  14.945  0.0915  0.0574 -0.0087
26275W        W42749  10.344   2.654  16.235  0.1011  0.1528 -0.1893
26276W        W42750   5.281   1.984   3.195 -0.2063 -0.0276 -0.0607
26277W        W42751   0.138   0.727   0.684 -0.0827 -0.0602 -0.0309
26278W        W42752   1.600  13.084  11.676 -0.1206 -0.0113 -0.0566
26279W        W42753   1.257   7.137  14.738 -0.0377 -0.1994  0.1291
26280W        W42754   6.498   4.237   4.887  0.0114 -0.2268  0.2577
26281W        W42755   8.103  17.363   5.659  0.0108  0.1022  0.0291
26282W        W42756  11.539  17.453  15.017  0.0311 -0.3119  0.2163
26283W        W42757   0.652   7.576  14.949  0.1191  0.1134  0.1285
26284W        W42758  16.784  16.365   5.089 -0.1127 -0.3557 -0.0549
26285W        W42759  12.896  13.249   3.288  0.0042  0.1733 -0.1008
26286W        W42760   5.699  10.258   4.749 -0.0791  0.0886 -0.2350
26287W        W42761   5.038  15.227  12.861 -0.3377 -0.0340  0.5187
26288W        W42762  14.495  13.848  11.697 -0.0526  0.2285  0.2204
26289W        W42763   3.392  13.044   4.907  0.0273  0.1131 -0.0055
26290W        W42764  11.964   0.068  13.195 -0.1820 -0.3024  0.0497
26291W        W42765  13.826  17.606   0.611  0.0332 -0.1563  0.2090
26292W        W42766  12.366  14.473  15.714 -0.1162  0.0105 -0.1112
26293W        W42767  10.025  14.626   3.105 -0.2071  0.1543  0.1471
26294W        W42768   6.160   3.744  14.691 -0.2202 -0.3383 -0.3432
26295W        W42769   1.977   3.225  10.565  0.1853 -0.2162 -0.2452
26296W        W42770   2.449   4.601  12.632 -0.1632 -0.1658 -0.1950
26297W        W42771   1.740   3.027  12.527 -0.2064  0.1798  0.1454
26298W        W42772   5.652   9.924   1.848 -0.0046  0.0997 -0.1228
26299W        W42773  14.461  15.183  12.520  0.0246  0.1726 -0.0746
26300W        W42774   0.309   8.057   0.858  0.0433 -0.1840 -0.2511
26301W        W42775   4.786  16.391   0.907 -0.0436 -0.4325  0.0921
26302W        W42776   1.047   6.283   3.612  0.3417 -0.3205 -0.2606
26303W        W42777  12.658   6.026   1.101  0.1764 -0.0258  0.0231
26304W        W42778  12.366   7.187   2.853  0.1561  0.1872 -0.1151
26305W        W42779   3.319  12.198   2.201  0.1632  0.0322  0.2642
26306W        W42780   8.508  14.073  12.554 -0.1811  0.0525 -0.1256
26307W        W42781   1.850  11.174   5.331 -0.0020 -0.0205  0.0105
26308W        W42782  17.997   6.843   3.876 -0.2889  0.0423 -0.0215
26309W        W42783  15.944   7.030   3.429  0.1114  0.1046  0.0619
26310W        W42784   3.143   0.588  12.387  0.0568  0.1687 -0.1008
26311W        W42785  12.255  16.744  14.743  0.1162 -0.0472 -0.3195
26312W        W42786   8.822  13.458   5.081 -0.1828  0.1638 -0.2713
26313W        W42787   5.932  17.308  14.381 -0.1542 -0.4569  0.2652
26314W        W42788   1.205   6.657  14.009  0.0929 -0.0772 -0.0415
26315W        W42789  14.545   7.018  13.158 -0.3819 -0.1449 -0.3156
26316W        W42790   4.998  12.491  15.838 -0.0122 -0.0039  0.0900
26317W        W42791   8.208  15.015  15.873 -0.0007  0.2713  0.2008
26318W        W42792   9.732   4.698   2.194 -0.1000  0.1243  0.0338
26319W        W42793  16.504  11.924   1.158 -0.0423  0.0976 -0.1681
26320W        W42794   3.801   5.481  13.370  0.0331 -0.1562 -0.0694
26321W        W42795   7.663   7.895  14.172 -0.1586  0.1719  0.0069
26322W        W42796   1.194   3.321  13.763  0.2185 -0.0552  0.3211
26323W        W42797  11.037   6.129   2.294 -0.3434  0.2189 -0.1386
26324W        W42798  17.343  16.165   5.826  0.3015  0.1260  0.1875
26325W        W42799  17.852   5.771  13.412 -0.2996  0.0997 -0.2234
26326W        W42800   4.910  10.287   2.779  0.2369  0.1266  0.0162
26327W        W42801   4.202  16.085  11.795  0.0803 -0.0313  0.0653
26328W        W42802   2.061   7.788   2.283 -0.0052  0.2269  0.2160
26329W        W42803   0.722  13.007   3.079  0.1698  0.1624  0.2905
26330W        W42804   9.105   7.423  12.053 -0.0547  0.5252 -0.0455
26331W        W42805   6.203   4.467  13.663  0.0491 -0.0301 -0.1077
26332W        W42806  13.580   0.417  12.189 -0.1760  0.0960  0.0573
26333W        W42807  11.967  12.833   1.295  0.0295 -0.1787  0.1155
26334W        W42808  13.318   3.332  12.550 -0.0940  0.0419  0.4136
26335W        W42809   1.010  14.378   4.472  0.0003 -0.4177  0.0571
26336W        W42810   1.103   3.834  12.470  0.2005 -0.0680  0.1873
26337W        W42811  11.658  11.686   2.050 -0.0369  0.1007  0.3283
26338W        W42812  15.192  12.985   4.209 -0.2898  0.1286  0.0988
26339W        W42813   7.392   0.112   1.010  0.0785  0.0258 -0.0821
26340W        W42814  15.948  15.285   4.501 -0.2735 -0.1243 -0.2841
26341W        W42815   3.623   8.513   4.337  0.0045 -0.0292  0.1494
26342W        W42816   1.044  16.592  12.180 -0.2517 -0.1969  0.3940
26343W        W42817  15.420   6.174   4.100  0.1463 -0.1852 -0.0366
26344W        W42818   4.666  14.697  11.744  0.1473  0.1955  0.3282
26345W        W42819  17.015  11.615   3.550  0.0157  0.1569 -0.0359
26346W        W42820  17.782  13.243  15.116  0.1511 -0.1013 -0.2527
26347W        W42821  16.148  12.273  16.249  0.1182 -0.0518  0.1987
26348W        W42822   6.145   9.095  16.065  0.0045  0.1463 -0.0939
26349W        W42823   8.471   2.622   4.542  0.3086  0.0830 -0.0145
26350W        W42824   7.982   3.166   5.178 -0.1204 -0.1048 -0.0841
26351W        W42825  11.450   3.867  15.519  0.2554  0.2137 -0.2628
26352W        W42826   3.714   1.046   2.494 -0.2297  0.0250 -0.2492
26353W        W42827   4.821  17.882   5.024  0.0861  0.2847 -0.3154
26354W        W42828  16.707  12.781  15.183  0.1823  0.1259 -0.3110
26355W        W42829  11.088  12.534   0.354  0.2353  0.2657 -0.1218
26356W        W42830   6.689  18.004  13.613  0.0005  0.0963 -0.1303
26357W        W42831   0.041   1.494  10.422 -0.0918 -0.0156 -0.1265
26358W        W42832   3.917  16.996  13.006  0.1455  0.2885 -0.1940
26359W        W42833   0.062  17.031   4.510  0.0651 -0.3587  0.1875
26360W        W42834   1.028   1.220   3.773 -0.0835  0.1766 -0.1484
26361W        W42835   1.183  14.674   5.980  0.1969 -0.2143  0.1864
26362W        W42836  14.001  12.642  14.664 -0.0406 -0.2887  0.1609
26363W        W42837  13.371   7.922   2.302  0.1221  0.0269 -0.0511
26364W        W42838  15.616  17.953  12.826  0.0354  0.2332 -0.0510
26365W        W42839   1.304   5.549  12.362  0.1435 -0.0535 -0.0343
26366W        W42840   8.363  15.449  12.967 -0.2236 -0.0783 -0.0802
26367W        W42841   1.652   5.656  11.405 -0.2009 -0.0143 -0.0228
26368W        W42842  17.656   7.330   5.068  0.1855  0.2422  0.2186
26369W        W42843   2.866   9.654   4.182  0.0924 -0.2584  0.1379
26370W        W42844   5.544   1.533  12.346 -0.1937 -0.0242  0.4021
26371W        W42845  13.694  11.121  12.517  0.0545  0.0703  0.1485
26372W        W42846  16.542   6.661  12.624 -0.0676  0.0110  0.0156
26373W        W42847   9.460   5.238   4.104  0.4311 -0.3115  0.2040
26374W        W42848   7.418  12.177   0.215  0.2217  0.0656  0.0861
26375W        W42849   1.704   7.302   1.064 -0.3814  0.1957  0.0600
26376W        W42850  14.047  15.026  14.166  0.0577 -0.0594  0.1850
26377W        W42851   3.460   2.681   5.079 -0.1035 -0.0603  0.0235
26378W        W42852   4.946   8.923  16.018  0.0432  0.1739  0.1920
26379W        W42853   5.964  14.823  15.274  0.1639  0.0994 -0.2045
26380W        W42854   7.103  15.905   4.291  0.3388  0.2391 -0.2422
26381W        W42855  17.897  15.087   5.361 -0.0646  0.0135 -0.3098
26382W        W42856   6.614  17.707   1.404 -0.0502  0.3026 -0.0644
26383W        W42857  10.818   5.081  15.836 -0.0401 -0.0083 -0.1954
26384W        W42858   1.665  16.320   3.502  0.2392 -0.1277  0.0753
26385W        W42859   0.140  15.163   1.014  0.0512 -0.0948 -0.0096
26386W        W42860   7.847   7.685   3.691  0.0697  0.2468 -0.2399
26387W        W42861  12.730   6.294   0.663  0.1397  0.1949  0.1019
26388W        W42862  10.888  15.342  13.340 -0.0375 -0.0926 -0.4943
26389W        W42863   0.945  15.730  15.848  0.0294 -0.0372  0.0127
26390W        W42864  18.014   3.345   3.410  0.0169 -0.2210  0.0050
26391W        W42865  14.524   2.706  14.534  0.1635  0.0424  0.1800
26392W        W42866   4.194  14.623  11.899 -0.0124  0.0335 -0.3468
26393W        W42867   2.630   6.615   4.714 -0.2621  0.0090  0.2968
26394W        W42868   2.177  17.970  14.040  0.1482 -0.0771  0.2192
26395W        W42869  14.291   4.358  15.336  0.0288  0.0980 -0.2356
26396W        W42870   8.791  15.751  13.127 -0.2029 -0.0399  0.0763
26397W        W42871  14.591  17.563  13.251 -0.3022  0.0723  0.2164
26398W        W42872   4.288   2.740   3.208 -0.0450 -0.1319  0.2634
26399W        W42873   7.207   0.635  11.828 -0.1673 -0.1450  0.2243
26400W        W42874   3.946   4.063  14.944 -0.1041  0.1345  0.1480
26401W        W42875   8.540   4.714   1.740 -0.0517  0.2176 -0.3743
26402W        W42876  10.881   8.905   1.725 -0.0273 -0.3774 -0.2343
26403W        W42877   5.619   1.098   3.485  0.1228 -0.2631 -0.3577
26404W        W42878  11.408   1.368   1.227  0.4447 -0.0879 -0.2633
26405W        W42879   9.870   5.017   1.219 -0.2198  0.4459  0.0922
26406W        W42880   4.559  18.108  13.907  0.0236 -0.0098  0.1046
26407W        W42881  12.335   7.901   0.676 -0.1420 -0.1973  0.0329
26408W        W42882   2.658  17.033  11.579  0.0293  0.0030 -0.0906
26409W        W42883  17.408   6.491   1.254  0.0603 -0.1010 -0.1241
26410W        W42884   6.925  11.835   2.795 -0.0579 -0.4143 -0.1653
26411W        W42885   5.176   4.821  15.879  0.0058  0.0955  0.1592
26412W        W42886  11.541   3.779   5.116  0.0799  0.2168  0.2638
26413W        W42887  14.983   4.470  14.446 -0.0859  0.1616 -0.2589
26414W        W42888   5.621  10.452  12.692  0.1437 -0.1132  0.0615
26415W        W42889   4.620   1.991   6.182  0.0860 -0.0605  0.0533
26416W        W42890   6.184   2.764   3.114  0.1134 -0.1068  0.0410
26417W        W42891  15.675  18.158   1.452  0.0424 -0.2613 -0.3670
26418W        W42892   2.859  15.098   0.522 -0.1723  0.1730  0.2244
26419W        W42893  16.203  17.497   0.695 -0.5234 -0.0077  0.0454
26420W        W42894   4.010   1.307  13.028 -0.1787  0.0669  0.0008
26421W        W42895   2.620  10.968  16.337  0.0364  0.0554 -0.0980
26422W        W42896  17.372   2.410   1.560  0.2667  0.0263  0.0034
26423W        W42897   6.099  17.418   1.513 -0.0411 -0.2878  0.2304
26424W        W42898  15.198   4.047  13.015 -0.0438 -0.0510 -0.0872
26425W        W42899  14.431   9.640  13.219 -0.0924  0.0707 -0.2650
26426W        W42900  13.771  12.865   3.676 -0.2221 -0.0578  0.1139
26427W        W42901  17.197   2.998  14.251 -0.1736  0.1185 -0.0987
26428W        W42902  15.841   1.086  15.863 -0.4014 -0.1195 -0.3972
26429W        W42903   6.827   7.079   2.514 -0.2650 -0.0537  0.1058
26430W        W42904  16.880  14.583   5.821  0.1113  0.1826 -0.2980
26431W        W42905  12.637   6.729  10.807  0.0133 -0.1108 -0.1094
26432W        W42906   8.963   3.938  12.349  0.0844  0.0854  0.4594
26433W        W42907  12.438  17.868   5.373 -0.0991 -0.2636 -0.5202
26434W        W42908   6.598   8.473   0.119  0.0365  0.0691 -0.0980
26435W        W42909  15.280  13.346  16.012 -0.1623  0.0960 -0.1188
26436W        W42910   9.252  17.760   2.438  0.3404  0.2470 -0.1538
26437W        W42911   6.624   5.940  15.029 -0.2566  0.4958  0.1739
26438W        W42912   1.901  10.652   5.477  0.0975 -0.1106 -0.2499
26439W        W42913  16.006   6.492   0.743 -0.2936  0.0599 -0.1744
26440W        W42914   1.316   8.247  13.420  0.2142  0.0546  0.0330
26441W        W42915   7.209  10.030  14.746 -0.1588  0.1429  0.2691
26442W        W42916  10.901  12.444  13.638  0.0011  0.3315  0.0256
26443W        W42917   4.220  17.571  14.675  0.1879 -0.1303  0.0561
26444W        W42918  18.138   1.115  16.346 -0.4625  0.0298  0.0852
26445W        W42919   9.855   8.717   0.315 -0.1116  0.2031  0.1755
26446W        W42920  10.215   9.354   3.468  0.1168  0.0573  0.0498
26447W        W42921  10.746   3.983   0.298  0.0476 -0.6118  0.1909
26448W        W42922   8.860  13.398   1.080  0.2704  0.0551 -0.0285
26449W        W42923   0.905   0.833   4.108  0.2450 -0.0146 -0.2641
26450W        W42924  10.381  13.807   1.810 -0.1934 -0.2974  0.0568
26451W        W42925   7.167   6.766  13.859 -0.4878  0.1546  0.1662
26452W        W42926   2.166   6.496  15.731  0.0272  0.3568  0.4204
26453W        W42927  12.477   2.785  12.114 -0.0471 -0.1636  0.0480
26454W        W42928   2.088  15.187  12.446  0.3849 -0.0539 -0.0314
26455W        W42929  14.513   4.025   4.136 -0.0295 -0.0399  0.4072
26456W        W42930   2.980   7.868   5.307 -0.1160  0.1416 -0.2190
26457W        W42931  11.338   4.707   1.849 -0.0258 -0.0108  0.0540
26458W        W42932   6.800   4.093   2.186 -0.1466 -0.2092 -0.0207
26459W        W42933   8.134   3.290   1.372 -0.0254  0.0246 -0.4207
26460W        W42934   6.809   0.983   1.065  0.3090 -0.2862 -0.0404
26461W        W42935   9.566  15.065  14.606  0.0280  0.0126  0.0811
26462W        W42936   4.626   1.006  13.752 -0.0593  0.3263 -0.0456
26463W        W42937  17.146   7.166   3.906  0.1385  0.1307 -0.2921
26464W        W42938  11.932  10.315   5.260 -0.0011 -0.0436 -0.1533
26465W        W42939   3.022   3.363   0.197 -0.0277  0.0536  0.0381
26466W        W42940   2.774  14.644   0.072 -0.2108  0.0226  0.2412
26467W        W42941   0.480  15.034  13.348 -0.1850 -0.0419  0.1871
26468W        W42942  15.868   5.466  15.453  0.2006 -0.0595  0.0360
26469W        W42943  14.349   1.197  13.620 -0.3669 -0.3052  0.0232
26470W        W42944   4.303   4.709   6.158 -0.1529 -0.1199  0.2811
26471W        W42945   5.390   4.971  14.638  0.1695  0.4558 -0.1604
26472W        W42946  17.337  11.863   0.081 -0.1568 -0.0520  0.0319
26473W        W42947  12.663   4.551   3.017  0.1935 -0.0621 -0.0433
26474W        W42948   7.156  15.753   0.775  0.1797 -0.0362 -0.1463
26475W        W42949   3.259  17.092   3.991 -0.1444 -0.2255 -0.0780
26476W        W42950   3.613   0.780   5.370 -0.1538  0.0409 -0.3294
26477W        W42951  17.961  13.713  12.321  0.3818 -0.3474 -0.1030
26478W        W42952  11.738   0.071   5.625 -0.1369  0.1242  0.3844
26479W        W42953   2.754   7.422   2.752 -0.2982 -0.1575 -0.1675
26480W        W42954   9.892   5.643  11.520  0.0188 -0.0321  0.5247
26481W        W42955  11.377  12.345   0.829 -0.5503 -0.2442 -0.1396
26482W        W42956   1.737   0.569  11.488 -0.4787 -0.1196 -0.1410
26483W        W42957  14.093   5.920   0.490 -0.0110  0.2755 -0.1508
26484W        W42958   0.738  16.172   0.877  0.3172  0.1369  0.0908
26485W        W42959   4.430   6.367   3.426  0.0881  0.1910 -0.3001
26486W        W42960   7.275   0.983   0.880  0.1080  0.1784  0.1305
26487W        W42961   3.496  10.201  12.386  0.2204 -0.2488  0.1818
26488W        W42962  15.637  15.167   2.605  0.1902  0.0328 -0.0104
26489W        W42963   4.775  16.239   3.329  0.1452  0.1440 -0.1276
26490W        W42964   1.011  14.783   1.581  0.1848  0.0167 -0.1257
26491W        W42965   0.873   3.506   4.154  0.1687  0.0363 -0.1952
26492W        W42966   9.833   7.641  11.897  0.0307 -0.2227  0.0372
26493W        W42967   6.563  14.291   1.712  0.1636  0.0963 -0.1198
26494W        W42968  12.402   7.431  12.908  0.0019  0.1202  0.3053
26495W        W42969  17.149   9.423  15.723 -0.2605  0.1342  0.2499
26496W        W42970   9.727  14.760   2.592 -0.0941 -0.1524 -0.2383
26497W        W42971   2.510  10.053   4.057  0.0041 -0.2290  0.0201
26498W        W42972   5.663   3.846   4.486  0.0536 -0.0183 -0.2607
26499W        W42973   5.284  14.404  13.770  0.1805 -0.1648 -0.3680
26500W        W42974   7.495  16.870  13.673 -0.0260  0.0493 -0.0308
26501W        W42975   3.309  17.177   3.037 -0.1508 -0.1431  0.1711
26502W        W42976   7.649   2.848   0.143  0.3907  0.1042  0.1802
26503W        W42977   7.666  11.676   1.774  0.1277  0.2352 -0.0672
26504W        W42978   9.597  12.243  13.236  0.2268  0.0071 -0.0053
26505W        W42979   6.269  15.212  14.975 -0.2484  0.3384 -0.1184
26506W        W42980   8.606  13.924   2.609  0.1629 -0.1435 -0.3001
26507W        W42981  17.006  12.253   2.789 -0.1393  0.1224 -0.0350
26508W        W42982   8.559   9.886  11.395 -0.1565  0.3251 -0.1897
26509W        W42983   4.661  10.198  15.741  0.3696  0.1149 -0.0155
26510W        W42984  15.292   4.965   0.135 -0.2591 -0.0298  0.0623
26511W        W42985  17.972   6.504   1.438  0.0053 -0.1090 -0.1450
26512W        W42986  12.814   6.836  14.966  0.0456 -0.0078  0.0201
26513W        W42987  12.114   1.099  14.171 -0.2115  0.0722 -0.0045
26514W        W42988   0.191  17.128  15.382 -0.1249  0.2515  0.2067
26515W        W42989  15.550  14.179   2.404 -0.2344 -0.2351  0.1435
26516W        W42990   4.122   9.354  12.520 -0.0220 -0.0318 -0.2292
26517W        W42991   0.534  15.225  14.166 -0.3837  0.3688  0.0915
26518W        W42992  13.214   9.092  12.585 -0.0351  0.2424  0.0349
26519W        W42993  17.994   2.919  13.319  0.2117  0.1618  0.0100
26520W        W42994  15.564   9.037   2.254  0.1191 -0.0463  0.1174
26521W        W42995  13.462   0.976   0.486 -0.1064  0.0989  0.1101
26522W        W42996   4.586  16.846   5.158  0.1248 -0.2164 -0.0520
26523W        W42997   7.927   7.075  15.268 -0.0295 -0.2126  0.0254
26524W        W42998   9.453  11.991  11.813  0.0471 -0.0102 -0.1639
26525W        W42999  12.827   3.823  16.199 -0.0929  0.1425 -0.1065
26526W        W43000   5.842   1.542   2.515 -0.3060  0.0214 -0.0529
26527W        W43001  16.166  14.539   1.769  0.0983  0.0831  0.2027
26528W        W43002   0.223  14.388  15.319  0.1853 -0.1393  0.2216
26529W        W43003   5.471   6.713  11.391  0.0831  0.2245  0.0914
26530W        W43004   6.882  14.480   0.770  0.0413 -0.2354  0.4957
26531W        W43005  14.121  17.641  15.142  0.0954 -0.0311 -0.1285
26532W        W43006  16.451   4.754  12.872  0.5125 -0.2125  0.1287
26533W        W43007   1.534   3.103   0.222  0.1733  0.0744 -0.0152
26534W        W43008   9.288   3.644   4.204  0.0745 -0.0666  0.0533
26535W        W43009  10.754   3.500   5.792 -0.0145  0.0930 -0.4604
26536W        W43010   2.051  17.817   1.940  0.0670 -0.1105  0.0920
26537W        W43011  13.931  17.788  12.176 -0.0181 -0.3137 -0.0394
26538W        W43012  10.205   5.585  13.814  0.5000 -0.1016 -0.2076
26539W        W43013  17.552  12.088   4.224 -0.0991  0.3323  0.1770
26540W        W43014   6.369  13.425   4.601  0.1577  0.0926 -0.1510
26541W        W43015   5.743   3.662  16.004  0.1767  0.1002 -0.0385
26542W        W43016  13.918  10.510   4.173  0.0564 -0.2136  0.0608
26543W        W43017  13.863  15.071   4.122 -0.1483 -0.0102  0.1970
26544W        W43018   1.059   8.552  14.866  0.0715  0.0160 -0.1610
26545W        W43019   4.661   0.430   3.641  0.2680 -0.2081  0.2894
26546W        W43020  17.749  14.974  13.194  0.0672 -0.4072  0.0330
26547W        W43021  15.505   9.636   3.970 -0.0241 -0.0798 -0.0972
26548W        W43022  14.740  14.042   0.826 -0.1029 -0.1546 -0.0996
26549W        W43023   5.618   1.252   4.507 -0.2734 -0.0499 -0.1556
26550W        W43024  16.962  15.798   0.897 -0.0619  0.0768  0.0513
26551W        W43025   5.410  14.866  12.872 -0.0391  0.0054  0.1399
26552W        W43026  14.286   8.891   0.872  0.3375 -0.0040  0.1547
26553W        W43027   5.823  17.059   2.057  0.2822  0.3936  0.1435
26554W        W43028  11.944   7.765   4.061 -0.2520  0.2091  0.2338
26555W        W43029   4.014   0.120  13.818 -0.0444  0.0038 -0.1821
26556W        W43030   7.294  18.028   3.425 -0.0379 -0.3566  0.1429
26557W        W43031  16.874   3.949   3.011  0.0548  0.0284  0.2044
26558W        W43032  10.612  14.835   2.427 -0.0352 -0.2923 -0.3185
26559W        W43033  13.990  15.471  14.018  0.3728 -0.1139 -0.1246
26560W        W43034  12.379   6.971   0.327 -0.0155  0.2608  0.0765
26561W        W43035  15.576  10.719  11.522 -0.1299  0.0214 -0.0143
26562W        W43036  17.970  17.094  16.190 -0.1476 -0.3641 -0.1853
26563W        W43037   7.348   8.870   0.136 -0.0484 -0.3187  0.2415
26564W        W43038   3.915  16.077   2.845 -0.0924 -0.1382 -0.1028
26565W        W43039  12.907   1.850   3.278 -0.1604  0.0052  0.1509
26566W        W43040   2.380  16.102   2.862  0.0685 -0.1599 -0.0992
26567W        W43041   0.984   4.250   1.044  0.0983  0.1391 -0.1222
26568W        W43042   2.062   5.853   3.067 -0.2016  0.2667 -0.0807
26569W        W43043  14.158   8.790   1.803  0.0882 -0.2751 -0.3373
26570W        W43044  17.792  16.486   0.399 -0.1454 -0.1535  0.0512
26571W        W43045   8.147  17.428  13.855 -0.2583  0.0280 -0.0149
26572W        W43046   3.745  10.684  12.564 -0.0672 -0.4595  0.2004
26573W        W43047   3.447   7.764  12.684  0.2435  0.0568  0.0307
26574W        W43048  10.594   3.992  11.473  0.0723  0.4122  0.0896
26575W        W43049   7.294   6.000   4.349 -0.2200  0.0790 -0.2488
26576W        W43050   3.299  16.078   2.282 -0.0492 -0.0375  0.1505
26577W        W43051   5.298   7.329  13.435  0.1137  0.1277 -0.0873
26578W        W43052   4.035   5.602   0.838  0.2855  0.1147 -0.3494
26579W        W43053   3.092   2.276  15.904  0.1419  0.0834  0.0863
26580W        W43054   6.222   2.148   0.257 -0.1934 -0.1905  0.2229
26581W        W43055   4.535  13.119  15.773 -0.0148  0.2438 -0.1819
26582W        W43056   0.522   2.381  11.354  0.2073 -0.0754  0.1593
26583W        W43057  10.580  12.085   3.427  0.0619  0.1223  0.0397
26584W        W43058   1.560   4.537  15.300  0.2128 -0.1716 -0.1269
26585W        W43059   5.530  12.492   0.487 -0.1300  0.0734  0.2931
26586W        W43060   4.988  11.499   4.833 -0.2454 -0.0897  0.0552
26587W        W43061   7.650   7.060  15.806  0.0523 -0.0233  0.3920
26588W        W43062   4.279   7.828  13.375 -0.0774  0.1083 -0.0558
26589W        W43063  12.240  11.647   5.283  0.1367  0.0313 -0.0435
26590W        W43064   6.490  17.431  13.002  0.2995  0.1147 -0.3180
26591W        W43065   7.547  15.809   1.090 -0.0397 -0.4165  0.0949
26592W        W43066  16.268  11.129  14.599 -0.1494 -0.3181  0.0826
26593W        W43067   6.819  16.307  14.187  0.0331 -0.2210  0.2038
26594W        W43068   1.414   1.065   4.140 -0.2805  0.3566  0.0644
26595W        W43069  15.782   9.264   1.066  0.0341  0.0311  0.0160
26596W        W43070  13.814   8.901   5.656 -0.0502  0.2557 -0.1401
26597W        W43071  10.073   7.350   2.470 -0.0944  0.0277  0.1950
26598W        W43072  13.202  16.339   1.804  0.1358  0.2018 -0.0206
26599W        W43073  10.064   0.326  13.292 -0.1094  0.4107 -0.0022
26600W        W43074  11.625   0.471   5.372 -0.4471 -0.2928 -0.0366
26601W        W43075   4.151   2.235   3.244 -0.0165 -0.0379  0.0018
26602W        W43076  16.767  14.582  11.256 -0.4442 -0.3461  0.0886
26603W        W43077   8.447  14.484  11.413  0.2821  0.0467 -0.0155
26604W        W43078  11.459   5.558  15.975  0.0570  0.0163  0.0599
26605W        W43079   8.707  15.421  13.521 -0.2782 -0.0738 -0.0237
26606W        W43080   9.408   5.742  11.354  0.0560 -0.1355  0.2064
26607W        W43081   2.219   9.569  11.044  0.1989  0.3345  0.2440
26608W        W43082   8.717   9.738   4.414  0.1383  0.0361 -0.1159
26609W        W43083   5.382   2.289   0.064  0.0610 -0.0173 -0.0218
26610W        W43084   6.268   6.611  16.029  0.4486  0.1209 -0.2355
26611W        W43085   6.047  13.912  16.182  0.0006  0.1833 -0.1131
26612W        W43086   1.118  13.264   4.768  0.2097  0.2708  0.1211
26613W        W43087   9.356   2.347  13.626  0.0246 -0.1480  0.1095
26614W        W43088  11.794  10.661  13.343 -0.0015  0.3009 -0.0199
26615W        W43089   2.691  11.444  14.432  0.0707  0.2150 -0.1106
26616W        W43090   6.536   7.358   1.535 -0.1328 -0.2226  0.1198
26617W        W43091   0.894   1.847  12.548  0.1628  0.4248  0.2710
26618W        W43092   2.533  17.491   4.601 -0.1406  0.0162 -0.1670
26619W        W43093   1.437   4.470   1.331  0.4529  0.0611  0.0650
26620W        W43094  17.089  10.946   2.639  0.0437 -0.0238 -0.1437
26621W        W43095  13.194   3.140   5.753 -0.3399 -0.1705  0.0106
26622W        W43096  13.055  14.872   3.993 -0.1384 -0.1046 -0.0136
26623W        W43097  11.204  10.719  13.969 -0.0709 -0.0672 -0.0361
26624W        W43098  13.359   7.395  15.328  0.1886 -0.1607  0.1032
26625W        W43099   6.394   5.037  14.243  0.0152 -0.0412 -0.3489
26626W        W43100   7.726  11.620  12.311 -0.1170 -0.1226 -0.0400
26627W        W43101   5.281   3.890   0.533  0.2421 -0.1055  0.1818
26628W        W43102   1.289   6.076   3.999  0.0771 -0.3221  0.2888
26629W        W43103   1.641  17.768   1.140 -0.2634 -0.0606 -0.0866
26630W        W43104   9.611  15.639  14.722 -0.1783 -0.0219  0.1628
26631W        W43105  15.408   0.229   0.593  0.3596 -0.0472 -0.0555
26632W        W43106  16.986  13.365  14.497  0.0992  0.1477 -0.0801
26633W        W43107  17.799   8.838   1.685 -0.2394 -0.2035  0.1085
26634W        W43108   6.068   8.086   1.282  0.0487 -0.1103  0.0732
26635W        W43109  12.360  16.145   4.921  0.2769  0.1225 -0.0704
26636W        W43110   1.925   9.296  12.624 -0.0734 -0.0436 -0.3024
26637W        W43111   0.404   1.666  14.338 -0.3372  0.0012 -0.0369
26638W        W43112   8.187   4.213   4.908 -0.1506 -0.1126 -0.1312
26639W        W43113  16.779   1.930   6.039  0.1358 -0.2929 -0.0816
26640W        W43114   8.085   0.876  12.238  0.2561 -0.0763 -0.0196
26641W        W43115  13.162  12.314   4.492 -0.0589  0.2302  0.2312
26642W        W43116   0.243  10.362   2.602  0.0199 -0.0180 -0.1124
26643W        W43117  15.176  15.316  13.763  0.1894  0.0816  0.0945
26644W        W43118   8.056  17.378   4.213 -0.1403 -0.0900  0.2094
26645W        W43119  10.581   3.694   4.082 -0.1909 -0.1384 -0.1743
26646W        W43120  10.897   8.208   1.866  0.0117 -0.2372  0.3370
26647W        W43121  15.280  17.242   1.433 -0.2532 -0.0176  0.3414
26648W        W43122   9.093  15.019   4.357 -0.0865  0.0657  0.0990
26649W        W43123   1.314   9.851  13.527  0.0724  0.0164  0.0795
26650W        W43124  15.156   9.743   3.525 -0.1971  0.1959 -0.1158
26651W        W43125   2.312   3.303   6.023 -0.0718 -0.2683 -0.3394
26652W        W43126  14.324  17.223  14.615  0.0906 -0.0277  0.2760
26653W        W43127  11.151   0.299   3.599 -0.2605  0.2197 -0.0965
26654W        W43128  13.593  12.352   4.231 -0.3183 -0.2513 -0.1458
26655W        W43129   3.807   1.927   5.207  0.1169 -0.2609 -0.1819
26656W        W43130   9.952   6.831   2.624 -0.1308 -0.1946  0.4589
26657W        W43131   5.276  11.000  14.812  0.0084 -0.1642 -0.0567
26658W        W43132   2.250   2.808   2.172 -0.0141  0.3534  0.1878
26659W        W43133   9.738   7.793   1.256 -0.1095 -0.0126  0.0496
26660W        W43134  17.738   6.734  11.743 -0.0930  0.1568  0.0803
26661W        W43135  14.934   5.997  11.928  0.0805  0.2631  0.1059
26662W        W43136   4.702   8.289   5.224  0.2384  0.3863 -0.3127
26663W        W43137   5.162   4.101   3.545 -0.0306 -0.1628  0.2879
26664W        W43138   2.438  11.357   5.098  0.1004 -0.1466  0.1057
26665W        W43139  17.103   0.635  13.080 -0.4089  0.0749 -0.2517
26666W        W43140  16.423   8.528  14.729  0.0792  0.1692  0.0708
26667W        W43141  15.663  17.356   1.140  0.3342 -0.0947  0.3801
26668W        W43142   4.487  16.205  12.867 -0.0105  0.0831 -0.0812
26669W        W43143  17.341   9.140  14.216 -0.0644 -0.1094  0.0464
26670W        W43144   9.068  16.008  13.507 -0.1095  0.3018 -0.2152
26671W        W43145  12.758   7.922  14.760 -0.1380 -0.1470 -0.0560
26672W        W43146   6.444  11.899  12.753  0.3340 -0.0963  0.0069
26673W        W43147  14.711  16.902   0.104 -0.0903 -0.1336  0.1387
26674W        W43148  11.830  17.304   1.868 -0.0090  0.2652  0.0588
26675W        W43149   5.283   4.343  15.277  0.2823 -0.0205 -0.0049
26676W        W43150   2.282   3.989   4.378  0.0769 -0.0597 -0.4622
26677W        W43151   4.573  10.474   4.371 -0.2209  0.0430  0.0677
26678W        W43152   5.111  14.705  15.639  0.1315  0.1360  0.2463
26679W        W43153   0.686  16.553   4.961  0.0631  0.4218 -0.1170
26680W        W43154  10.659  12.350   5.141  0.0180  0.0069  0.0678
26681W        W43155   9.124  16.900  12.647 -0.2329  0.1830 -0.1118
26682W        W43156   2.755  12.373   0.483  0.0565  0.3050 -0.2831
26683W        W43157   6.175   4.623  14.773 -0.0257  0.0645 -0.0121
26684W        W43158   5.399   1.685   2.740  0.2285  0.1924  0.0521
26685W        W43159   5.202   5.133   5.656 -0.0785  0.0011 -0.1295
26686W        W43160   2.074   9.231  10.741 -0.2826 -0.0001 -0.1349
26687W        W43161  15.285  11.369   5.299 -0.1520 -0.0419 -0.0164
26688W        W43162   7.253   5.969  13.279 -0.0532  0.1513  0.0395
26689W        W43163  14.781   2.019   1.541  0.1391  0.0767  0.0259
26690W        W43164  16.403  10.637   4.910 -0.1290 -0.0419 -0.1984
26691W        W43165   0.146   6.435  13.171 -0.0783 -0.3551  0.1420
26692W        W43166  10.078   2.735  11.831 -0.2175 -0.1767 -0.2178
26693W        W43167  11.940   9.291   5.005  0.1920 -0.0504 -0.3254
26694W        W43168  15.572   2.996   1.575 -0.1130  0.1458 -0.1900
26695W        W43169   0.163  15.015   5.157  0.0268  0.1326  0.1939
26696W        W43170   5.862  12.658   3.319  0.0313 -0.0350 -0.2056
26697W        W43171   7.503   4.925  16.367  0.2692  0.0089  0.1011
26698W        W43172   7.535   7.638  11.370 -0.1101 -0.1450  0.0373
26699W        W43173  15.168   7.310   2.272 -0.1478  0.0982  0.1235
26700W        W43174   8.120   6.155  14.681  0.1116  0.0352 -0.0034
26701W        W43175   0.140  10.699   4.845  0.0055 -0.0712 -0.2581
26702W        W43176   0.626  17.269  11.694  0.3623  0.1476 -0.3217
26703W        W43177   9.586  10.002  13.186 -0.2341  0.1640  0.0668
26704W        W43178  12.132   6.777  12.989  0.2103  0.3797  0.2207
26705W        W43179   1.801   3.597   6.142 -0.1792  0.1155  0.1948
26706W        W43180   2.402   5.695  12.198 -0.0701  0.2697  0.0551
26707W        W43181  10.605   8.590  14.248  0.0308 -0.1388 -0.2115
26708W        W43182   4.837  16.478   4.723 -0.0709 -0.1194 -0.1717
26709W        W43183   8.323   6.949   1.372  0.1483 -0.1246 -0.2157
26710W        W43184  14.216  17.960   1.852  0.0315 -0.2017 -0.0644
26711W        W43185   9.175  10.386  11.435 -0.0912  0.0943 -0.1534
26712W        W43186  11.020   0.443   6.164  0.0237 -0.1485 -0.1725
26713W        W43187  14.998   0.342  13.816 -0.1190 -0.1745  0.1033
26714W        W43188  14.434  11.654   1.101  0.0110  0.2144  0.1069
26715W        W43189   1.696   3.012  14.458 -0.0270  0.3845 -0.1045
26716W        W43190   0.835  11.678   5.088  0.0783  0.3994  0.0224
26717W        W43191  10.758   4.403   3.114 -0.1409 -0.0521  0.3769
26718W        W43192  16.388  15.972   0.852  0.0030 -0.0604  0.1428
26719W        W43193  11.721   0.514  12.355 -0.0469  0.0601  0.1340
26720W        W43194   8.032   6.700   3.998  0.0547 -0.1100  0.3089
26721W        W43195   2.425   6.437   1.164  0.0945  0.2246  0.1486
26722W        W43196   6.556   3.571   3.581 -0.0649 -0.0494  0.0189
26723W        W43197   3.283   5.039  11.533  0.3682  0.0595 -0.1038
26724W        W43198   1.072   5.487   3.070 -0.0134 -0.0720  0.0515
26725W        W43199   4.829  10.898   3.551 -0.1172  0.3810  0.2407
26726W        W43200  18.120   9.557  15.572 -0.1011  0.3224 -0.1219
26727W        W43201   2.020   1.559   4.606 -0.1005 -0.1317 -0.3283
26728W        W43202  11.137  11.302   1.674  0.1256 -0.4615  0.0524
26729W        W43203   3.226  17.792  14.010 -0.2601  0.0604  0.2105
26730W        W43204   8.595  11.509   5.119  0.1244  0.3724  0.0293
26731W        W43205   9.143  16.956   5.370 -0.0132 -0.1596 -0.1166
26732W        W43206  18.150  10.036   2.362  0.0429 -0.0676  0.2585
26733W        W43207  14.848   7.193  10.053  0.0651 -0.0913 -0.0135
26734W        W43208   2.217  16.640  14.520 -0.1891 -0.1474 -0.0954
26735W        W43209   4.378  11.217  12.696  0.2812 -0.1558 -0.3504
26736W        W43210   9.873  15.911  13.139  0.1885 -0.2318  0.1770
26737W        W43211   4.376  15.128  14.072  0.1829  0.0504  0.0562
26738W        W43212  10.364   4.056   2.771  0.1602 -0.0537  0.2818
26739W        W43213  10.309  10.619  16.249  0.2952 -0.1546 -0.2342
26740W        W43214   2.783   9.687   3.081 -0.0868 -0.0536 -0.1819
26741W        W43215   9.462  13.968  10.654  0.0646  0.4546  0.0302
26742W        W43216  15.015  11.950  16.185  0.0042 -0.2087 -0.1567
26743W        W43217   1.109  10.572   5.076 -0.1288  0.0159 -0.1536
26744W        W43218  10.747   9.196   0.653  0.0101  0.1075  0.0378
26745W        W43219   7.545   8.777   2.222 -0.0278  0.1266  0.1630
26746W        W43220  15.634  12.431   1.011 -0.0249  0.2294 -0.1028
26747W        W43221   1.471   1.127  13.840 -0.2546 -0.1385 -0.0134
26748W        W43222  13.052  16.014   0.289  0.0349 -0.0227  0.1510
26749W        W43223   8.844  13.740   3.770  0.4156  0.1501 -0.3055
26750W        W43224  10.579   4.236  13.239  0.1392  0.0064  0.0900
26751W        W43225   9.625  10.047   5.713  0.0054 -0.0462  0.0800
26752W        W43226  15.124  11.437   3.513  0.1955  0.3169  0.0260
26753W        W43227   2.888   3.705   4.485  0.0603  0.0444 -0.0434
26754W        W43228  14.782  12.315  14.347 -0.2834 -0.0314 -0.0983
26755W        W43229  11.129  14.677   4.886  0.1452  0.0343 -0.0142
26756W        W43230   8.034  10.996  14.303  0.0261 -0.0467 -0.0782
26757W        W43231   6.374   9.321  15.678  0.5197 -0.0390 -0.0665
26758W        W43232   0.136  14.273   1.790  0.1427  0.1039 -0.3313
26759W        W43233  16.243   2.371  13.559  0.1800  0.1705 -0.1025
26760W        W43234  12.531   7.453   1.216 -0.1116 -0.3062 -0.5745
26761W        W43235  10.484   6.681   3.893 -0.2006  0.0750  0.2466
26762W        W43236  10.747   2.511   3.575 -0.3757  0.1197 -0.3240
26763W        W43237   6.054   8.691  13.738  0.0702 -0.0568  0.3800
26764W        W43238   7.506  13.281  12.300  0.0462  0.0913  0.1137
26765W        W43239  17.002   6.153   4.658  0.2162  0.3210 -0.2859
26766W        W43240   4.705  11.381   1.805 -0.1270  0.0285 -0.1492
26767W        W43241   6.737  16.173  16.019  0.1844 -0.0523 -0.1002
26768W        W43242  17.477   9.766  12.999 -0.0438  0.2329  0.0303
26769W        W43243  16.456  13.199  14.971 -0.3037 -0.2428 -0.0401
26770W        W43244   1.642  10.242   1.914 -0.0425 -0.1917 -0.0469
26771W        W43245   2.941  15.755   3.870  0.2650 -0.2192  0.0118
26772W        W43246   8.795  12.170  15.009  0.0893 -0.2558  0.3836
26773W        W43247  14.924  15.823  14.386 -0.1053  0.0960  0.1786
26774W        W43248   5.206   9.756   1.986  0.0897 -0.3011 -0.1495
26775W        W43249   6.922   0.203  14.606  0.0301 -0.0349  0.1344
26776W        W43250  13.363  15.010  14.699  0.1121 -0.2933  0.4283
26777W        W43251   2.438   1.608   0.442  0.1983 -0.1421 -0.3110
26778W        W43252   9.270   1.695  14.093  0.3703  0.2918 -0.1881
26779W        W43253   4.837   3.517   5.937 -0.3501  0.1165 -0.0453
26780W        W43254   8.392  14.977   3.939 -0.3996  0.1566  0.0244
26781W        W43255   5.795   9.608   0.412  0.1123 -0.0663  0.1784
26782W        W43256  18.081   9.022   2.106  0.1029 -0.1977  0.0906
26783W        W43257   0.574   3.099   4.046  0.1352  0.0776  0.1912
26784W        W43258  18.170  10.435  15.146 -0.1041 -0.1952 -0.0809
26785W        W43259   1.186   7.678  14.810 -0.1323  0.0806 -0.3910
26786W        W43260  13.310  15.684   4.696 -0.2049 -0.1722 -0.0811
26787W        W43261   1.366   1.636  12.647  0.0559 -0.0486 -0.2541
26788W        W43262   3.377   9.762   4.157  0.1144  0.0465 -0.1462
26789W        W43263   0.700   4.916  15.850  0.1576 -0.1188 -0.2115
26790W        W43264  15.295  15.686  14.043  0.0255  0.1319 -0.0316
26791W        W43265  10.321   1.554   3.549  0.0432  0.3505 -0.0023
26792W        W43266  11.587  13.571   2.224  0.2100 -0.2152  0.0000
26793W        W43267  16.735   9.418  16.020 -0.0055 -0.1553  0.0339
26794W        W43268  13.334  15.552  14.681 -0.1461 -0.0990 -0.3994
26795W        W43269   6.155  13.413  14.557  0.3227 -0.0835 -0.1975
26796W        W43270   3.998  17.885  15.581  0.2332  0.1651 -0.2027
26797W        W43271   2.846  10.850   2.333 -0.2118  0.1641  0.1679
26798W        W43272  10.697   6.205  14.433  0.2273  0.1083 -0.3398
26799W        W43273   4.655  13.972  12.419 -0.0011 -0.1644  0.0051
26800W        W43274   5.304  16.422   4.235  0.1321 -0.2529  0.1986
26801W        W43275  11.878   3.096   1.553  0.1198  0.0705  0.2488
26802W        W43276  12.283   5.127  12.344  0.2709 -0.0653  0.1206
26803W        W43277  12.349   3.307   5.361  0.0799  0.1777 -0.3671
26804W        W43278  16.744  14.120  14.925  0.0984  0.3811 -0.0023
26805W        W43279  17.011   3.490  12.501  0.1104  0.0006  0.0843
26806W        W43280  18.135   7.765   0.585  0.2510  0.1783  0.1478
26807W        W43281   9.185   1.089  15.656  0.0841 -0.2558  0.2316
26808W        W43282   2.977  14.971   1.768  0.0309 -0.1055 -0.2044
26809W        W43283  12.825   3.439   4.120 -0.3939  0.0731  0.3190
26810W        W43284  13.276   2.162  12.034  0.2021  0.1498  0.3861
26811W        W43285  17.997  10.991  12.552 -0.1238 -0.2210 -0.1964
26812W        W43286   6.668   9.229  16.173 -0.0489  0.1350 -0.3002
26813W        W43287  18.064  17.410   3.378 -0.0361 -0.0050 -0.0369
26814W        W43288  10.614  14.169  14.629 -0.0115 -0.0018  0.1431
26815W        W43289  10.556   5.360  15.548  0.1772  0.0057  0.0909
26816W        W43290  18.077  11.944   5.420 -0.2162  0.1927  0.0212
26817W        W43291  11.069   7.496  14.815 -0.3022 -0.2057  0.2760
26818W        W43292   0.074  11.042   1.641 -0.1852  0.3703 -0.2934
26819W        W43293   3.144  16.607   4.031 -0.0922 -0.0240  0.0989
26820W        W43294   2.856   4.393   0.845  0.0790 -0.0248 -0.1954
26821W        W43295  16.646   9.894  14.027 -0.2192  0.1311  0.1723
26822W        W43296   7.207   1.471   1.129 -0.1424 -0.0356  0.0766
26823W        W43297  17.088   9.698  14.930 -0.0200  0.0396 -0.0471
26824W        W43298   2.503  16.885   5.222  0.0815  0.1504 -0.1560
26825W        W43299  18.027   5.574  12.727  0.0356  0.1454  0.1323
26826W        W43300  11.032  14.470  14.623 -0.0223 -0.0576 -0.1449
26827W        W43301   5.715  14.138  13.149  0.0836  0.3426 -0.1199
26828W        W43302   3.508   5.274  11.988 -0.0548 -0.1436  0.3428
26829W        W43303   7.818   0.411  12.379  0.5130  0.3128 -0.2036
26830W        W43304   1.310  15.660  15.367 -0.0914 -0.0463 -0.2020
26831W        W43305   3.482  13.546  12.979 -0.1443 -0.0456  0.0879
26832W        W43306   4.083  17.590   5.590  0.1717 -0.0399 -0.2577
26833W        W43307   3.079   5.997  13.634  0.2021  0.2187 -0.1608
26834W        W43308   9.353   5.818  12.236  0.0223  0.1119  0.3399
26835W        W43309  13.220   8.412  15.486 -0.5531  0.2566 -0.1734
26836W        W43310  11.297   1.642  11.900 -0.2023  0.1150 -0.2019
26837W        W43311  14.254   6.433  16.325  0.1318 -0.0896 -0.0909
26838W        W43312  14.971  17.204   4.944 -0.0131  0.0649 -0.0687
26839W        W43313  11.888  16.255   4.778 -0.0273 -0.0435  0.1536
26840W        W43314   8.796  16.062  11.672 -0.0385  0.2491 -0.0129
26841W        W43315   7.388   3.729   1.303 -0.0723  0.0045 -0.2529
26842W        W43316  16.800  10.724   1.474  0.0211  0.2027 -0.2837
26843W        W43317   6.854  15.330  11.616 -0.1489 -0.2148  0.0953
26844W        W43318   3.837   0.433   4.706  0.2544 -0.1706  0.1198
26845W        W43319   7.698   8.037  15.400  0.0006 -0.2680  0.1625
26846W        W43320  15.763  14.342   3.856 -0.0698  0.1965 -0.0443
26847W        W43321  12.847  10.348  15.620 -0.0962  0.0121 -0.2979
26848W        W43322  17.015   9.312   1.778  0.0256 -0.1706 -0.0557
26849W        W43323   4.521  13.669  15.137  0.0669 -0.3240  0.1136
26850W        W43324  11.824  15.338  12.942  0.3589  0.0021  0.0184
26851W        W43325  10.728   1.623   2.126 -0.2884 -0.0211 -0.1927
26852W        W43326   3.248   7.708  11.249 -0.0109  0.0882  0.0529
26853W        W43327  11.131   4.649  13.590  0.1568  0.2180 -0.0534
26854W        W43328   6.516   1.120   0.397 -0.3261 -0.2903 -0.2160
26855W        W43329   0.638  11.179  12.788  0.1451 -0.4412  0.0747
26856W        W43330  11.880   9.070   1.228  0.1536  0.4693 -0.0094
26857W        W43331   6.744   2.758  14.933  0.4751  0.2894 -0.1412
26858W        W43332   9.765   2.381   5.333  0.1433 -0.0210  0.1356
26859W        W43333   8.360  15.400   2.647 -0.1812  0.1831 -0.0913
26860W        W43334   7.191  12.567  10.957 -0.1679 -0.0227  0.0047
26861W        W43335   8.849  12.558  13.760  0.1929 -0.0419 -0.2916
26862W        W43336  15.980  12.966  11.480  0.3944 -0.0650  0.0871
26863W        W43337  16.252  10.563  15.785 -0.2466 -0.0289  0.2609
26864W        W43338   5.868  13.877   5.187 -0.0032  0.2815 -0.0937
26865W        W43339   5.531  18.084  14.300 -0.1110 -0.1461 -0.1545
26866W        W43340   7.231   2.464  16.302  0.3620  0.1343 -0.0709
26867W        W43341  17.830   7.948   2.719  0.3698  0.0267  0.0830
26868W        W43342  17.842  14.753  12.671  0.1237 -0.3973  0.1422
26869W        W43343  11.794  12.390  11.130 -0.1196  0.1122 -0.0577
26870W        W43344   2.048  13.383  11.699  0.0931 -0.0711 -0.0296
26871W        W43345  18.042   8.371   5.821  0.1507  0.0954  0.1622
26872W        W43346   5.147  17.458   5.379  0.2387  0.0846  0.0158
26873W        W43347   2.132  15.269  16.345  0.2461 -0.3223 -0.0630
26874W        W43348  14.826   6.756   3.057  0.2361 -0.0777  0.1013
26875W        W43349   7.057  17.097  13.592 -0.1735 -0.1707 -0.0022
26876W        W43350   7.544   4.658   5.404 -0.2724  0.1353 -0.2804
26877W        W43351  16.674   7.810   3.412  0.0185  0.1023  0.1150
26878W        W43352  15.622  15.185   0.785  0.0041  0.2409  0.1889
26879W        W43353  11.567  15.032   5.479  0.0560  0.1280 -0.1540
26880W        W43354   5.757   3.308  12.249 -0.0402  0.0921 -0.2856
26881W        W43355  14.539  12.655   1.656  0.0030 -0.1531  0.1879
26882W        W43356  16.730   4.853   2.943  0.1301 -0.0370  0.1039
26883W        W43357   0.966   7.640   3.940  0.0032 -0.1266 -0.0279
26884W        W43358   2.192  16.043  13.004 -0.0852  0.1317 -0.0077
26885W        W43359   8.683  10.542  13.378  0.3019 -0.1033  0.1198
26886W        W43360   8.846   1.716  14.939  0.0385  0.3132  0.1247
26887W        W43361   3.994  17.286   0.971  0.1903 -0.0923 -0.0790
26888W        W43362  13.092  14.265   3.128 -0.0652  0.1762  0.0879
26889W        W43363   7.706   1.871   3.101 -0.2042  0.1719 -0.1425
26890W        W43364  13.591   4.269  16.248 -0.2582 -0.0401  0.1221
26891W        W43365   6.736   7.424   5.029  0.0404 -0.0869 -0.0403
26892W        W43366  13.544  11.220   2.448 -0.1227  0.0641  0.2621
26893W        W43367   5.540  12.624   4.172  0.2664 -0.0954  0.0794
26894W        W43368   5.513  16.600   0.920  0.1427 -0.1375  0.1815
26895W        W43369  14.438  13.363   0.651 -0.0828 -0.1307  0.1073
26896W        W43370  14.282  14.771  14.924 -0.1823 -0.4010  0.1955
26897W        W43371  15.184   8.066  14.667  0.0386 -0.0813  0.2057
26898W        W43372   1.181  15.961   0.985  0.1254  0.0632 -0.0264
26899W        W43373   5.062   2.602  15.936 -0.0421  0.0748 -0.3131
26900W        W43374  10.278  10.339  13.723 -0.1661  0.0370 -0.0522
26901W        W43375  10.369   7.688   0.255  0.1363 -0.1200 -0.2780
26902W        W43376  13.576   8.771  15.265 -0.0161 -0.0200  0.1327
26903W        W43377  14.267  15.685   4.652  0.0985 -0.0373 -0.0349
26904W        W43378  16.605   2.444   3.972  0.2147  0.1779 -0.0055
26905W        W43379   6.863  14.133   3.129  0.1092  0.0831 -0.0391
26906W        W43380  16.066  17.053  15.229 -0.0457 -0.0656 -0.0339
26907W        W43381   9.996  13.239   4.314  0.0735 -0.0901 -0.2732
26908W        W43382  12.885   2.028  13.824 -0.2146  0.1981 -0.0311
26909W        W43383  11.993   9.685  12.622 -0.1861  0.1116  0.0678
26910W        W43384   7.571  15.229   2.287  0.1350 -0.1568  0.0266
26911W        W43385  13.442  14.214   3.558 -0.2261  0.1944  0.0339
26912W        W43386   0.763   0.809  10.656  0.3456  0.3868  0.1301
26913W        W43387   7.779  10.379  11.864  0.1620 -0.0034 -0.2213
26914W        W43388  12.450  17.588   6.097 -0.0889  0.1234  0.3822
26915W        W43389   6.067  13.152   2.364 -0.3174  0.4395 -0.2327
26916W        W43390   0.701  16.499   1.959 -0.1595 -0.1334 -0.0322
26917W        W43391   0.467   2.720  12.260 -0.0805  0.0852  0.0045
26918W        W43392  16.608  11.964   2.706 -0.2546  0.1740 -0.1728
26919W        W43393   6.698  16.672   5.951  0.0710 -0.0823  0.4412
26920W        W43394  14.071   6.626  12.635 -0.0335 -0.1705 -0.0325
26921W        W43395  10.370  15.425  12.010  0.0098 -0.3204  0.1143
26922W        W43396  15.903   1.847  11.358  0.2162  0.0508 -0.1482
26923W        W43397  12.004   6.424   1.536 -0.0400  0.3743  0.0759
26924W        W43398   6.953  17.034   0.376 -0.0814  0.0317 -0.0016
26925W        W43399   5.672   2.999  15.211  0.1395 -0.0740  0.2164
26926W        W43400  17.078   1.481   4.174  0.1460  0.1064 -0.2527
26927W        W43401   3.629  17.131  14.185 -0.1300 -0.1633 -0.3688
26928W        W43402  10.321   9.306  12.911  0.2872 -0.3194 -0.0083
26929W        W43403  14.047  17.278   1.538  0.2943 -0.1112 -0.0580
26930W        W43404   6.756  10.188   0.080 -0.2480 -0.1659  0.0638
26931W        W43405  17.687   8.789   4.062 -0.3174  0.0455  0.0940
26932W        W43406   2.017   4.874  13.060  0.2322  0.0714 -0.0091
26933W        W43407   9.516   2.157   0.440 -0.1288  0.0667  0.1107
26934W        W43408  15.098   7.249  15.566  0.1815 -0.1060 -0.0624
26935W        W43409  17.143   0.266  15.687 -0.1638  0.2471  0.2351
26936W        W43410   8.481  13.276  13.508  0.0101 -0.0051 -0.0565
26937W        W43411  11.401  18.164   3.961  0.1144  0.1862 -0.0083
26938W        W43412   0.568  17.651   3.302  0.0828 -0.2239  0.0118
26939W        W43413   3.178   5.095  13.784  0.2730  0.2583  0.1553
26940W        W43414   7.696  16.223   1.434 -0.1387  0.1746  0.1707
26941W        W43415   0.917   5.745   1.595  0.0416 -0.6076  0.2678
26942W        W43416   6.486   7.270  12.013  0.0143 -0.1237  0.2347
26943W        W43417  15.784  11.302  14.661 -0.0889  0.1263  0.1708
26944W        W43418  16.549   1.685  15.098 -0.1162  0.2225 -0.2301
26945W        W43419  17.349   8.638  14.366  0.0882  0.2421  0.0035
26946W        W43420   8.789  16.503  12.311 -0.2186 -0.1305  0.2992
26947W        W43421   9.787   7.672  14.132 -0.0968  0.0040  0.1838
26948W        W43422  14.108   8.018  15.146  0.2340 -0.2777 -0.2006
26949W        W43423  17.619  11.961   5.161 -0.0528 -0.3525 -0.1244
26950W        W43424   9.627   0.652   0.867  0.0347  0.2359  0.2733
26951W        W43425  16.760   9.927  16.072  0.0433  0.0838 -0.0311
26952W        W43426  16.143   5.984  10.068  0.0348  0.1297 -0.2556
26953W        W43427  15.607  10.922   5.334 -0.1565 -0.0017  0.1953
26954W        W43428   6.428   2.958  13.637 -0.1119  0.0231  0.1913
26955W        W43429   7.388  15.070  12.149  0.3310  0.3581 -0.2136
26956W        W43430   1.277  13.728  14.960 -0.0312 -0.2126  0.1124
26957W        W43431  14.266  16.902   0.373  0.0406  0.0654  0.1596
26958W        W43432   2.394  16.143   2.341  0.0118 -0.1010  0.1143
26959W        W43433   4.257  16.514  12.051 -0.1447  0.1103 -0.1074
26960W        W43434  10.703   2.944  11.560  0.3237  0.0316  0.2138
26961W        W43435  10.317  13.739   3.837 -0.2598 -0.0248 -0.1330
26962W        W43436  15.314   2.364   1.961  0.1628  0.0156  0.0363
26963W        W43437   8.352   3.355  14.817 -0.1466  0.0129 -0.1283
26964W        W43438  12.475   7.872   2.405 -0.0079  0.1250 -0.1516
26965W        W43439   3.032  16.929  10.336 -0.1305 -0.0861 -0.0929
26966W        W43440   6.675   7.388   2.846  0.0384  0.1472  0.1596
26967W        W43441   9.812  11.284   1.754  0.0072  0.0201 -0.0902
26968W        W43442  13.339   1.430  13.663 -0.1327 -0.0624  0.1341
26969W        W43443  17.926   8.199   4.957 -0.2390 -0.0191 -0.0790
26970W        W43444   9.515   3.520   5.543  0.0498  0.2362 -0.0528
26971W        W43445  13.988   4.578  16.265  0.0188 -0.1132  0.2292
26972W        W43446  10.042   9.460  13.503  0.0775  0.1325 -0.1098
26973W        W43447   8.846  12.598   0.104 -0.0992 -0.0457 -0.0810
26974W        W43448   0.339  13.126   1.749  0.0759  0.1987 -0.0326
26975W        W43449   1.687  13.181  12.842 -0.0051  0.2202 -0.3313
26976W        W43450   3.242  11.491  15.739 -0.1331 -0.4272 -0.1085
26977W        W43451  12.925  11.694   4.741 -0.2639  0.0587  0.2079
26978W        W43452   7.378   5.590  15.919 -0.0835  0.0425 -0.2268
26979W        W43453  10.303  16.083  11.009 -0.0912  0.0250  0.1312
26980W        W43454  15.594   9.572   0.174 -0.1164  0.0866 -0.0375
26981W        W43455   0.133  12.568  14.205  0.1515  0.3255  0.0932
26982W        W43456  11.567   6.107  13.965 -0.0232  0.2639 -0.0950
26983W        W43457   6.171  12.442   1.015 -0.1841  0.2204  0.1235
26984W        W43458  17.015  16.189   2.542 -0.0767 -0.1295 -0.0291
26985W        W43459  14.271  11.893   2.235  0.0472 -0.1127 -0.2512
26986W        W43460   9.061  14.762   1.732 -0.1297  0.0179  0.2697
26987W        W43461  17.668   3.345  14.234  0.2049 -0.2720  0.1302
26988W        W43462  17.541   1.851  11.373 -0.2042 -0.0403  0.1332
26989W        W43463   9.279  10.575   5.136 -0.1725 -0.1317 -0.0108
26990W        W43464  15.344   4.027  14.484 -0.3185 -0.0839  0.1038
26991W        W43465   8.531  17.728  14.322  0.0075 -0.1915 -0.2637
26992W        W43466   6.818   9.186   4.927 -0.0424  0.2087 -0.2433
26993W        W43467  14.402   5.993  13.515  0.1422 -0.2354  0.0192
26994W        W43468   4.679   2.075  13.849 -0.0189 -0.0212 -0.1298
26995W        W43469   4.439  14.554  13.292  0.1234  0.2914  0.3987
26996W        W43470   5.033   4.730  13.648  0.1682  0.0282  0.2373
26997W        W43471   2.794  10.824   2.821 -0.2905 -0.3307 -0.1012
26998W        W43472   1.437  11.236   4.007 -0.0559 -0.2410  0.3379
26999W        W43473   2.366  12.477  14.169  0.3726 -0.3027 -0.1983
27000W        W43474   7.337  14.955  14.997 -0.0297 -0.3050 -0.1792
27001W        W43475   5.685  10.044  15.759  0.1624  0.1153  0.0894
27002W        W43476  14.755  16.743   4.232  0.1986  0.1171 -0.1590
27003W        W43477   0.535  10.269   5.161  0.0209  0.0645 -0.1383
27004W        W43478  10.003  10.886   0.232  0.0294 -0.2737  0.3290
27005W        W43479  11.282   6.846  11.815  0.0640 -0.0280 -0.0495
27006W        W43480   9.304   1.768  15.082 -0.1076  0.2206 -0.1293
27007W        W43481   6.006   0.159   3.909 -0.1453  0.1553  0.2665
27008W        W43482  12.867   4.439   2.527  0.1832  0.0537  0.2047
27009W        W43483   5.819   3.467   5.292 -0.2296  0.0482 -0.0649
27010W        W43484   2.482  10.090  12.873 -0.1950 -0.2595  0.2426
27011W        W43485  14.598   8.481   0.814 -0.2739  0.1229  0.0064
27012W        W43486   3.493   0.610   2.777 -0.0738 -0.1654 -0.0739
27013W        W43487  11.075   0.438  11.592  0.2201 -0.1666 -0.1720
27014W        W43488  17.598   7.746  13.029  0.3434 -0.1797 -0.0572
27015W        W43489  10.152   5.322  10.335 -0.0272 -0.0202 -0.0582
27016W        W43490   5.757   2.618  11.599 -0.3036 -0.1054  0.0368
27017W        W43491   9.751  10.392   0.502 -0.0920  0.0600 -0.0273
27018W        W43492   1.733   6.812   1.581  0.0963  0.0474 -0.3090
27019W        W43493   4.491  17.985  15.381  0.0090  0.0723  0.1242
27020W        W43494   1.299   0.609   0.706 -0.1303  0.0488 -0.1114
27021W        W43495   5.690   3.316  14.243  0.4056 -0.1971  0.2543
27022W        W43496  14.291  15.622  12.703 -0.0040  0.0164  0.2734
27023W        W43497   4.046  17.517  16.367 -0.1920 -0.2177 -0.0626
27024W        W43498   8.172  12.744   1.249  0.1688  0.2340  0.4294
27025W        W43499   5.879   8.242  11.372 -0.1554  0.0511  0.0098
27026W        W43500  10.127   0.757   0.838 -0.2951  0.1579  0.1297
27027W        W43501  12.592   2.594   3.235  0.2954  0.1084  0.1742
27028W        W43502  14.985   8.134  15.621  0.0005 -0.0129  0.0662
27029W        W43503  15.175   0.034  12.735  0.1266  0.0555 -0.2875
27030W        W43504   3.025  15.042  12.231 -0.1230  0.0154 -0.1031
27031W        W43505   5.067   4.378   1.391 -0.1197 -0.1114 -0.1050
27032W        W43506   7.487  10.848  12.712  0.1685 -0.2905  0.2123
27033W        W43507   1.567  10.219  12.572  0.1194  0.1870 -0.0073
27034W        W43508   2.436   7.552  12.736  0.1637 -0.0238 -0.1861
27035W        W43509   5.382   9.158  15.249 -0.2881  0.0405  0.0795
27036W        W43510  10.311  14.501  15.459 -0.0975  0.1763  0.2873
27037W        W43511   5.653  10.100  14.740 -0.1336  0.1286 -0.1823
27038W        W43512  13.291  16.955   4.816 -0.0650  0.1796 -0.4425
27039W        W43513   3.190   2.826   0.954  0.1121  0.2372 -0.4765
27040W        W43514   6.387   2.727  14.108 -0.0572  0.1719 -0.0070
27041W        W43515   9.925   2.398   3.448 -0.3486  0.1344 -0.0348
27042W        W43516   9.912  14.674   5.438 -0.0848 -0.1893 -0.2175
27043W        W43517  13.731   4.827  14.214  0.0274 -0.0686 -0.1998
27044W        W43518  10.717   5.438   2.783 -0.1128  0.1760 -0.0327
27045W        W43519   4.940  18.055  12.012  0.1531  0.0044  0.0884
27046W        W43520  11.129   8.925  11.581 -0.0169  0.2343 -0.4135
27047W        W43521   3.563   0.060   4.328  0.0457 -0.3252  0.1028
27048W        W43522   4.454  12.110  13.919 -0.0671  0.0007 -0.0278
27049W        W43523   4.738   9.573   4.117 -0.1595  0.0504 -0.3399
27050W        W43524   1.242  12.823   3.181  0.0663 -0.0822  0.1206
27051W        W43525  17.674   3.241  12.504 -0.1488 -0.0680  0.0084
27052W        W43526  11.316   6.931  12.373  0.1452 -0.1284  0.0157
27053W        W43527  10.261   2.340   5.110 -0.1934  0.1676 -0.0764
27054W        W43528  17.853   5.610   1.260  0.1027 -0.0705  0.2424
27055W        W43529  15.156  10.851   5.407  0.0699  0.2948 -0.0413
27056W        W43530  12.026  18.060   0.334  0.2714  0.0253  0.1930
27057W        W43531   4.125   1.697   0.931 -0.1496  0.3294 -0.1237
27058W        W43532   4.813   9.380  16.272  0.0956 -0.1036  0.2224
27059W        W43533   7.697   7.059  12.547 -0.0360 -0.1268  0.1221
27060W        W43534  17.882   4.710   4.652  0.0533 -0.0014  0.0338
27061W        W43535   6.213   3.856   0.364 -0.1673 -0.0934  0.3782
27062W        W43536   2.796   6.597  13.697 -0.0193  0.0265  0.2003
27063W        W43537   8.267  13.957   4.454 -0.0475 -0.0558 -0.0878
27064W        W43538   2.593   9.108  11.970  0.0913  0.0332 -0.0634
27065W        W43539  14.662   4.532   5.328  0.0224 -0.3059  0.1450
27066W        W43540  12.549   1.976   1.333 -0.1848 -0.1902 -0.1488
27067W        W43541  14.380   8.913  13.823 -0.1736  0.3708 -0.1837
27068W        W43542  10.299  14.527   6.208 -0.1605  0.1966 -0.1887
27069W        W43543   9.686  11.159  14.045  0.1653  0.3721  0.2696
27070W        W43544   8.321   0.678   1.755 -0.0011  0.1210  0.0090
27071W        W43545  11.417   0.511  10.374 -0.1131  0.2209  0.1180
27072W        W43546  16.670  14.597  14.839 -0.0751 -0.1237 -0.0112
27073W        W43547   5.912   2.111   2.232 -0.3238  0.1049  0.3451
27074W        W43548  14.957   6.699   5.770 -0.1648 -0.0078  0.1148
27075W        W43549  14.259  18.155   3.086  0.1009  0.2595  0.2810
27076W        W43550  18.153   7.061  11.668  0.1071 -0.1468 -0.1237
27077W        W43551  10.270  13.890  13.793  0.0624 -0.2182 -0.2120
27078W        W43552   8.010   4.205  12.196  0.1677  0.0208  0.2432
27079W        W43553   6.556  13.283  12.010  0.0352 -0.0842  0.0615
27080W        W43554  15.614   0.333  14.796  0.1292  0.0406  0.1213
27081W        W43555  14.883   2.547   2.790  0.2872 -0.0115 -0.1925
27082W        W43556   8.835   1.943   6.553 -0.3427  0.1393 -0.4426
27083W        W43557  14.721  12.813   5.845 -0.2080  0.2886 -0.0459
27084W        W43558   5.238   6.581   3.443  0.1915  0.2540 -0.0302
27085W        W43559  16.359  13.788   4.256  0.1216 -0.0324  0.0143
27086W        W43560   3.371   8.909  13.432  0.1495  0.2771  0.0147
27087W        W43561   8.896   6.479  12.866 -0.1288 -0.0179  0.0195
27088W        W43562  14.373   7.096  10.158 -0.1442  0.1082 -0.1586
27089W        W43563   0.302  17.771   5.691  0.0599  0.2254 -0.0041
27090W        W43564  12.509   0.143   0.453  0.0731 -0.1844  0.0295
27091W        W43565  14.818  17.342   2.209 -0.2333 -0.0712 -0.1182
27092W        W43566   3.825  17.830   2.421 -0.0056 -0.2115 -0.4317
27093W        W43567   5.330  16.586  15.421  0.1466 -0.0461  0.2812
27094W        W43568  17.262   3.062  12.230  0.3919  0.2046  0.1635
27095W        W43569   6.587   5.098   3.664 -0.2142  0.2169  0.2418
27096W        W43570   5.063   0.387  12.437 -0.0576  0.3019 -0.1773
27097W        W43571   0.097   6.033  11.990  0.2622  0.0626 -0.0175
27098W        W43572  12.285  10.670  15.070  0.0363  0.4714  0.1001
27099W        W43573  11.723   3.020   2.603  0.1563  0.2336  0.1441
27100W        W43574  17.936  15.058   1.347  0.2831  0.0625  0.0015
27101W        W43575  16.167   3.587  13.030  0.0522 -0.2418  0.0602
27102W        W43576   3.919  16.793   0.882  0.0710  0.0769 -0.1343
27103W        W43577  11.578   4.254  15.104  0.1539  0.0173  0.2131
27104W        W43578   3.383   8.479   5.962  0.0726  0.3285  0.2889
27105W        W43579   2.886  16.344   3.063  0.1494  0.0003  0.3807
27106W        W43580   1.788  10.752  14.827  0.0950 -0.2120  0.0599
27107W        W43581   9.459   0.968  12.112 -0.2984 -0.0384  0.0506
27108W        W43582  10.825   3.055   2.909 -0.0321  0.2787  0.0048
27109W        W43583   3.128  15.910  13.258  0.0956  0.0661 -0.0450
27110W        W43584   8.843   2.860   1.226 -0.0301 -0.2442  0.0702
27111W        W43585  13.253   9.615   1.240 -0.0164  0.0618 -0.2364
27112W        W43586   6.154   0.634   2.225 -0.0198 -0.1355  0.1179
27113W        W43587   8.885   6.472   0.267 -0.3572  0.3086 -0.2303
27114W        W43588  12.277  10.992  12.862 -0.2325 -0.2165 -0.1320
27115W        W43589  14.056   0.740   4.015  0.0865 -0.0104 -0.0579
27116W        W43590   3.934   8.142   4.158 -0.0253 -0.1504 -0.0217
27117W        W43591  16.858  10.603   4.814  0.0241 -0.0774 -0.0191
27118W        W43592   6.495   7.033  16.261  0.1001  0.3159  0.0093
27119W        W43593   7.516   2.542  10.775 -0.2816 -0.0721 -0.0742
27120W        W43594   6.041  14.085   0.792 -0.2628  0.1124  0.2004
27121W        W43595   4.576  10.726   2.244 -0.1998 -0.1394 -0.1271
27122W        W43596   3.653   6.525   4.052  0.1380  0.0179 -0.2036
27123W        W43597  16.039  12.875  12.451 -0.0890  0.2765  0.2035
27124W        W43598   1.869  15.996   1.649 -0.0225 -0.0305  0.1124
27125W        W43599  14.133  12.089  15.309 -0.1140 -0.1778  0.5040
27126W        W43600   4.581   5.326  11.164 -0.3395  0.2700 -0.0196
27127W        W43601   9.604   0.060  14.930  0.1634  0.5950 -0.2578
27128W        W43602  16.361   4.799   3.314  0.3504  0.1449  0.2256
27129W        W43603   2.279   2.000  12.939  0.1320 -0.2942 -0.2570
27130W        W43604   8.523   6.751   0.457  0.2024 -0.0691 -0.1208
27131W        W43605   0.315   5.308  12.943 -0.1848 -0.0416 -0.0135
27132W        W43606  11.940   7.643  13.548 -0.0641 -0.1668 -0.3934
27133W        W43607   6.019  10.134  12.622  0.1117  0.0775  0.0446
27134W        W43608  16.168  16.149  11.627 -0.2577  0.4944  0.2190
27135W        W43609  16.454  15.164  15.518 -0.0706 -0.0934  0.0622
27136W        W43610  12.071   3.399   2.786  0.1663  0.0731 -0.0388
27137W        W43611  17.405  17.470  14.570 -0.1081  0.5452  0.3118
27138W        W43612  15.361   0.330   1.174  0.3187  0.1055 -0.0913
27139W        W43613  17.964   2.787  10.977  0.0164  0.0712  0.0496
27140W        W43614  16.279   9.549   1.366 -0.1760  0.1171  0.2041
27141W        W43615  16.134  10.963  15.365  0.0368  0.0153 -0.1214
27142W        W43616  17.349   5.986  12.340 -0.0926  0.0278  0.0612
27143W        W43617   1.092   1.111   3.209  0.0410  0.3807  0.3246
27144W        W43618  11.859  12.852   5.554 -0.1808 -0.0905  0.1428
27145W        W43619   9.504  10.595   3.283 -0.0483  0.1340 -0.1637
27146W        W43620   2.894   9.131  13.580  0.0765 -0.0979  0.2609
27147W        W43621  17.188   2.451  14.203 -0.0725  0.2448 -0.0427
27148W        W43622  13.328  12.979  13.854  0.0768 -0.3018 -0.0995
27149W        W43623   6.642   8.228   1.221 -0.1809 -0.3182 -0.1331
27150W        W43624   5.261   5.731   1.946  0.1727 -0.0667  0.0659
27151W        W43625  14.867  14.078  13.123 -0.1847  0.2171 -0.2448
27152W        W43626   9.060   9.880  11.340  0.1879  0.3627  0.2617
27153W        W43627  11.251  14.415  11.810 -0.0641  0.3284 -0.0144
27154W        W43628  11.910  13.178  13.344 -0.1487  0.1651  0.2336
27155W        W43629   3.714  10.243   0.896  0.2335  0.0895 -0.1922
27156W        W43630  15.630  12.830   4.114  0.0157  0.1804 -0.3637
27157W        W43631   4.068  13.886  12.781 -0.0034 -0.0141  0.3475
27158W        W43632  16.455  18.072   1.816  0.1070 -0.0647 -0.0365
27159W        W43633   6.038   1.592   5.107  0.1690  0.0732  0.1007
27160W        W43634   9.911   3.802   4.357  0.0469  0.2295 -0.2059
27161W        W43635  11.428  12.982  15.032 -0.0342  0.1642  0.0514
27162W        W43636  14.968   0.388  12.468  0.2260  0.1473  0.1429
27163W        W43637   5.508   4.673   2.150  0.1164 -0.3954  0.0844
27164W        W43638   4.900  13.875  11.523  0.1412 -0.1389  0.5327
27165W        W43639  12.512   3.229   3.733  0.2582  0.1439  0.0292
27166W        W43640   5.189   3.238  14.432 -0.2612 -0.3424 -0.1454
27167W        W43641  10.876  10.705   3.780  0.1070 -0.2664  0.0148
27168W        W43642  11.721  10.705   2.980 -0.0275 -0.3058 -0.0999
27169W        W43643  10.632   0.679  15.480  0.2058  0.2760  0.1350
27170W        W43644  13.927  10.880   2.813 -0.1226  0.0332  0.2024
27171W        W43645  11.607   6.714  12.684  0.0746  0.0760 -0.2380
27172W        W43646  10.705   7.080   4.728  0.0210 -0.1842  0.1812
27173W        W43647  13.661   2.784  15.960  0.0510 -0.0655 -0.3646
27174W        W43648  10.666   0.994  14.697  0.2419 -0.2848 -0.1104
27175W        W43649  11.304   3.517   6.274 -0.0499 -0.0687 -0.0977
27176W        W43650  12.628   6.289   4.942  0.0863 -0.0922 -0.2583
27177W        W43651   2.106   0.722   2.978  0.2602 -0.2507  0.2028
27178W        W43652  12.490  10.800   3.336 -0.2371 -0.1273  0.0669
27179W        W43653  13.456   8.807  14.197  0.0379 -0.2490  0.2033
27180W        W43654   2.597  16.114   5.031  0.1939  0.0886 -0.0774
27181W        W43655   0.765   3.039  12.479 -0.0040 -0.1350  0.0929
27182W        W43656  16.730  15.841   3.494 -0.1464 -0.1044  0.0673
27183W        W43657  11.240  13.512  11.563  0.1011 -0.1722 -0.0564
27184W        W43658   3.576   9.053   5.232 -0.0948 -0.1418 -0.2029
27185W        W43659  10.056  16.085  12.691  0.1708  0.1935 -0.1789
27186W        W43660  15.677  16.445  12.468 -0.0501  0.0161 -0.2941
27187W        W43661  16.642   0.610   4.398  0.2901 -0.1678 -0.0931
27188W        W43662   7.135  16.914  11.830  0.1148  0.0435 -0.1355
27189W        W43663  14.164   1.855   5.231  0.1172 -0.0189 -0.3298
27190W        W43664   7.064  17.731  13.829 -0.0940 -0.4583  0.0096
27191W        W43665   4.992  12.158  13.754  0.0463  0.0655  0.0474
27192W        W43666   8.048   1.435   4.560  0.1443 -0.0156  0.1206
27193W        W43667  11.864  15.964   4.168  0.0396 -0.1464 -0.1301
27194W        W43668   7.962  14.190   6.003  0.0074 -0.0681 -0.0685
27195W        W43669   3.608   6.091   4.515  0.1041  0.1285  0.2495
27196W        W43670   2.858  16.588   4.932  0.0151 -0.2969 -0.0515
27197W        W43671   9.559   3.194  15.772  0.0045  0.1006 -0.0228
27198W        W43672  10.202   8.863  16.334  0.0853  0.0004 -0.0668
27199W        W43673   2.014  13.147   0.759 -0.2502 -0.3676  0.3954
27200W        W43674  12.895  10.918  13.595  0.1543  0.0465 -0.2462
27201W        W43675   2.018   6.385   6.032  0.0338  0.0470  0.0617
27202W        W43676   3.170   9.619  14.841  0.2632  0.0066 -0.3234
27203W        W43677   6.626   7.816  14.951 -0.0176  0.0549  0.1365
27204W        W43678   0.977  14.153   3.525  0.1498  0.0481 -0.2322
27205W        W43679   9.823   0.280  11.678 -0.0894 -0.2212  0.0989
27206W        W43680  13.328  13.449   1.906  0.0396 -0.2579  0.3004
27207W        W43681   2.608   9.570  16.225  0.0380  0.1896  0.1257
27208W        W43682  12.382  12.709   1.522  0.1376  0.0130 -0.0171
27209W        W43683   3.327  17.470  12.115  0.2326  0.0215  0.0123
27210W        W43684   3.898   3.047  14.576  0.0166 -0.1516 -0.0178
27211W        W43685   3.255   6.984   1.539  0.2625  0.4470 -0.0063
27212W        W43686   2.223   8.718  13.738  0.0504  0.1409  0.0363
27213W        W43687   1.521   7.230   1.494  0.1353  0.1099  0.1678
27214W        W43688  10.516  15.764   2.154  0.5708 -0.1524  0.2184
27215W        W43689  15.225  11.661   3.076 -0.2840  0.1882 -0.1799
27216W        W43690   4.538   1.296   4.021  0.0891  0.0669  0.0722
27217W        W43691  16.951  15.391   3.672 -0.3560 -0.3272  0.0032
27218W        W43692   4.613   3.111   1.035  0.1952  0.1198  0.2591
27219W        W43693   5.011   2.605  14.630  0.0122  0.0490  0.1703
27220W        W43694  16.004   9.661   0.898  0.0240 -0.0737  0.0230
27221W        W43695   8.571  12.514  12.932 -0.1419 -0.0291  0.0885
27222W        W43696  12.203  14.383   0.649  0.1833 -0.2162 -0.0581
27223W        W43697   6.350   2.087   1.908  0.2132  0.1154 -0.0443
27224W        W43698  13.967   8.343   1.500  0.1047  0.1625 -0.0815
27225W        W43699   8.411   7.394   1.030 -0.1152  0.0748  0.2083
27226W        W43700  15.588   0.666  15.176 -0.0236  0.0007 -0.0341
27227W        W43701   8.844   5.743  14.321  0.0877 -0.2390 -0.0555
27228W        W43702   1.007   8.536   0.343 -0.1420  0.0270 -0.1657
27229W        W43703   2.703   3.389  11.228  0.0720 -0.3930 -0.2882
27230W        W43704   7.452  14.150  12.840 -0.0170 -0.0881  0.0209
27231W        W43705  10.258   9.901   3.333  0.1059  0.0750  0.3486
27232W        W43706  11.060  14.199  16.151  0.0826  0.0999 -0.0036
27233W        W43707   7.042   0.119   3.763  0.3756  0.3720 -0.0630
27234W        W43708   8.192  16.482  14.736 -0.2059 -0.0123  0.1692
27235W        W43709   5.953  15.165   3.940  0.0036 -0.2725 -0.0236
27236W        W43710  16.225   5.603   0.178  0.2672 -0.0418 -0.0870
27237W        W43711  12.399   5.097  15.516  0.1185  0.2506 -0.0249
27238W        W43712  14.750   8.424   4.341 -0.0919 -0.1303  0.0049
27239W        W43713  16.496   3.553  13.462 -0.1962 -0.2132  0.1937
27240W        W43714   5.750   9.422   1.234  0.1046 -0.1458 -0.0345
27241W        W43715  15.825   0.652  12.812  0.1898  0.0036  0.0514
27242W        W43716  10.274   5.698   4.119 -0.0578 -0.0501  0.0961
27243W        W43717  11.963  14.932  15.600 -0.0430  0.3679 -0.0641
27244W        W43718   9.912   3.422  14.188 -0.4283  0.2815  0.0513
27245W        W43719   9.568   1.415  15.686 -0.1754 -0.1842  0.3872
27246W        W43720  11.876   3.026   5.091 -0.3386 -0.2330  0.1312
27247W        W43721   7.593  17.000  15.934  0.1706  0.2435 -0.1560
27248W        W43722  15.927  15.321  12.116 -0.0729 -0.3994  0.0150
27249W        W43723   3.634   6.107  12.819  0.0227 -0.0399  0.4324
27250W        W43724  13.386  17.037   3.732 -0.1150  0.1210 -0.2573
27251W        W43725   6.982   7.567  13.433  0.2047  0.0441  0.0441
27252W        W43726  14.307  10.473   2.943 -0.2127 -0.0556 -0.1131
27253W        W43727   3.592   5.348   0.732  0.1644  0.2101  0.1932
27254W        W43728   6.991  13.729  16.212  0.0634 -0.0951  0.1205
27255W        W43729  10.201   4.153  11.748  0.1055  0.0756 -0.0276
27256W        W43730   3.202   4.831  14.608  0.2276 -0.1621 -0.0442
27257W        W43731   4.757  13.686   1.731 -0.3041  0.0542 -0.0808
27258W        W43732   1.332   1.637   5.565 -0.0944  0.0408  0.2922
27259W        W43733  16.277   7.697   0.329 -0.0536  0.0852 -0.1543
27260W        W43734  12.687   7.190   5.181 -0.1980  0.1804  0.1424
27261W        W43735  13.338   1.650  13.152 -0.0795 -0.1636 -0.1715
27262W        W43736  17.612   9.531  14.923  0.0513  0.0630  0.1949
27263W        W43737  10.480  10.842   5.107 -0.0700 -0.3845  0.0129
27264W        W43738  15.087   6.510  13.238 -0.2145 -0.0062  0.0945
27265W        W43739  10.959  14.344   3.612 -0.1567  0.0509 -0.0199
27266W        W43740   8.037  16.872  13.695  0.0630 -0.1795 -0.3009
27267W        W43741  17.005  16.593   5.737 -0.2824  0.2363  0.1191
27268W        W43742  14.180   0.703  14.896  0.0708 -0.0281 -0.1848
27269W        W43743  14.629   7.014   5.080  0.0691  0.1987 -0.1407
27270W        W43744  15.278  18.144  15.600 -0.2156 -0.4742 -0.1380
27271W        W43745  12.197   6.730  16.255  0.1040 -0.1801 -0.1892
27272W        W43746   8.485   0.392   5.006  0.0903  0.0606  0.1484
27273W        W43747   0.794  15.662   0.847  0.3889 -0.0484 -0.1843
27274W        W43748   2.596   1.217   1.642  0.3750 -0.3516  0.2560
27275W        W43749   0.810  10.123  11.616  0.0279  0.1361  0.0165
27276W        W43750   3.415  14.662   2.388 -0.1478  0.0130  0.1583
27277W        W43751  12.984  14.256   1.892 -0.0790 -0.3286  0.1678
27278W        W43752  14.314  10.314  16.246  0.3340 -0.2164 -0.2025
27279W        W43753  15.549   3.031  13.626  0.0416 -0.0580  0.2854
27280W        W43754   8.809  13.248   4.553 -0.1914  0.1735 -0.1257
27281W        W43755   3.380  13.585  12.147  0.2624  0.0840  0.0506
27282W        W43756  12.563  10.041  15.942 -0.2980  0.1140 -0.1344
27283W        W43757  14.599  12.434  11.407  0.1459 -0.1707  0.1090
27284W        W43758  14.600   1.426   0.030  0.0416 -0.0248  0.2879
27285W        W43759   9.405  15.385   2.938 -0.2476 -0.0500  0.2434
27286W        W43760  16.629   4.597  11.527  0.0682  0.1112  0.0237
27287W        W43761   4.829  15.540  16.181  0.1528  0.0322  0.0105
27288W        W43762  11.315  17.593   0.885  0.1125 -0.0451 -0.0364
27289W        W43763   5.077   4.783   2.904 -0.1993  0.0387  0.0785
27290W        W43764  13.308   7.675  12.109  0.3455  0.0828 -0.2670
27291W        W43765  12.965   0.132  14.043  0.4015 -0.0422 -0.1628
27292W        W43766   4.201  17.630   4.211 -0.1719  0.0354 -0.1374
27293W        W43767  15.240  12.271  12.033 -0.0803 -0.4648  0.0536
27294W        W43768   3.089   3.870  14.509  0.1484  0.0754 -0.0230
27295W        W43769   7.254   2.267  10.447  0.0402 -0.1682  0.0587
27296W        W43770   9.185  13.798  11.701 -0.2985  0.1101 -0.2890
27297W        W43771  15.716   0.903  13.289  0.0237 -0.0293 -0.0740
27298W        W43772   5.160   1.715  16.135 -0.0112  0.0970  0.1024
27299W        W43773   1.773   8.309  16.344 -0.2246  0.0699 -0.1629
27300W        W43774   0.751   9.171   4.509  0.0216  0.0156  0.2263
27301W        W43775  16.058  10.739  11.972 -0.1511 -0.0096  0.2525
27302W        W43776  11.005  17.774  13.351 -0.1475  0.2514 -0.0311
27303W        W43777  14.317   4.524  15.890  0.0381  0.2627  0.0214
27304W        W43778   2.084  13.802  13.943 -0.1838 -0.0395  0.2423
27305W        W43779  12.528   6.383  12.747 -0.0438  0.0669  0.0283
27306W        W43780   3.771  10.010  15.225 -0.1095  0.2094  0.0521
27307W        W43781   8.579  11.020   5.249  0.4027 -0.1487  0.0137
27308W        W43782   8.990   5.334   4.375 -0.1883  0.1312  0.0135
27309W        W43783  12.950   7.131   1.982 -0.1954  0.0912 -0.1028
27310W        W43784   8.620   5.303  14.169  0.0158  0.0235  0.5058
27311W        W43785   5.084  14.321  12.417  0.1147 -0.1621 -0.0286
27312W        W43786   7.064   1.509  11.988 -0.1757 -0.2023  0.0799
27313W        W43787   8.935   7.025   1.642 -0.2393  0.0540  0.2912
27314W        W43788  11.440  13.694  14.464  0.0792  0.1595  0.0341
27315W        W43789  14.697   0.594   4.794  0.1080 -0.1422  0.0591
27316W        W43790  15.725   9.475   5.848 -0.1396 -0.0892 -0.1584
27317W        W43791   4.115   6.680  14.627  0.2023 -0.1361  0.2341
27318W        W43792  14.852  14.562  11.969 -0.1211  0.1929  0.2767
27319W        W43793   4.309  12.667   5.851 -0.0703 -0.3113  0.1819
27320W        W43794  17.838   4.163  14.644 -0.2215  0.0783 -0.1665
27321W        W43795  10.400   2.902  10.936 -0.0345 -0.1125 -0.2928
27322W        W43796   0.944   1.931  15.166 -0.2865 -0.0530  0.1416
27323W        W43797  13.743  10.570  14.131 -0.2054  0.2262  0.1406
27324W        W43798  10.040   0.061  16.250 -0.0014  0.3506 -0.0097
27325W        W43799   6.160   6.462   3.299  0.0072 -0.2845 -0.0199
27326W        W43800  12.663   5.916  14.974 -0.2713  0.0393  0.0989
27327W        W43801   0.119   9.860   5.775  0.0595 -0.0083  0.0084
27328W        W43802   7.536  14.339   4.027  0.0302  0.0273  0.2623
27329W        W43803   8.049   1.628   0.391 -0.0497 -0.0710 -0.0135
27330W        W43804   6.669  16.012   0.888 -0.0736 -0.1133  0.2150
27331W        W43805  10.998  11.629   0.641 -0.1091 -0.3555 -0.0171
27332W        W43806  12.942   3.123   5.070  0.1566  0.2318  0.0306
27333W        W43807   6.646   4.303  13.628 -0.0472  0.0556  0.0183
27334W        W43808   4.797   2.544  14.112 -0.1030  0.2562  0.3117
27335W        W43809  13.549  11.685   0.669 -0.2652  0.0842  0.1520
27336W        W43810  14.066  11.296   4.196  0.0870 -0.1296  0.0943
27337W        W43811  15.167  17.752   5.471 -0.1429  0.0226  0.1526
27338W        W43812   7.744  15.926   6.369 -0.0517  0.1904  0.0987
27339W        W43813  15.853   4.648   1.809  0.2047  0.1391  0.3722
27340W        W43814  17.726   5.685   0.400 -0.0500  0.0524 -0.2653
27341W        W43815   5.835  10.205  10.921  0.1572  0.0358 -0.0423
27342W        W43816   6.140  13.803   3.935  0.0499  0.4118  0.2644
27343W        W43817  13.096  17.189   4.413  0.1063  0.0832 -0.1785
27344W        W43818  14.800   1.851  12.701  0.0681 -0.0243  0.0144
27345W        W43819  12.339  17.897  12.336  0.3545 -0.2706 -0.0800
27346W        W43820   2.048   2.356   4.748  0.2258 -0.1251  0.0062
27347W        W43821   5.269   2.403   5.181 -0.2256 -0.0372 -0.2715
27348W        W43822  11.128   9.977  12.213 -0.1745  0.2571  0.3523
27349W        W43823  14.658   3.077   2.522 -0.1098 -0.1350  0.2311
27350W        W43824   6.412  12.144   3.037 -0.1636  0.1356 -0.0565
27351W        W43825  11.354   9.108   3.731 -0.1317 -0.0134 -0.3088
27352W        W43826   5.291   7.342   4.771 -0.1617  0.0110  0.1175
27353W        W43827   5.043  10.426   4.169  0.1508 -0.2470  0.0988
27354W        W43828   0.797   9.934   1.203  0.0031  0.2524 -0.0734
27355W        W43829  16.348  11.451  11.993  0.0092 -0.2659 -0.0936
27356W        W43830  15.513   2.442   3.649 -0.0254  0.2590  0.0540
27357W        W43831  12.342   1.463   4.930  0.1337  0.1223  0.0539
27358W        W43832   8.178  10.668  12.002  0.2849 -0.1160 -0.3573
27359W        W43833  17.693  15.976   4.142  0.2320 -0.2843 -0.2832
27360W        W43834   1.211   0.315   2.730  0.3029 -0.1140  0.2569
27361W        W43835  11.424   5.004   3.189 -0.1160 -0.2276  0.0148
27362W        W43836  13.999  16.889  12.544  0.1229 -0.1138 -0.0412
27363W        W43837  11.713   1.919  15.209 -0.1245  0.1655  0.0358
27364W        W43838   5.719   5.126   2.093 -0.0506  0.0710 -0.1061
27365W        W43839   7.693  17.753   0.253  0.0565 -0.0382  0.2050
27366W        W43840   6.446   6.300  11.406  0.2342  0.1943 -0.0011
27367W        W43841  16.165   4.079  14.498 -0.0085 -0.2107  0.1288
27368W        W43842  16.889  12.349  15.073 -0.0418 -0.0736  0.0220
27369W        W43843   3.092   5.466   2.577 -0.0553  0.1477  0.0104
27370W        W43844   8.314   2.843   1.036  0.2549  0.1715  0.0589
27371W        W43845   8.482  10.254   4.891  0.2236  0.1327  0.3088
27372W        W43846   2.715   7.134  15.613 -0.0985 -0.0751  0.0027
27373W        W43847   0.723  12.994   3.881  0.1458 -0.0512 -0.0470
27374W        W43848   9.320  12.694  14.644  0.1761 -0.0027 -0.0487
27375W        W43849   9.773  17.888   4.455 -0.0796 -0.2032 -0.0439
27376W        W43850   4.531  17.435   0.256  0.2015  0.1342 -0.0281
27377W        W43851  12.084  17.297   0.908 -0.0052 -0.0379 -0.0586
27378W        W43852   0.521  16.976   0.283  0.2537 -0.2216  0.0006
27379W        W43853   7.029   8.052  11.971  0.3050  0.1578 -0.0707
27380W        W43854  13.284  13.897  15.408 -0.1469  0.0155  0.1810
27381W        W43855  15.322   7.844   0.436  0.0428 -0.2002 -0.1047
27382W        W43856  16.864   7.918  15.820  0.1681  0.1492  0.0013
27383W        W43857  17.921  10.141   3.391 -0.0391 -0.3102 -0.1521
27384W        W43858   2.444   5.283   5.832 -0.1581  0.2353  0.2012
27385W        W43859  14.538  13.695  14.398  0.0428  0.1124 -0.2676
27386W        W43860  13.662  15.149  12.317  0.2638  0.0920 -0.0779
27387W        W43861  14.229  17.522  16.083  0.1359  0.2349  0.0987
27388W        W43862  18.091  17.432   2.361  0.4463 -0.3171 -0.1834
27389W        W43863  12.040   1.167  14.995  0.0853  0.1488 -0.0997
27390W        W43864   2.763  10.939  14.406  0.3935  0.0939  0.1784
27391W        W43865   5.269   5.440   4.363 -0.2147 -0.1215  0.0565
27392W        W43866  17.563   1.540  12.135 -0.1435  0.1270 -0.0918
27393W        W43867   5.279   5.625  13.158  0.4486  0.1581 -0.0757
27394W        W43868   9.606   2.388  14.237 -0.0059 -0.1197 -0.1756
27395W        W43869   3.790   3.746   0.177  0.2873 -0.0278 -0.0863
27396W        W43870  11.854   1.854   1.627  0.2342 -0.0182  0.2948
27397W        W43871  10.532  10.461  14.545 -0.1093  0.2190  0.2123
27398W        W43872   0.888  14.731  12.667 -0.1058  0.0119 -0.1781
27399W        W43873   3.634   2.976   3.269 -0.0495  0.0690  0.0038
27400W        W43874  18.033  17.231   5.221 -0.1493 -0.1673  0.1229
27401W        W43875   6.140   9.833   3.247 -0.2093  0.0397 -0.4010
27402W        W43876   1.313  14.856  15.921  0.2154  0.0606 -0.1610
27403W        W43877  12.842  16.464  13.314  0.1476  0.2879 -0.0425
27404W        W43878   0.338   1.103  13.448 -0.0249  0.0819  0.0813
27405W        W43879   9.071   0.654  11.888  0.2593 -0.0094 -0.0382
27406W        W43880  12.537  14.357  15.208 -0.1191  0.0505  0.0594
27407W        W43881  11.001  12.822  10.819  0.1241 -0.1454  0.3213
27408W        W43882   8.096  17.666   6.480 -0.2217  0.1919 -0.1528
27409W        W43883   1.206   2.265   1.685  0.1105 -0.2963 -0.0558
27410W        W43884  17.875   2.439  14.765 -0.0688  0.1385  0.1379
27411W        W43885  11.674  12.227   4.831  0.2697  0.0458  0.2761
27412W        W43886   1.203  10.803   4.155 -0.0907  0.0059  0.2973
27413W        W43887  16.666   9.097  12.997  0.2606 -0.0175 -0.1311
27414W        W43888   1.616  10.208   5.243 -0.0157  0.0042  0.0028
27415W        W43889  17.299   2.379  12.593  0.1246  0.0071 -0.1681
27416W        W43890   2.482  16.558  11.924 -0.5874  0.1317  0.0614
27417W        W43891  14.149  14.271   0.771  0.0798 -0.0008  0.0767
27418W        W43892   5.822   6.287   3.622 -0.1332 -0.0284  0.2304
27419W        W43893  14.337  15.246  16.309  0.0788  0.0311  0.3044
27420W        W43894  16.677   2.328  11.029 -0.2355  0.3279  0.0302
27421W        W43895   8.812  16.134  12.681  0.3341  0.1818  0.0307
27422W        W43896   8.081   0.546  11.809  0.1989 -0.0239 -0.0896
27423W        W43897   0.948  16.083   5.062  0.2291 -0.1072 -0.2542
27424W        W43898   7.237   0.608   6.523  0.1151 -0.0093 -0.2195
27425W        W43899   5.874   0.029   4.760  0.2751  0.1480 -0.2242
27426W        W43900   5.741   2.521   5.127  0.0585  0.0581  0.0312
27427W        W43901  16.757   2.898   1.883  0.0742 -0.1115  0.0349
27428W        W43902   2.095  15.612   3.812  0.3981 -0.0325  0.0117
27429W        W43903   8.820  15.252  13.012  0.1943 -0.0310 -0.0825
27430W        W43904   9.550   1.997   6.465  0.0908  0.0043 -0.1239
27431W        W43905   6.980   0.096   5.361  0.0730 -0.3237 -0.0302
27432W        W43906  15.755  17.595   2.433 -0.1259 -0.1189 -0.0692
27433W        W43907   2.126   5.240   2.929 -0.0112  0.1202 -0.2639
27434W        W43908  11.463  12.062   5.691 -0.0572  0.2412  0.0052
27435W        W43909   0.590   0.917  11.156  0.1462 -0.2652 -0.0580
27436W        W43910   0.023   1.230  14.290  0.1671  0.0861  0.1615
27437W        W43911   0.135  13.756  11.922 -0.0546  0.3577  0.1510
27438W        W43912   8.407  11.705  16.331 -0.0618  0.1910 -0.1539
27439W        W43913  15.515  11.370  15.781 -0.1506  0.0830  0.3631
27440W        W43914   7.433  17.660  15.617 -0.2512 -0.1241 -0.0749
27441W        W43915   5.110  11.699  15.648  0.3174  0.1979 -0.2988
27442W        W43916   6.515  13.661  14.179  0.1637 -0.0061  0.2802
27443W        W43917  17.473   3.942  11.261 -0.3471 -0.0513 -0.2195
27444W        W43918  13.456   7.096  15.959 -0.1500 -0.1627  0.0982
27445W        W43919  12.915  11.325  14.045 -0.1939  0.0646  0.1714
27446W        W43920  13.685   2.100   5.065  0.1897  0.0282 -0.1390
27447W        W43921   5.966  17.377  13.901  0.1983 -0.0213  0.3168
27448W        W43922  10.693  14.906   0.177  0.1244  0.2927  0.1365
27449W        W43923  12.830  11.006   0.953 -0.0179  0.2697  0.0037
27450W        W43924   9.518   3.589  13.009  0.1252  0.2338 -0.1388
27451W        W43925  13.617   7.445  14.914 -0.1783  0.2404  0.0290
27452W        W43926  12.047  13.343  15.651 -0.1201  0.0927  0.0171
27453W        W43927  13.214   8.777  13.161 -0.1595 -0.0465  0.0547
27454W        W43928  11.806  14.961   4.388  0.5164 -0.0232 -0.0410
27455W        W43929   6.252   2.106   1.361 -0.1988  0.1737  0.0021
27456W        W43930   7.729  15.505  15.166 -0.0433  0.1112  0.1127
27457W        W43931   8.250   5.700  15.593 -0.0834 -0.0265  0.0079
27458W        W43932   9.316  16.130   0.935  0.0586 -0.2544 -0.3306
27459W        W43933   0.354   0.130   4.205  0.1250  0.1655  0.0532
27460W        W43934   5.683  14.425   2.469 -0.1940 -0.0493  0.0645
27461W        W43935  10.844   7.827  13.201 -0.2746  0.1005  0.1849
27462W        W43936  11.567  12.777   4.629 -0.0618 -0.2104 -0.2252
27463W        W43937   0.910  17.677  14.526 -0.2316 -0.2335 -0.0794
27464W        W43938  12.867   4.268  12.100 -0.3186  0.0467  0.3668
27465W        W43939   0.081   2.185  13.072  0.2801  0.0658 -0.2202
27466W        W43940   1.182   9.330  12.223  0.0512 -0.0210 -0.2167
27467W        W43941   1.818   3.686   2.257  0.2509 -0.1788  0.2626
27468W        W43942  10.159   0.926  13.260 -0.2680 -0.0265 -0.2672
27469W        W43943   1.123   2.262   0.487  0.0187 -0.1832  0.2313
27470W        W43944  16.411  15.694  15.921 -0.0895  0.1576 -0.1419
27471W        W43945   1.725   9.953  15.870  0.0557 -0.3650 -0.1638
27472W        W43946   4.160   7.901   3.774 -0.0269  0.2766 -0.1645
27473W        W43947  16.490  13.513  12.057  0.2463 -0.1110  0.0467
27474W        W43948   2.497   6.655  15.390 -0.2083 -0.0972  0.0017
27475W        W43949  15.543   6.378   1.656 -0.0999  0.1160 -0.0976
27476W        W43950  18.110   2.939  12.337  0.0773  0.1003  0.0449
27477W        W43951  17.056  14.572   2.769  0.0707 -0.2115 -0.1043
27478W        W43952   8.444   1.731  14.576  0.2576  0.1142 -0.0467
27479W        W43953   4.609   5.389   1.694  0.3264 -0.2202  0.3666
27480W        W43954   5.083   6.073  12.287  0.0313  0.0489 -0.1166
27481W        W43955  10.045   2.225  11.848  0.2014  0.0614 -0.1675
27482W        W43956   4.466  13.831   0.773  0.0767 -0.2724 -0.1308
27483W        W43957  15.830  10.674   1.498 -0.1046 -0.0320  0.0650
27484W        W43958   1.527  16.882   0.126  0.0838  0.1254 -0.0578
27485W        W43959  13.491  14.774   0.640 -0.1272 -0.1694 -0.0097
27486W        W43960   1.647   0.521   2.741 -0.1626 -0.0606 -0.0459
27487W        W43961  11.862   1.702  15.852 -0.0052 -0.1915 -0.1635
27488W        W43962   7.581   7.211  11.701 -0.1950  0.2493  0.0578
27489W        W43963  16.306  14.375  10.727 -0.1772 -0.0167 -0.3365
27490W        W43964   3.917   8.671   1.690  0.2420  0.0112 -0.1269
27491W        W43965   7.262  10.478  11.727 -0.1300  0.1973  0.3946
27492W        W43966   7.647   1.396   4.928  0.2153 -0.0278  0.0436
27493W        W43967   3.962   9.219   4.905 -0.3949  0.3635 -0.2025
27494W        W43968  13.120  16.957  15.969  0.1929  0.0084 -0.1414
27495W        W43969  10.186   9.829   2.459  0.2526 -0.0698  0.0738
27496W        W43970   4.947   3.733   2.814  0.1829  0.0442 -0.0545
27497W        W43971   7.249  11.914   0.847  0.2232 -0.2102  0.0582
27498W        W43972   5.250   7.613  12.008  0.1063 -0.0800 -0.1043
27499W        W43973  18.112   6.538  14.626  0.0361  0.0636  0.0438
27500W        W43974  17.589   7.059   0.654 -0.1764 -0.0899  0.1597
27501W        W43975   2.792  14.171  16.018 -0.1014  0.0455 -0.2166
27502W        W43976  12.910  10.681   0.515  0.0585  0.2203 -0.3615
27503W        W43977  18.109  12.458   3.278  0.2808 -0.0973  0.0890
27504W        W43978   7.658  10.865  14.876  0.1828  0.0344  0.0492
27505W        W43979  17.126  10.761   3.107 -0.0354 -0.0879 -0.1065
27506W        W43980   9.559   6.799   0.843 -0.0198  0.2173 -0.2100
27507W        W43981  13.571  12.017   5.976 -0.0270  0.0585  0.1674
27508W        W43982  12.357   1.841   0.893 -0.0919  0.0660 -0.2103
27509W        W43983  13.980  11.434  11.778 -0.0525  0.0708  0.0152
27510W        W43984   0.911  15.579  11.319  0.2628  0.0155  0.0724
27511W        W43985  11.508   1.124   2.702  0.0771  0.1648  0.0003
27512W        W43986   9.783   5.824  13.959  0.1033 -0.0982 -0.0038
27513W        W43987  12.913   8.536   1.934 -0.3646 -0.1816  0.1113
27514W        W43988   1.354   7.679   0.716 -0.0826 -0.1102 -0.2411
27515W        W43989   6.496   7.855  15.497 -0.2595  0.0924 -0.0104
27516W        W43990  13.718  11.999  12.956  0.0055 -0.2415  0.0641
27517W        W43991   3.166   6.487   3.748  0.0357 -0.1682  0.5505
27518W        W43992   0.465   6.250   5.058  0.2807 -0.0402 -0.1465
27519W        W43993   2.931  18.007  12.834  0.1440 -0.2739  0.1385
27520W        W43994  15.958   7.013  15.993  0.0026  0.0989  0.2097
27521W        W43995  14.036  11.564   0.676  0.2791  0.0192  0.2542
27522W        W43996  18.043  18.142   3.033 -0.0045 -0.0029 -0.0524
27523W        W43997  16.446  14.147   2.553  0.0134 -0.4269 -0.3590
27524W        W43998  17.787   9.277  12.124 -0.2332 -0.3483  0.0265
27525W        W43999   7.291  12.632   1.580  0.1259  0.0127  0.0477
27526W        W44000   2.071  17.127  14.635  0.2800 -0.0807 -0.0693
27527W        W44001   6.374   4.448   2.198  0.3384  0.0022  0.0666
27528W        W44002   5.693   8.655  14.141  0.0207 -0.4385  0.3018
27529W        W44003   3.300   6.136   4.131 -0.0504  0.1919 -0.0919
27530W        W44004   1.502  11.971   1.281  0.4159  0.2230 -0.0361
27531W        W44005  10.633  17.377  15.509 -0.2518 -0.2608  0.0192
27532W        W44006  12.362   9.771  15.543  0.1208  0.0739  0.1109
27533W        W44007  12.478   5.788   2.841 -0.3083 -0.1300 -0.1555
27534W        W44008   4.166   4.240  16.028 -0.0284  0.2588  0.0091
27535W        W44009  13.593   2.229  14.461  0.1835  0.0272 -0.0124
27536W        W44010  11.406  16.051  14.985  0.2341 -0.2400  0.1215
27537W        W44011   6.463  10.248  14.302 -0.1407 -0.0458  0.0806
27538W        W44012   1.562   2.409   2.134 -0.0860 -0.1251  0.3660
27539W        W44013   0.810  12.501   5.894  0.0937  0.1430 -0.1137
27540W        W44014  15.457   4.487  11.980  0.1404 -0.1843 -0.1626
27541W        W44015  14.246   8.073  14.612 -0.0089  0.0213  0.0793
27542W        W44016   8.798  14.286   6.018 -0.1566  0.0486  0.3040
27543W        W44017   3.426   8.596   1.827  0.3236 -0.0285 -0.0878
27544W        W44018   7.125   4.134  13.747  0.0614  0.1551  0.0569
27545W        W44019   4.087  11.420   5.168 -0.0118 -0.0123 -0.1049
27546W        W44020  10.636  15.707   2.680  0.2817  0.1584  0.0425
27547W        W44021  15.488   4.506  14.514  0.1206  0.1499 -0.0151
27548W        W44022  14.651  10.096   4.840  0.0198 -0.2621 -0.0930
27549W        W44023  10.389  13.646   5.318 -0.0803 -0.2631  0.1782
27550W        W44024   0.500   7.991   4.463  0.0792  0.0522  0.0965
27551W        W44025  14.617   1.411   1.144  0.0876  0.0678  0.1074
27552W        W44026   2.772   8.206  12.845  0.0255  0.0335  0.0165
27553W        W44027   8.054   7.178  10.530 -0.2607 -0.2278  0.0716
27554W        W44028  10.139  15.378   0.593  0.1817  0.2633  0.4600
27555W        W44029  12.449   3.664   4.501 -0.2278 -0.1023  0.0506
27556W        W44030  12.923  13.495   1.546 -0.1164 -0.3201 -0.0145
27557W        W44031   7.005  18.154   0.703 -0.2715  0.0222 -0.2159
27558W        W44032   8.167   3.392  12.212 -0.0573 -0.0792 -0.0075
27559W        W44033   8.405   4.201   3.211  0.2196 -0.0184 -0.1483
27560W        W44034  10.868   3.157   2.187  0.2475 -0.1734  0.0501
27561W        W44035   3.617  13.995  15.025  0.1291 -0.1372 -0.1228
27562W        W44036   2.538  13.958   1.658  0.1130 -0.0380 -0.0115
27563W        W44037  14.833  15.822  12.517 -0.0730 -0.2158  0.0192
27564W        W44038   0.372   1.215   5.110  0.0791 -0.1063 -0.0699
27565W        W44039  17.748   3.808   9.830 -0.0656  0.2432 -0.2297
27566W        W44040   9.786  16.331  11.375  0.0611  0.1461 -0.2584
27567W        W44041   1.816   4.603   2.734  0.0942 -0.0552  0.1644
27568W        W44042   9.925  11.060   2.601  0.0329 -0.2425 -0.0087
27569W        W44043   8.900  14.613   4.574 -0.0096 -0.0802 -0.1317
27570W        W44044  12.442  16.736   4.100  0.0586 -0.2574  0.0648
27571W        W44045   3.204   9.418  13.260 -0.0386  0.1862 -0.1234
27572W        W44046  10.654   6.431   4.269  0.0935 -0.2835  0.0743
27573W        W44047   8.591  10.150   1.135  0.1687 -0.3555  0.3551
27574W        W44048   1.281   1.188   4.722  0.2282  0.0383  0.1599
27575W        W44049   1.900  12.582   4.726  0.1488  0.2567 -0.0681
27576W        W44050   6.213   7.243   0.933  0.2025 -0.0232 -0.0565
27577W        W44051   9.027   5.071   3.881 -0.0173  0.0139  0.0340
27578W        W44052  13.026  14.236  15.093  0.1664 -0.0842  0.2189
27579W        W44053  17.238   4.899   5.180 -0.0340  0.0564  0.0922
27580W        W44054  12.733   5.665   0.714 -0.2306 -0.2397  0.3995
27581W        W44055  17.526  14.865   5.088 -0.1509  0.1292 -0.1139
27582W        W44056  13.800   2.668  13.852 -0.1452 -0.0123  0.0455
27583W        W44057   8.794  16.752   5.774 -0.0920  0.1910 -0.1838
27584W        W44058   2.092  10.768   1.698  0.0072 -0.6745 -0.2088
27585W        W44059   1.267   9.183   4.417  0.1307  0.0020 -0.2200
27586W        W44060   6.874  15.933   5.215 -0.0700 -0.2605 -0.0733
27587W        W44061   5.594   5.387   2.504  0.0114 -0.2124 -0.2104
27588W        W44062  17.704   7.705   0.888  0.0066 -0.0855  0.1338
27589W        W44063   9.380   9.195   2.235 -0.0289 -0.1325  0.0685
27590W        W44064   3.917   5.542   0.209  0.1024 -0.1779  0.0085
27591W        W44065  13.695   7.096   0.904 -0.1414  0.1489  0.3190
27592W        W44066  16.308  16.474   4.984  0.1494  0.0392 -0.2106
27593W        W44067  10.038   0.756  12.832 -0.1978  0.2717 -0.0932
27594W        W44068   4.554   5.856   5.370 -0.1357  0.1230  0.4705
27595W        W44069   8.158  11.010   4.524 -0.2476  0.1252 -0.2148
27596W        W44070   6.476  17.411   0.535 -0.0478 -0.1011  0.1389
27597W        W44071  15.664  12.253  14.719  0.2773  0.5512  0.1696
27598W        W44072  10.695  13.105  16.151 -0.0248  0.0763 -0.4045
27599W        W44073  11.852  15.034   1.179  0.1475 -0.3110 -0.0018
27600W        W44074  10.865  16.606   4.930  0.1929  0.1039  0.0111
27601W        W44075   1.722  14.119   3.704 -0.1832  0.0149  0.1784
27602W        W44076  11.413   0.440  13.729 -0.1270  0.1110  0.4453
27603W        W44077  16.054  17.695  12.911 -0.1341 -0.4624 -0.3416
27604W        W44078   7.334   9.267  13.923 -0.1456 -0.2171 -0.1478
27605W        W44079  15.422   1.250   1.481  0.0275 -0.0113  0.2841
27606W        W44080  17.301   8.877   1.683 -0.1214 -0.1771  0.2081
27607W        W44081  10.843  11.864   5.069 -0.0467  0.2116 -0.1222
27608W        W44082  17.890   7.313   3.471 -0.1896  0.0302  0.1083
27609W        W44083   7.534   1.873   0.482  0.2139  0.2827  0.0273
27610W        W44084   2.807   7.357   4.167 -0.3100  0.2042  0.0539
27611W        W44085  16.697  16.884  12.052 -0.1015 -0.1728  0.1171
27612W        W44086   3.538   0.213  16.123 -0.2053  0.1866  0.1165
27613W        W44087  14.026   2.949   0.919  0.2420 -0.2323  0.0149
27614W        W44088  14.275   4.860  14.002  0.1091  0.2008 -0.3160
27615W        W44089   1.789   2.700   0.941  0.1380 -0.1594  0.2713
27616W        W44090   1.872  14.344  14.812  0.0362 -0.1050 -0.0629
27617W        W44091  10.741   9.014   2.204 -0.2095  0.0207 -0.1991
27618W        W44092  12.625  15.613   2.193  0.2543 -0.0586  0.1123
27619W        W44093   3.648   2.993  11.692 -0.2675  0.0166  0.1782
27620W        W44094  10.627  17.097   0.664  0.1918 -0.0636 -0.2623
27621W        W44095  14.406   1.800   2.666  0.0966 -0.1764 -0.1442
27622W        W44096   2.278   1.863   3.238  0.1602 -0.0112  0.0771
27623W        W44097   7.331   5.899  11.405 -0.0489  0.1920  0.5600
27624W        W44098   3.532   1.740  13.669  0.1804  0.1191  0.0275
27625W        W44099   3.373   0.833   3.725 -0.0520  0.1163 -0.0436
27626W        W44100   4.948   0.059   0.626  0.2170  0.0848  0.3321
27627W        W44101   8.789  17.837   5.433 -0.1653  0.2377  0.0199
27628W        W44102  11.473  10.709   1.609 -0.1644 -0.2257 -0.0890
27629W        W44103   1.159  17.689   0.992 -0.2066 -0.0327  0.1233
27630W        W44104  13.754   3.559   3.168  0.0030 -0.0020  0.3307
27631W        W44105   2.826   5.578   4.715  0.0439 -0.4627 -0.0220
27632W        W44106   1.836  16.431   4.820 -0.1033  0.1299 -0.1724
27633W        W44107   0.436   0.793   5.505 -0.2236  0.1922 -0.0511
27634W        W44108  18.178   0.531  13.177  0.0642 -0.1948  0.1894
27635W        W44109  12.281   6.233  16.206 -0.0347 -0.0082  0.4280
27636W        W44110   1.003  16.181  12.941  0.0596 -0.1535  0.1005
27637W        W44111   3.913   6.313  11.614  0.0752 -0.4951  0.0893
27638W        W44112   9.751   5.939   4.298 -0.1571 -0.1348  0.0738
27639W        W44113  17.421   7.203  14.592  0.4717  0.1633 -0.0080
27640W        W44114  17.394   2.580  15.684  0.0000  0.2346 -0.0341
27641W        W44115  13.538   3.993   4.357 -0.0741 -0.1106 -0.1950
27642W        W44116   7.962  14.382   3.490 -0.0260 -0.0701 -0.1675
27643W        W44117   1.564   2.339   0.276  0.0322  0.0928  0.1518
27644W        W44118  17.386   2.547  14.762  0.1204  0.3804 -0.1427
27645W        W44119   8.571  17.682  16.069  0.0127 -0.0125 -0.1350
27646W        W44120   1.213   9.352   0.085 -0.0559  0.1042  0.2069
27647W        W44121  17.731   4.870   5.167 -0.3966 -0.3039 -0.1117
27648W        W44122  16.523   8.697  12.108  0.0513  0.0252 -0.0859
27649W        W44123  12.096   2.174   1.202 -0.2191 -0.0762 -0.2578
27650W        W44124   8.355  13.224  12.660  0.1603  0.1026  0.0406
27651W        W44125  11.026  12.971  14.711 -0.3457  0.0581 -0.1954
27652W        W44126  12.625   4.861   5.131  0.3165 -0.2740  0.0102
27653W        W44127   5.028   0.087   3.382  0.0842 -0.0570  0.0337
27654W        W44128  14.765  12.180   2.952  0.0968 -0.2157 -0.1526
27655W        W44129   1.237  16.696  15.512 -0.0205  0.0280  0.3791
27656W        W44130   3.918  14.702  14.498  0.0292  0.0716 -0.0879
27657W        W44131  10.450  14.037   4.399 -0.2947  0.0079  0.0293
27658W        W44132  11.916   9.533  12.103 -0.2882 -0.2750  0.0854
27659W        W44133   8.421   0.945  12.934 -0.1323 -0.4103  0.1562
27660W        W44134  10.101   8.907   4.891 -0.2183  0.1581  0.0208
27661W        W44135  13.004   5.085   5.382  0.0819 -0.0211 -0.1163
27662W        W44136   3.085  11.290   3.109 -0.2809 -0.1073 -0.2973
27663W        W44137  13.090  11.562   1.365 -0.1362 -0.2165  0.1307
27664W        W44138   6.977   3.779   0.392 -0.1262 -0.2079 -0.1647
27665W        W44139   7.228   7.700  14.256 -0.0859 -0.0163 -0.1654
27666W        W44140   8.159   2.146   5.308  0.1297  0.1643  0.0276
27667W        W44141   2.211  15.848  14.337  0.0911  0.0111  0.0657
27668W        W44142  16.567   6.153  12.815 -0.0398  0.0160  0.1541
27669W        W44143   6.279  12.170  15.444  0.0042 -0.1227 -0.2277
27670W        W44144  16.751   0.443  15.418 -0.1434  0.1111  0.2706
27671W        W44145  14.267   6.214   2.055  0.0374 -0.1777  0.2856
27672W        W44146   7.824   0.648   1.491 -0.0352  0.1318  0.0061
27673W        W44147  17.722  17.535   1.258 -0.2419  0.1450  0.0945
27674W        W44148   9.775   1.229  14.007  0.3474 -0.0714 -0.0022
27675W        W44149   8.901  15.097  12.354 -0.0057 -0.0513 -0.1259
27676W        W44150   6.006   1.248   0.626  0.0838 -0.3322 -0.3086
27677W        W44151   2.336  17.150   5.838 -0.1080  0.3286 -0.1064
27678W        W44152   5.011   0.715  13.855 -0.1819 -0.2258 -0.3813
27679W        W44153  14.275   6.187   4.235 -0.1402  0.0033  0.1305
27680W        W44154  11.726   1.156  15.917 -0.0749 -0.0656 -0.0500
27681W        W44155   3.916   5.049  15.955 -0.3098 -0.0996  0.2194
27682W        W44156  10.292  10.040  16.065  0.1164  0.1808 -0.0763
27683W        W44157   5.343   4.517  16.191  0.3443  0.1504 -0.3641
27684W        W44158  15.976  12.529   5.528 -0.0364  0.1960 -0.1518
27685W        W44159   3.292   1.744  15.857  0.2273  0.2515 -0.0319
27686W        W44160   6.937   1.261   5.286  0.1507  0.2294 -0.2256
27687W        W44161  15.339   7.282   4.425  0.2108  0.1211  0.0062
27688W        W44162   6.026  11.448   3.692 -0.0423  0.3496 -0.2085
27689W        W44163  14.227   1.523  14.607  0.0980 -0.3179 -0.0743
27690W        W44164   8.636  15.107   1.396  0.0638 -0.3554  0.0725
27691W        W44165   2.062   6.308  11.596  0.4449  0.1151  0.0002
27692W        W44166  11.320   1.251   5.117 -0.1598 -0.0738 -0.1954
27693W        W44167  17.998  12.869   4.218  0.3703 -0.1985  0.2876
27694W        W44168   9.766   5.338  14.437 -0.0264 -0.0831  0.0997
27695W        W44169  17.342   5.377  11.592 -0.1670 -0.0909  0.1235
27696W        W44170   1.333   0.325   4.591  0.1375  0.0183 -0.0348
27697W        W44171   0.699   1.379  15.887 -0.5178 -0.0117 -0.0545
27698W        W44172  12.459  11.082   2.408 -0.1196  0.2044  0.0992
27699W        W44173  12.943   3.597   2.167 -0.1551  0.1296  0.0447
27700W        W44174   2.821  11.868  12.228 -0.1104  0.2303 -0.1097
27701W        W44175  17.238   3.642  15.013  0.1285  0.0756  0.1052
27702W        W44176   6.817   7.615  12.093 -0.1648 -0.2941 -0.2504
27703W        W44177   9.474   0.601   4.790 -0.0320 -0.2237  0.0373
27704W        W44178  17.434  14.050   0.518  0.0228  0.1920  0.3677
27705W        W44179  15.689   8.872   1.808  0.0311 -0.1334  0.0009
27706W        W44180   7.405   3.332   0.915 -0.0743  0.0984 -0.0157
27707W        W44181   5.875   1.825  11.240  0.0856  0.5816 -0.2157
27708W        W44182  14.074  16.993  12.049 -0.0559  0.0478 -0.0201
27709W        W44183   2.696  12.993   2.653  0.3847  0.2291  0.1107
27710W        W44184   5.525   8.608  11.278 -0.2950 -0.2318 -0.3233
27711W        W44185   6.526   2.089  12.412  0.0877  0.0882  0.1128
27712W        W44186   4.584  12.847  11.681  0.0475  0.0080  0.2682
27713W        W44187  13.229   4.664  12.209  0.2072 -0.1237 -0.2330
27714W        W44188   3.564  12.640   5.214 -0.1349 -0.0093 -0.0543
27715W        W44189   6.812   0.968  11.797 -0.0886 -0.0647  0.2504
27716W        W44190   3.812  13.548   4.240  0.1633  0.0199 -0.1372
27717W        W44191  12.064   3.056  13.141  0.1343 -0.0990  0.1134
27718W        W44192  10.008  10.337  14.617  0.2774  0.1538  0.0205
27719W        W44193  11.679  16.791   5.647 -0.1339 -0.1011 -0.1217
27720W        W44194  11.724  16.863  11.296 -0.2470 -0.1173 -0.0519
27721W        W44195  15.152   8.799  16.362 -0.0539 -0.1167 -0.1051
27722W        W44196   2.517  12.059   0.977 -0.0657  0.2535  0.1141
27723W        W44197  17.622   3.765   1.246  0.2923  0.1661  0.1572
27724W        W44198  12.908  15.291  14.936  0.2064  0.0407 -0.1130
27725W        W44199   3.294   4.767   3.556 -0.0039 -0.2939  0.3595
27726W        W44200  14.467  16.005   2.065  0.1710 -0.2420  0.1506
27727W        W44201  16.428  13.178   6.015 -0.2615 -0.4861 -0.1965
27728W        W44202  10.996  11.983   4.318 -0.2392  0.2133  0.0262
27729W        W44203   7.247  17.780   5.284  0.2061 -0.2013 -0.0882
27730W        W44204  10.171   8.180  15.787 -0.1210 -0.2781 -0.1030
27731W        W44205  14.310   6.148  14.517 -0.1756 -0.1291 -0.1036
27732W        W44206   5.637  13.278  13.826 -0.0200  0.1221  0.1173
27733W        W44207   5.990  16.768  14.068 -0.2250  0.0311  0.1298
27734W        W44208   4.144   4.817  13.162  0.1423  0.2056  0.0133
27735W        W44209  17.377  17.484  12.152  0.3867 -0.1332 -0.3563
27736W        W44210  14.929   9.819   2.701 -0.0525  0.3210 -0.0047
27737W        W44211  16.769  10.840  12.632 -0.4291  0.1402 -0.1145
27738W        W44212   1.599   8.923  15.583  0.1824  0.2855  0.0225
27739W        W44213   2.237   2.156  11.564  0.0476 -0.2002  0.1131
27740W        W44214   3.183   3.024  15.755 -0.2447  0.0079 -0.2372
27741W        W44215  17.683   6.996  14.168 -0.1014  0.0005 -0.2058
27742W        W44216   2.480  13.577  13.421  0.2726 -0.0951  0.0276
27743W        W44217  17.965  15.207   0.032 -0.0602  0.0925 -0.1132
27744W        W44218  14.998   2.473   3.626  0.3082  0.1384  0.2491
27745W        W44219   6.897  15.270  16.191  0.0249  0.0520  0.0513
27746W        W44220   8.764   8.211  12.360  0.1929 -0.1510  0.0148
27747W        W44221   2.744   5.838   1.768 -0.1599  0.0563 -0.1125
27748W        W44222  11.805  17.856  15.070  0.1757 -0.0882 -0.3421
27749W        W44223   4.932   9.404   1.518 -0.0976 -0.0213  0.0097
27750W        W44224   9.798  15.942   4.895 -0.0805  0.2120 -0.0302
27751W        W44225   8.071   2.294  16.212  0.1497  0.0480  0.1947
27752W        W44226  16.910   8.098  14.091 -0.2096  0.0314 -0.2056
27753W        W44227  11.463   3.376  15.336  0.0163  0.0445  0.1585
27754W        W44228   8.779   4.115  13.463  0.1375 -0.1768  0.2151
27755W        W44229  10.730  11.404  12.753  0.0794 -0.0865  0.0434
27756W        W44230  18.080   6.018  11.502 -0.1973  0.2545 -0.0833
27757W        W44231   3.613  11.837   0.809 -0.1955 -0.4094 -0.2342
27758W        W44232  16.888   1.720   5.160 -0.2120 -0.1250  0.0457
27759W        W44233  18.018   7.302   0.775 -0.1157  0.0741  0.0633
27760W        W44234  17.926  10.448   2.667 -0.0321 -0.0019  0.1404
27761W        W44235  14.636   3.205   4.241 -0.2291 -0.2940 -0.0449
27762W        W44236  10.880  14.118  13.099 -0.0823  0.1846  0.2614
27763W        W44237  10.525   8.198   0.327 -0.0254 -0.1042 -0.1876
27764W        W44238  17.123  17.472  15.302  0.0791 -0.3316  0.0344
27765W        W44239   2.837   5.148   2.265 -0.2082 -0.1275 -0.0200
27766W        W44240   4.284   3.611   2.036 -0.1139 -0.2841 -0.0894
27767W        W44241  14.643  13.738   4.359 -0.4523  0.1760  0.2725
27768W        W44242   2.855   0.840   0.708  0.1050 -0.0586  0.0206
27769W        W44243   5.208  13.147  15.150  0.0543  0.0707 -0.2574
27770W        W44244   7.022  14.813  13.519  0.3187 -0.0250 -0.2068
27771W        W44245   9.155   4.321   1.463 -0.1397  0.0023 -0.0848
27772W        W44246  17.447   4.847   1.013  0.3321  0.1344 -0.0068
27773W        W44247  15.522   0.240  13.026 -0.1770 -0.0240  0.2818
27774W        W44248  14.155  11.925  13.533 -0.1425  0.2551  0.2981
27775W        W44249   0.097   4.643  15.098  0.2201 -0.1955 -0.1026
27776W        W44250   6.209   0.538  11.369  0.1114 -0.2838  0.1199
27777W        W44251  10.245  16.936   5.693  0.1526 -0.0443 -0.1220
27778W        W44252   0.068   6.978  12.628 -0.0817 -0.0197 -0.1238
27779W        W44253   1.807  17.986   0.284  0.1576  0.1446 -0.0047
27780W        W44254   7.468  12.909  16.182 -0.2714 -0.0142  0.0826
27781W        W44255  13.928   1.319   0.311 -0.1016  0.1050  0.0481
27782W        W44256  13.714   8.303   4.411 -0.2709 -0.1598 -0.0083
27783W        W44257   2.976  18.023   0.812  0.0705  0.1251 -0.1277
27784W        W44258   5.983   1.125  16.020  0.0038 -0.0876 -0.1708
27785W        W44259   9.373   0.773   0.328 -0.2069 -0.2162  0.0615
27786W        W44260  13.603  16.432   5.076  0.0650  0.0814  0.1589
27787W        W44261  17.145  15.948  14.029 -0.0782  0.0582  0.1154
27788W        W44262   1.700   6.228   4.501  0.0617 -0.2370 -0.0961
27789W        W44263   8.554   2.113  14.869 -0.2834  0.2932  0.0556
27790W        W44264   0.339   0.569  13.523 -0.1786 -0.1272 -0.3017
27791W        W44265  11.221   2.819  11.370 -0.0199 -0.0392 -0.0467
27792W        W44266  13.001   5.274   2.574 -0.2300  0.1554 -0.3426
27793W        W44267  12.030   8.544   2.087  0.1717  0.1834  0.1772
27794W        W44268   6.151   1.809   3.400  0.0556 -0.2912 -0.2985
27795W        W44269   8.115  11.992  14.334  0.2268 -0.0739 -0.1275
27796W        W44270   9.053  14.618  12.232 -0.3868  0.0888 -0.0494
27797W        W44271   3.045   8.600  14.772  0.0722  0.1623  0.1362
27798W        W44272  17.990   5.099  14.457 -0.0682  0.2528  0.0336
27799W        W44273  14.493   0.947  13.176 -0.2508 -0.0177 -0.0693
27800W        W44274   4.902  15.065   2.003  0.0751 -0.2361 -0.2039
27801W        W44275   4.919  16.875  12.505  0.0023  0.1378  0.1445
27802W        W44276  17.428  17.446   1.756 -0.2553  0.2300  0.0336
27803W        W44277   7.681  11.268  16.351  0.1423  0.1032  0.1588
27804W        W44278  18.042  16.354  12.460  0.0133  0.0179 -0.1332
27805W        W44279  18.080   4.611   5.462  0.2813 -0.3838 -0.0311
27806W        W44280  12.054   7.617  14.552  0.0472 -0.0696 -0.0315
27807W        W44281  10.555   5.264  13.961  0.3555  0.0891  0.1786
27808W        W44282  16.284  12.806   2.501 -0.0250 -0.0190 -0.3565
27809W        W44283  10.660   7.750   5.897 -0.3847  0.1052  0.1278
27810W        W44284  10.164   1.346  10.957  0.3544 -0.1025 -0.1296
27811W        W44285   8.514   5.653   5.706 -0.0441  0.4115 -0.2688
27812W        W44286   8.437  11.655   3.744  0.4019  0.1318  0.0457
27813W        W44287  17.228  11.284   0.773 -0.0868  0.0401  0.1733
27814W        W44288   3.573   4.474  14.702  0.1919 -0.1896  0.2820
27815W        W44289   6.733  11.379  12.765 -0.0246  0.2062 -0.0020
27816W        W44290   9.688  17.381   2.482  0.0292  0.0988 -0.4286
27817W        W44291  15.809   5.560  13.125  0.1756  0.1089 -0.1198
27818W        W44292  10.472  15.699  15.994 -0.1229 -0.1130  0.2186
27819W        W44293  16.981  11.217   1.631  0.1156  0.0787 -0.3878
27820W        W44294  16.450   2.896   3.713  0.2604 -0.0933  0.0955
27821W        W44295   9.715   5.307  13.957  0.0432 -0.0640 -0.1843
27822W        W44296  12.506  13.551  11.724  0.0761  0.3456 -0.0313
27823W        W44297   0.816   0.519   0.993 -0.1790  0.1401  0.0234
27824W        W44298   4.507  17.703  12.745 -0.1525 -0.2277 -0.3024
27825W        W44299  15.380   0.717  12.245 -0.1438 -0.0174 -0.3339
27826W        W44300  11.041  13.819   2.870  0.5595  0.0426 -0.5933
27827W        W44301   3.973  16.469   3.169 -0.0018 -0.0146  0.3345
27828W        W44302   2.604  10.900   3.368  0.1962 -0.0941  0.0177
27829W        W44303  11.399   4.718   2.745 -0.1851  0.2686 -0.0056
27830W        W44304  12.412  13.819  15.761  0.0445  0.0682 -0.0664
27831W        W44305  15.417  15.814  12.008  0.1659 -0.0342 -0.0387
27832W        W44306  10.909   7.563  10.609 -0.1542  0.0599  0.0013
27833W        W44307   9.223   8.599  11.204  0.2144 -0.2896  0.2684
27834W        W44308   9.147  14.364  13.238  0.1736 -0.0393  0.2236
27835W        W44309   6.053   7.494   1.473 -0.2006 -0.0767  0.2481
27836W        W44310   2.161   6.936  16.197  0.0489 -0.0413 -0.2105
27837W        W44311   2.765   2.090  12.894  0.0968 -0.0967 -0.5022
27838W        W44312   5.027   5.347   0.104  0.2978 -0.0384  0.1810
27839W        W44313   0.685   4.470   1.967  0.2097  0.2050  0.1510
27840W        W44314   7.653   8.659  12.359  0.2127 -0.1179  0.1958
27841W        W44315   2.887   9.173  12.528  0.0058 -0.0686 -0.0354
27842W        W44316   0.608   5.918  12.047  0.3421 -0.4668  0.2069
27843W        W44317  17.455   5.913   4.505  0.0505  0.5422 -0.4745
27844W        W44318  16.676   7.435  14.193 -0.0913 -0.4151  0.2484
27845W        W44319   4.245  11.031   1.990 -0.0110  0.0400  0.2711
27846W        W44320   1.830  12.444  13.445 -0.4149 -0.4968  0.0530
27847W        W44321   8.836   9.477   5.419 -0.2339  0.1681  0.0314
27848W        W44322  17.521   6.679   1.795 -0.0782  0.1366  0.1702
27849W        W44323   9.202   8.350  12.213 -0.0863  0.1490 -0.1018
27850W        W44324   4.558  16.321  14.695 -0.2712  0.0953  0.5268
27851W        W44325  11.008  15.512   1.436  0.0160 -0.1946  0.2511
27852W        W44326  16.164  10.933   1.835  0.1056  0.3362 -0.1731
27853W        W44327   9.790   6.137   0.764 -0.2350 -0.2823 -0.0741
27854W        W44328   5.387  16.301  12.949  0.2559  0.2273 -0.0771
27855W        W44329   1.450   5.209   0.545 -0.1355 -0.3242 -0.1943
27856W        W44330  12.635  11.792   1.474 -0.1487 -0.3189 -0.6742
27857W        W44331   0.951  10.961  14.074  0.1107 -0.1451 -0.2376
27858W        W44332  16.788  15.391  11.711 -0.3302  0.2089 -0.0264
27859W        W44333   0.904  17.739  15.022  0.0917 -0.0776  0.0096
27860W        W44334  15.702  10.445  12.324 -0.1499  0.1044  0.0435
27861W        W44335   0.056   0.347  12.173  0.1927  0.1034 -0.0933
27862W        W44336   4.961   8.879   3.245  0.0001 -0.1425 -0.1453
27863W        W44337  12.350  10.877   1.234  0.1084  0.4499  0.3156
27864W        W44338   7.549  13.829   0.835 -0.0259 -0.0063  0.2838
27865W        W44339   7.792  17.050   1.080 -0.0919  0.0596 -0.1309
27866W        W44340   0.734   6.583  13.155  0.1249 -0.0235 -0.2249
27867W        W44341   1.936   7.739   4.604  0.0156 -0.1377 -0.2630
27868W        W44342   2.961   0.983   4.751  0.1578 -0.4820  0.0405
27869W        W44343   6.219  13.442   1.857 -0.1836 -0.1860 -0.1933
27870W        W44344  16.622   6.555  13.116  0.2160  0.0205 -0.0007
27871W        W44345   1.132  11.164   1.109  0.0559 -0.0853 -0.0040
27872W        W44346  12.101  14.181   3.343 -0.0327  0.0078 -0.1167
27873W        W44347  13.709   0.946   2.100 -0.2583 -0.2851 -0.0176
27874W        W44348  17.690   0.163   2.106 -0.1373 -0.5177 -0.1104
27875W        W44349   5.774  14.375  14.522  0.1311  0.0361 -0.4313
27876W        W44350   9.435  13.377  14.594 -0.0922  0.0893 -0.2359
27877W        W44351  18.111   5.544  11.753  0.3878 -0.1755  0.0190
27878W        W44352  15.465   9.753   2.882 -0.4099 -0.0150  0.1738
27879W        W44353  10.892  15.164  12.840  0.1434 -0.0595 -0.0558
27880W        W44354  13.764   0.243   5.256  0.0220  0.1890  0.0508
27881W        W44355   7.985   9.221   6.040  0.1481 -0.1213  0.0745
27882W        W44356  13.716  12.008   1.533 -0.1646  0.1878  0.0434
27883W        W44357  12.464  14.610  14.425  0.2981 -0.0917 -0.2803
27884W        W44358  17.409   0.642   4.556  0.0094 -0.3592 -0.2308
27885W        W44359   2.051  11.519  13.083  0.1096 -0.1198 -0.2164
27886W        W44360   6.100   0.843  12.894  0.1665  0.0936  0.2359
27887W        W44361  14.136   4.693   2.531 -0.0969 -0.1032 -0.2752
27888W        W44362  17.726  11.574   3.691 -0.0350 -0.1305  0.1296
27889W        W44363   9.940  11.398   0.887  0.2735 -0.1751 -0.1853
27890W        W44364   6.047  17.949  13.280 -0.0766 -0.0215 -0.2444
27891W        W44365  10.906   4.918   3.311  0.1088 -0.2137  0.5526
27892W        W44366   6.632   9.918   3.341 -0.5159  0.0712 -0.2006
27893W        W44367  15.111  14.684   2.973  0.1734 -0.3114  0.2334
27894W        W44368   3.500  15.149   5.041 -0.1074 -0.1255 -0.0075
27895W        W44369  14.144   7.548  12.837  0.1888  0.2686 -0.2824
27896W        W44370  16.979   5.238   2.539 -0.0491  0.0288  0.1870
27897W        W44371   0.516   7.990   3.479 -0.0771  0.2061 -0.0345
27898W        W44372  17.859   1.576   1.620 -0.2193  0.0702  0.1182
27899W        W44373   0.164   5.980  13.403  0.1804 -0.3518 -0.1434
27900W        W44374  16.133  13.972  13.428  0.3807 -0.0200  0.0140
27901W        W44375   0.394   7.393   4.704 -0.1581  0.1002 -0.0286
27902W        W44376  12.891   4.184  14.636 -0.1222  0.0051  0.0499
27903W        W44377   5.325   2.803  13.408  0.0721  0.0763 -0.0484
27904W        W44378   2.736   2.158  11.370 -0.2395 -0.4360  0.0390
27905W        W44379  17.659  11.043   5.153 -0.2190  0.3571 -0.2008
27906W        W44380   5.071   6.435  11.026 -0.3381 -0.0615 -0.0809
27907W        W44381  13.864  12.565  11.704  0.2291  0.1026  0.0345
27908W        W44382  14.182   1.301  15.725 -0.2379  0.0986 -0.0329
27909W        W44383   3.002   8.540  16.239  0.0060  0.1039  0.1603
27910W        W44384   8.086  11.665  11.965  0.1570  0.0038 -0.3655
27911W        W44385   6.863   8.638  14.786  0.0995  0.0338  0.2248
27912W        W44386   6.375   2.769  12.742 -0.0211 -0.1557 -0.0761
27913W        W44387  12.349  16.530   1.476  0.0882 -0.2537 -0.5315
27914W        W44388  11.336   5.000   5.539 -0.0081 -0.2575 -0.0905
27915W        W44389  14.572   6.572  14.408 -0.2731  0.1213 -0.2465
27916W        W44390   1.306   9.012  13.188 -0.2986  0.0880 -0.0206
27917W        W44391  10.548   3.860  12.458 -0.3371  0.0077 -0.0229
27918W        W44392   8.362  10.218   5.431  0.1321 -0.0275 -0.5456
27919W        W44393   8.374   4.473  11.927  0.1219 -0.3903 -0.0805
27920W        W44394  16.798  11.784  16.255  0.1179  0.1790  0.0204
27921W        W44395   5.793   6.514  15.866  0.2223  0.0892  0.2601
27922W        W44396   5.048   5.097  13.190 -0.0566  0.0822 -0.1679
27923W        W44397   4.151  17.032   3.456 -0.0336  0.2785  0.0682
27924W        W44398  10.682   5.939   3.919  0.3844 -0.0427 -0.1055
27925W        W44399   6.975   5.640  15.321 -0.0866 -0.2853  0.2584
27926W        W44400  15.809  14.361  10.792 -0.2590  0.0663 -0.1158
27927W        W44401   0.332   5.722   1.571 -0.2444  0.2778 -0.0193
27928W        W44402   0.198   7.551  13.803  0.1904  0.3551 -0.0893
27929W        W44403   4.216  10.551  14.761 -0.0666 -0.0088  0.0966
27930W        W44404   2.960   0.675  15.433  0.1596 -0.1895 -0.1037
27931W        W44405   7.111   9.611  13.293  0.0814 -0.2613 -0.5070
27932W        W44406  10.393  10.919  11.070  0.2411  0.2078  0.0878
27933W        W44407   1.215  14.782   5.017  0.0334 -0.1282  0.0282
27934W        W44408  11.201   7.829  13.931  0.1429  0.1119 -0.1541
27935W        W44409  13.958  14.338  12.335  0.1773  0.1338 -0.1641
27936W        W44410   2.746  10.486  13.254  0.0143  0.1237  0.1697
27937W        W44411  13.675  17.080   2.794 -0.0635  0.0740 -0.4384
27938W        W44412  16.524   1.133   3.537 -0.0064 -0.5711 -0.0719
27939W        W44413  15.014   6.451   3.991  0.0536  0.0164 -0.3089
27940W        W44414  17.221  11.755  15.916 -0.2068 -0.1424  0.0041
27941W        W44415  13.830  14.006   0.260 -0.1696  0.0688 -0.1081
27942W        W44416  14.679   7.548   3.888 -0.1865 -0.1362  0.1666
27943W        W44417  12.778   9.835   3.929  0.0612 -0.0449  0.0286
27944W        W44418   8.051  12.802  10.065  0.1461 -0.1221 -0.0337
27945W        W44419   8.439   4.969   2.645  0.1552  0.1523  0.1863
27946W        W44420  13.010   4.702  16.256 -0.2114 -0.1488  0.2659
27947W        W44421   2.836  17.951  12.298  0.3873 -0.3339  0.2269
27948W        W44422  10.154   1.941   4.709  0.0321 -0.0137 -0.0038
27949W        W44423  17.924   1.911  10.396  0.0034 -0.1443  0.2134
27950W        W44424  17.164   7.132  15.037  0.2168  0.3436 -0.0562
27951W        W44425  15.760  17.673   3.332 -0.1192 -0.3271  0.3862
27952W        W44426   7.681   9.323   5.604  0.0657 -0.0066  0.2913
27953W        W44427   1.383   4.006   0.345 -0.0513 -0.2794  0.4138
27954W        W44428   9.560   3.403  13.708 -0.2005  0.2750 -0.3299
27955W        W44429   1.293   3.251   2.951 -0.0161 -0.0278  0.3675
27956W        W44430  17.709   9.196  13.888  0.1932  0.0430 -0.2428
27957W        W44431   6.230  11.074   0.592  0.2533  0.1671 -0.0006
27958W        W44432  13.355  15.752   5.665 -0.1138  0.0769  0.0860
27959W        W44433   4.145  15.245  12.880  0.0533 -0.1366  0.0458
27960W        W44434  13.172  15.523   3.142 -0.0485 -0.0870  0.1647
27961W        W44435  17.578   0.422  14.265 -0.2263 -0.1382 -0.0912
27962W        W44436  12.701  14.759   1.215 -0.0461  0.0763 -0.0273
27963W        W44437   6.463  14.905   3.895  0.2481  0.3322 -0.1286
27964W        W44438  17.203  13.640   2.441 -0.2053  0.2817 -0.1192
27965W        W44439   1.073  10.283  13.665  0.0528  0.0333 -0.0829
27966W        W44440   8.551   3.418  11.890  0.1446 -0.0009 -0.0461
27967W        W44441  11.148  11.654  15.395 -0.2603 -0.0530  0.0174
27968W        W44442  16.850  14.343  14.412 -0.2693 -0.0569 -0.0223
27969W        W44443  13.109   9.383   1.956  0.3065  0.0288  0.3240
27970W        W44444   6.405   2.726   0.001 -0.3326  0.2165 -0.0631
27971W        W44445   3.973   7.024  13.243  0.2415  0.1411  0.0646
27972W        W44446   9.420  16.975   0.803 -0.1246  0.2127 -0.1862
27973W        W44447  14.951   6.663  11.193  0.3906 -0.0201 -0.2888
27974W        W44448  11.477  17.027  15.290 -0.2397  0.0186  0.3905
27975W        W44449  12.790   4.095   2.860  0.2794  0.1793 -0.1957
27976W        W44450  11.081  17.273   6.360 -0.0433 -0.1300 -0.0819
27977W        W44451   8.716   8.769  15.537 -0.2548  0.1160  0.0919
27978W        W44452   9.638   5.493   4.833 -0.0347 -0.0882  0.2007
27979W        W44453   3.078   2.214   3.746  0.0196  0.2572 -0.2450
27980W        W44454  11.110  16.134   3.511 -0.3175  0.0285  0.0599
27981W        W44455   6.732  11.251   5.602 -0.1692  0.1256  0.3626
27982W        W44456  10.771  13.226  13.091 -0.0766 -0.1074 -0.0485
27983W        W44457  15.780   8.111   3.795  0.0628 -0.0354  0.0526
27984W        W44458  11.239   0.137  10.697 -0.0947  0.2174 -0.3978
27985W        W44459  16.308  13.398  11.562 -0.0707  0.1532 -0.0380
27986W        W44460   2.909  16.143   1.987  0.0492  0.3723 -0.0728
27987W        W44461   0.852   9.571  11.605 -0.2389  0.2716  0.0951
27988W        W44462   9.294  15.925  12.523  0.1184 -0.2481  0.1004
27989W        W44463   2.760  10.478  12.781 -0.3618 -0.1958 -0.0419
27990W        W44464   7.820  16.791  13.223 -0.3826 -0.0721  0.1442
27991W        W44465  17.171  15.192  11.962 -0.2295  0.0521  0.0078
27992W        W44466   2.875  14.036   0.203  0.1511 -0.0160  0.1070
27993W        W44467   4.132   5.873   2.511 -0.1926 -0.0712  0.1279
27994W        W44468   5.763  13.342   4.803 -0.3481 -0.2759  0.1468
27995W        W44469  13.168   6.473  15.217  0.1422  0.0150 -0.0208
27996W        W44470   5.391   8.305  14.625 -0.1564 -0.2053 -0.2210
27997W        W44471   8.504   2.943  12.594 -0.0333 -0.0096 -0.5250
27998W        W44472   3.216   7.882  15.143  0.3284  0.1595 -0.0718
27999W        W44473  11.194   5.121  12.279 -0.1630  0.0368 -0.1348
28000W        W44474  15.965  10.315   3.906  0.0432  0.0307  0.1174
28001W        W44475   9.841   6.775   3.081 -0.1099  0.0497 -0.0331
28002W        W44476   8.759  15.527   5.172 -0.1719 -0.0403 -0.1485
28003W        W44477  16.874   1.456  11.624  0.1818  0.0483 -0.0026
28004W        W44478   3.317  10.274   5.331 -0.2531  0.1709  0.1958
28005W        W44479  15.859   5.586   1.987 -0.1970 -0.0053  0.0552
28006W        W44480   6.418  13.626  14.923 -0.1421 -0.2284 -0.1536
28007W        W44481  13.466   7.092  12.297 -0.1928  0.0458  0.2113
28008W        W44482  12.646  16.603  13.790 -0.0963  0.0189  0.2730
28009W        W44483  13.167   3.286  14.985 -0.3586 -0.1702  0.1526
28010W        W44484  14.640  10.951  13.273 -0.0111 -0.1543 -0.2284
28011W        W44485  10.358   7.011   1.053  0.0817 -0.0514  0.1256
28012W        W44486   0.731   7.677  14.005 -0.3576  0.3984  0.1872
28013W        W44487  12.955   7.506   3.618  0.0678  0.3986  0.0950
28014W        W44488  10.455  17.417   5.277 -0.1436 -0.0634  0.0107
28015W        W44489   4.796   8.370  14.448 -0.1626  0.0416 -0.1495
28016W        W44490   9.119  12.261  10.174  0.0307  0.1687 -0.0957
28017W        W44491  13.361   2.947  11.991 -0.3679 -0.1367  0.2847
28018W        W44492  13.959  11.355  12.837 -0.0890 -0.1118  0.0051
28019W        W44493  11.043  13.498   0.444 -0.0409  0.0216  0.2508
28020W        W44494   1.270   8.136  12.381 -0.0349  0.1430  0.0754
28021W        W44495  17.150  11.877  14.650  0.1622 -0.0738 -0.2701
28022W        W44496   5.752   1.709   4.707 -0.2519  0.0164  0.2550
28023W        W44497  15.496  10.081   3.718  0.0430  0.0838 -0.1024
28024W        W44498  14.591  17.796  16.311 -0.0367  0.0361 -0.1481
28025W        W44499  11.921  10.176   2.172 -0.1119  0.3996 -0.2746
28026W        W44500   1.572   0.099   3.755 -0.1761  0.4413 -0.0182
28027W        W44501  12.676   5.859   5.246 -0.1943  0.1418 -0.1772
28028W        W44502   6.756  10.403  13.908  0.1977  0.1252 -0.3258
28029W        W44503  17.977   9.861   4.729  0.1577 -0.1032 -0.0292
28030W        W44504  17.413   9.676   5.404  0.3957  0.0811 -0.0823
28031W        W44505   5.176   3.291   2.039 -0.0453 -0.1973 -0.0145
28032W        W44506  12.534   7.629   4.121  0.2118 -0.1154  0.3831
28033W        W44507  10.568   9.804   0.975 -0.2719 -0.1405  0.2938
28034W        W44508   6.208   9.652  14.847 -0.1769 -0.0152 -0.2255
28035W        W44509   8.771   0.576   1.494 -0.0654 -0.0485 -0.4513
28036W        W44510  16.226   9.991   5.526  0.0534  0.1173 -0.0177
28037W        W44511  10.756  12.939   3.661 -0.0118 -0.1062  0.3854
28038W        W44512  12.566   3.852  12.962 -0.1985 -0.0774 -0.0528
28039W        W44513   3.739  17.765   4.334 -0.1230 -0.0757  0.4872
28040W        W44514  13.633  14.015   5.947 -0.1762 -0.0898  0.0931
28041W        W44515  11.991   1.798  16.306 -0.2585  0.3763 -0.1841
28042W        W44516  11.841  12.261  13.821 -0.0460  0.1955 -0.0829
28043W        W44517  17.289  12.178   3.213  0.1015  0.1184 -0.1576
28044W        W44518  15.444   3.431  12.341 -0.3279 -0.0865 -0.1219
28045W        W44519   1.837  12.759   3.935 -0.5446 -0.2236 -0.1465
28046W        W44520   8.977   5.334  12.922 -0.1691 -0.3150 -0.1338
28047W        W44521  12.637  12.074   4.464  0.0802  0.1766  0.2614
28048W        W44522  13.137   1.404   1.390 -0.1518 -0.4447  0.2054
28049W        W44523  11.199   3.942  12.379  0.1083 -0.1068 -0.2308
28050W        W44524   4.252  14.351  14.584  0.2033 -0.0662  0.0443
28051W        W44525  15.292  17.231  12.078  0.0264 -0.2816 -0.3464
28052W        W44526  15.341   2.643   3.264  0.1485  0.0328 -0.1152
28053W        W44527  12.476   1.634  13.703  0.0567 -0.0122  0.2576
28054W        W44528   8.100   3.995   4.068  0.1328  0.2974 -0.0036
28055W        W44529   8.418   2.518   5.135  0.0224 -0.1567 -0.0644
28056W        W44530  15.003   6.071   3.637 -0.2138 -0.1134 -0.2221
28057W        W44531  11.916  14.151   5.980  0.6179 -0.0403 -0.3136
28058W        W44532   1.463   6.378   5.973  0.2463  0.2352  0.0663
28059W        W44533   2.781   7.010   0.705 -0.0422  0.1807  0.0700
28060W        W44534   6.093   0.461   4.353 -0.0666 -0.2421 -0.0780
28061W        W44535   2.444   4.148   4.924 -0.0525 -0.1781 -0.1690
28062W        W44536   6.680   3.480   3.091  0.0015 -0.0695  0.2836
28063W        W44537   8.433   4.371   0.585  0.1861 -0.4801 -0.2536
28064W        W44538   6.576  13.939  12.653 -0.0663 -0.0898  0.2800
28065W        W44539   2.992   0.026   1.803  0.1325  0.0797  0.0464
28066W        W44540  15.407   2.798  14.809  0.1283  0.1133  0.0806
28067W        W44541  12.157  16.483  15.198 -0.2291 -0.1884 -0.3436
28068W        W44542   7.371   4.086  14.601 -0.0995  0.2332  0.1127
28069W        W44543   3.137   5.256   1.398  0.3274  0.1579 -0.4441
28070W        W44544   1.864  14.413   3.328  0.3629  0.1631  0.1751
28071W        W44545   7.203  16.480   5.793  0.2823  0.2693  0.1201
28072W        W44546   8.795   4.743   1.195  0.1234  0.1947  0.3141
28073W        W44547  17.453   1.652   5.544  0.0485 -0.0732 -0.1175
28074W        W44548  10.773  15.416  15.288  0.0486  0.0309  0.2703
28075W        W44549  13.711   3.775  11.811  0.1971  0.0886  0.0304
28076W        W44550   7.878   3.239   3.431 -0.0645  0.0868 -0.0451
28077W        W44551  10.690   4.096   2.367 -0.0853  0.3000  0.1680
28078W        W44552   2.170  15.780   0.669  0.0807 -0.1591 -0.1130
28079W        W44553   7.307   9.343   0.523  0.4229 -0.2531 -0.1911
28080W        W44554  11.260   8.163  12.126  0.0582 -0.2020 -0.0734
28081W        W44555   0.733   3.610   2.138  0.2841  0.0101 -0.2012
28082W        W44556   4.264  14.785   0.853 -0.2330 -0.1790  0.0711
28083W        W44557  12.298   5.588  13.678  0.1525 -0.0238 -0.0766
28084W        W44558   1.919   2.662   1.809  0.0641  0.1353  0.1412
28085W        W44559   5.283  16.351   1.481  0.1297  0.2591  0.3684
28086W        W44560   5.365  14.758   1.626 -0.0969 -0.0298 -0.1020
28087W        W44561  17.504   2.355  13.817  0.0387  0.1566 -0.1456
28088W        W44562   5.276   8.356  14.044 -0.3829  0.2848  0.0317
28089W        W44563   0.485   4.754  15.414 -0.0752 -0.2116 -0.1493
28090W        W44564  13.337  16.426   2.293  0.0363 -0.1978  0.1153
28091W        W44565   9.526   8.769  13.291  0.0797  0.1525 -0.0530
28092W        W44566   1.236   7.834  16.105 -0.0861 -0.5316  0.0198
28093W        W44567  10.883  12.072  14.083  0.1348  0.0125  0.6445
28094W        W44568  17.597   7.159  13.215 -0.3590 -0.1647  0.3367
28095W        W44569   4.076   6.094  12.232  0.3032  0.1343 -0.0658
28096W        W44570  17.730   8.886  10.164  0.0855 -0.0309 -0.1989
28097W        W44571   4.057  14.337   1.410 -0.2091 -0.2968 -0.2603
28098W        W44572   6.782  11.160  12.261 -0.2002 -0.1620 -0.2381
28099W        W44573   1.979   8.471   4.709  0.1078  0.3424 -0.1211
28100W        W44574   7.553   4.034   0.945  0.1215 -0.1797 -0.0550
28101W        W44575  14.866  17.651   1.402 -0.2735  0.0759 -0.1464
28102W        W44576   5.927   1.937  12.291 -0.0127  0.2251 -0.2167
28103W        W44577   5.741  17.647   0.052 -0.0221 -0.0314 -0.2127
28104W        W44578   1.115   6.409   0.385  0.0784 -0.0736 -0.2912
28105W        W44579  15.676   8.317   4.293 -0.1142  0.0848  0.0338
28106W        W44580  12.524  10.630   2.764  0.1666 -0.1727  0.0201
28107W        W44581   8.657   2.194  13.816 -0.0826 -0.3161  0.1854
28108W        W44582  11.314  14.035  15.577  0.0255  0.1749 -0.1815
28109W        W44583   2.987  13.338  10.287 -0.0406  0.0355  0.0357
28110W        W44584  11.501   1.185  12.347  0.0510  0.1792 -0.0064
28111W        W44585  10.205  10.380  11.935 -0.1430 -0.4735 -0.1248
28112W        W44586  13.642   4.498   4.245 -0.1281 -0.0482 -0.0172
28113W        W44587  14.412   8.358  15.015 -0.1039  0.1475  0.0879
28114W        W44588   4.116  15.950   4.716  0.1925  0.0974  0.1022
28115W        W44589   7.678   0.605   3.061 -0.2840  0.0436 -0.0359
28116W        W44590  15.952   7.865  11.328 -0.1059 -0.2837  0.1585
28117W        W44591   9.802   5.642  10.076  0.3021  0.1624  0.3192
28118W        W44592   5.583  12.552   2.866 -0.1788 -0.0943 -0.0192
28119W        W44593  11.745   7.986  13.886 -0.1364 -0.1443  0.1907
28120W        W44594   8.777  11.577  11.103  0.2736  0.0588 -0.3284
28121W        W44595   3.390   1.024  12.464  0.3127 -0.0230  0.1705
28122W        W44596  14.707  13.606  15.919  0.4022 -0.0559  0.0795
28123W        W44597   5.885   5.859   0.212  0.0941  0.0983 -0.0941
28124W        W44598   1.069   7.287  15.759  0.1053 -0.1365  0.4069
28125W        W44599   7.066   6.511   3.632  0.0259  0.3965 -0.0241
28126W        W44600   6.793   7.338  14.982 -0.0893 -0.0321 -0.2236
28127W        W44601  15.050  12.273   2.015  0.0423 -0.0386  0.1884
28128W        W44602  14.869  13.973   4.740 -0.0285  0.1187  0.1543
28129W        W44603   3.508   1.378  14.802 -0.0631  0.2933 -0.2517
28130W        W44604  16.092   2.947   4.077 -0.1560 -0.3090 -0.2090
28131W        W44605   5.882  12.659   1.384  0.0239  0.3179 -0.2690
28132W        W44606   2.313   3.878   2.139 -0.2602  0.0447  0.0219
28133W        W44607   7.343   0.694   2.706  0.2425 -0.0327  0.0798
28134W        W44608  10.599   9.122   2.704  0.0495 -0.0402  0.0824
28135W        W44609  16.552   1.115  13.511  0.2073 -0.3594 -0.4027
28136W        W44610   7.916  16.738  12.699  0.1095  0.0181  0.3016
28137W        W44611   7.538  17.676   3.094 -0.3553  0.0475 -0.0420
28138W        W44612   4.586  15.747   1.444  0.3205  0.1143  0.0327
28139W        W44613   1.512  15.295  13.955 -0.0824  0.0446 -0.1040
28140W        W44614   2.639   2.694   3.384 -0.0760 -0.1152  0.4933
28141W        W44615  17.814   7.849  12.096  0.0191 -0.2518 -0.1560
28142W        W44616  16.353   5.989   3.627 -0.2273 -0.0918  0.1115
28143W        W44617   9.291   8.947   4.672  0.0909  0.1010  0.2110
28144W        W44618   1.724   0.338  15.806  0.1743  0.3348  0.2118
28145W        W44619   6.015   1.063   3.276 -0.0844 -0.2486  0.0273
28146W        W44620   5.781   3.714  15.099  0.0809 -0.0620  0.1552
28147W        W44621   3.246  11.572  10.843 -0.0246 -0.0067  0.0268
28148W        W44622   0.262   3.494  15.564 -0.0264 -0.0656  0.2041
28149W        W44623   9.919  10.093  15.053  0.5246 -0.0253 -0.2822
28150W        W44624  17.922   2.296   3.237  0.2829 -0.2917  0.2675
28151W        W44625  17.122  14.453  15.090  0.1108  0.3676 -0.0370
28152W        W44626  17.634  12.265   4.692  0.0840  0.2675  0.0540
28153W        W44627  16.159   4.961  12.454  0.0755  0.1282  0.0544
28154W        W44628  14.456   5.075   2.803  0.0499  0.2969 -0.1501
28155W        W44629   5.095   0.384   0.266  0.0035  0.1300  0.2968
28156W        W44630  12.662   0.639   1.352  0.0810 -0.4588  0.1473
28157W        W44631  11.981  12.998   1.759  0.1912  0.2204 -0.1635
28158W        W44632  18.136   3.917  13.475  0.0675  0.0822 -0.1634
28159W        W44633   9.192   8.482   2.852  0.1520 -0.0753 -0.2612
28160W        W44634  13.157   2.322  12.543  0.3627 -0.0359 -0.0334
28161W        W44635   1.591  18.028   2.169  0.1705 -0.2439 -0.1077
28162W        W44636   5.627  14.783   4.710  0.0754  0.1645  0.0392
28163W        W44637  13.235  15.737   3.627 -0.0763  0.1761  0.3981
28164W        W44638   8.624   9.510  12.803  0.1983  0.1356 -0.1255
28165W        W44639   2.355  17.560   3.839  0.1135 -0.0780  0.0023
28166W        W44640  13.924  17.410   5.900 -0.2380 -0.0287 -0.2176
28167W        W44641  12.056   2.527  14.047  0.1548 -0.1708 -0.0270
28168W        W44642  15.755   7.802  13.484  0.0194 -0.1789  0.0995
28169W        W44643  15.869  14.147  14.209  0.2199  0.2975 -0.1505
28170W        W44644  10.618  13.274   5.126 -0.2415  0.1288 -0.0995
28171W        W44645  11.621   9.053   3.336 -0.5018 -0.2876  0.1926
28172W        W44646  10.046  13.857   2.153  0.1841 -0.4434  0.0511
28173W        W44647  12.543   3.456  11.742 -0.3303  0.1863 -0.1717
28174W        W44648  10.548   4.597  12.718 -0.2786  0.0906 -0.0201
28175W        W44649  10.948  13.368  15.792  0.2734 -0.2395 -0.0459
28176W        W44650   3.829  11.412  11.893  0.0444  0.1984 -0.3055
28177W        W44651  13.043   9.856   2.371 -0.0178 -0.0760 -0.0409
28178W        W44652  16.450   6.075   4.529  0.1836  0.2265 -0.0984
28179W        W44653   9.260  15.241  12.739 -0.0665 -0.2561  0.1500
28180W        W44654  11.773   7.357   5.575 -0.1207 -0.0354  0.1827
28181W        W44655  13.985  14.124  13.370  0.0932  0.0511  0.2384
28182W        W44656   6.562  15.198   2.641 -0.3861 -0.1090  0.0065
28183W        W44657  16.132   3.971  15.002 -0.0061  0.1762 -0.0383
28184W        W44658  14.774   9.919   3.246  0.1536  0.0564  0.1275
28185W        W44659  11.883  10.869  11.787 -0.1141 -0.1184 -0.3561
28186W        W44660  12.959  11.792  16.115  0.3028 -0.0235 -0.0669
28187W        W44661   6.404  13.266  13.214 -0.1631 -0.0195 -0.1532
28188W        W44662   5.832  12.538  14.715  0.1494 -0.0287 -0.0716
28189W        W44663   5.199  11.765  14.315  0.3408 -0.0973 -0.0028
28190W        W44664  10.922  17.049  15.237  0.0285  0.1702  0.0433
28191W        W44665  10.060  12.509   5.823 -0.0196 -0.2415  0.0524
28192W        W44666  14.275   8.120  12.655 -0.2968  0.1802  0.1679
28193W        W44667   0.403  12.962  12.422 -0.0480  0.0009  0.0079
28194W        W44668  12.331  17.806   2.444 -0.1755  0.0645 -0.0044
28195W        W44669  15.576   5.090  14.598  0.0079  0.2152 -0.0384
28196W        W44670   9.376  10.531  14.547  0.1251  0.2394  0.2270
28197W        W44671  14.427   5.605  10.774 -0.0995 -0.0290 -0.2326
28198W        W44672  13.538   9.031  11.207 -0.0679  0.2393 -0.2388
28199W        W44673  15.695  10.084  15.214  0.3023  0.3049 -0.0377
28200W        W44674  12.972   2.318   1.368 -0.1190 -0.1496 -0.2401
28201W        W44675   3.950   5.737  12.985  0.1624 -0.0036  0.1621
28202W        W44676   1.991   5.563  14.468  0.0434  0.1786 -0.0782
28203W        W44677   8.999  10.833  14.761 -0.3266 -0.1495 -0.3459
28204W        W44678  17.990   7.512   5.616 -0.1560 -0.3981 -0.2081
28205W        W44679   6.339  13.461  16.190  0.3106 -0.0753 -0.2780
28206W        W44680   0.195  14.572   2.255  0.1419 -0.2001  0.0386
28207W        W44681  15.036   7.045  14.944  0.1818 -0.1271 -0.0814
28208W        W44682  14.284   8.223  16.305 -0.0252 -0.0328 -0.0168
28209W        W44683   1.030   0.513  14.159  0.2661  0.0884  0.0641
28210W        W44684  14.764  11.780   4.105 -0.2588 -0.0778  0.0229
28211W        W44685   5.816   4.884  12.841  0.0821  0.0508  0.5547
28212W        W44686  16.670   7.115   1.961 -0.0685  0.1335 -0.3621
28213W        W44687   6.531  15.933   4.846  0.0345 -0.1594  0.3426
28214W        W44688  17.308   3.905   2.792 -0.0983 -0.0758  0.0170
28215W        W44689   3.402  12.347  14.326  0.1775 -0.0418  0.0191
28216W        W44690   2.908  12.451  14.228 -0.0000 -0.1573 -0.0811
28217W        W44691  15.285   4.857  11.162  0.0959  0.4329  0.0547
28218W        W44692   2.748   4.905   0.751 -0.0966  0.1192 -0.1376
28219W        W44693  11.605  16.912   4.027 -0.1718  0.0105 -0.2742
28220W        W44694  16.706  15.845   4.427  0.1906 -0.1850 -0.0690
28221W        W44695  14.107  10.310  14.355 -0.2485 -0.2276  0.0631
28222W        W44696   5.361   8.910  16.273 -0.3429 -0.2019 -0.2492
28223W        W44697   0.374  14.423  13.352 -0.0482  0.1077 -0.2857
28224W        W44698   5.072  12.774   5.387  0.2461 -0.2125 -0.0957
28225W        W44699   4.659  15.562  12.840 -0.0928  0.1099 -0.0002
28226W        W44700  16.933  13.580  13.822 -0.1747  0.1131 -0.0635
28227W        W44701  17.615  15.306   3.309 -0.3520  0.0770 -0.1500
28228W        W44702   8.297   6.090   5.954 -0.0758 -0.1113 -0.3221
28229W        W44703   1.188  18.055  13.524  0.0506  0.0177  0.1398
28230W        W44704   7.293   8.200   2.216 -0.0424  0.2629 -0.1616
28231W        W44705  11.241  14.732   3.938 -0.2755  0.0802 -0.0773
28232W        W44706   2.801  11.109   0.734  0.0359 -0.0888 -0.1343
28233W        W44707  11.164   3.453   4.140 -0.1036 -0.0012  0.0002
28234W        W44708  15.335  14.774  14.592  0.0043  0.1826  0.0845
28235W        W44709   9.993  16.452   1.770 -0.2669  0.3892  0.1534
28236W        W44710  12.437   9.575  13.555  0.3252  0.0350 -0.3158
28237W        W44711  15.329  10.543  14.584  0.0726  0.0031  0.2192
28238W        W44712  13.235   1.709   3.689 -0.0046  0.2405 -0.0085
28239W        W44713   0.114  11.530   0.917 -0.0429 -0.3178  0.3356
28240W        W44714   8.864  14.783  12.806 -0.1064 -0.2470 -0.1327
28241W        W44715  12.068   6.009   1.823  0.0848 -0.0725 -0.0374
28242W        W44716   1.233   2.766   0.678  0.0984 -0.1262  0.3662
28243W        W44717  17.568  10.662   5.484  0.0418  0.2339 -0.0934
28244W        W44718  17.981   9.571   4.252  0.0982  0.0636 -0.3175
28245W        W44719   0.041   8.645  14.616 -0.0605 -0.1766  0.1684
28246W        W44720  16.181  14.926   2.206 -0.2089  0.1778  0.0968
28247W        W44721  10.527   4.781  15.462  0.0509  0.1326 -0.1381
28248W        W44722   0.484   4.590   3.567  0.0239  0.2760 -0.4375
28249W        W44723   6.876   9.845   3.964  0.0325 -0.1651  0.0447
28250W        W44724  14.749  14.186   3.664  0.1243 -0.1423 -0.1039
28251W        W44725  11.713   2.288  15.644  0.1269  0.1975 -0.2575
28252W        W44726   6.280   5.591   4.731 -0.0744  0.1648 -0.2589
28253W        W44727  10.563  17.715  11.544 -0.5018  0.1237  0.1069
28254W        W44728   5.964  12.265  14.186  0.0162 -0.1521  0.1605
28255W        W44729  12.851   0.162   2.894  0.1783  0.0470  0.1502
28256W        W44730   4.727   1.936   1.382  0.0346 -0.1433 -0.2071
28257W        W44731   9.069   7.971   2.658 -0.2978 -0.2871 -0.3006
28258W        W44732  12.006   0.883   3.444 -0.2522 -0.0880 -0.0716
28259W        W44733  17.651   3.732   3.217 -0.1928 -0.2140  0.0844
28260W        W44734   5.852  11.880  10.325 -0.0996  0.1136  0.1418
28261W        W44735   9.750  15.317  12.200  0.1734  0.1263  0.0259
28262W        W44736  11.439   2.272  13.684  0.0217 -0.1333 -0.1703
28263W        W44737  16.529   3.379   3.541  0.0396 -0.1376  0.1228
28264W        W44738   6.677   3.764   4.750 -0.2521  0.0863 -0.0943
28265W        W44739  14.429  17.254   0.779 -0.0822  0.1770  0.3150
28266W        W44740  18.157   1.638   0.348  0.2619 -0.1706 -0.0160
28267W        W44741  15.316   9.311   2.760 -0.0589  0.0714 -0.0680
28268W        W44742   9.979  16.195   5.284  0.1331 -0.1470  0.0808
28269W        W44743   2.532   8.774   0.144  0.1606 -0.1004  0.2375
28270W        W44744   4.824   0.654   0.590  0.0522 -0.4955  0.2041
28271W        W44745   2.461  17.449  11.709  0.1539 -0.1752  0.2240
28272W        W44746   2.722   6.619  11.895  0.0717  0.0818  0.0784
28273W        W44747  10.835   3.276   3.824  0.1685  0.1871 -0.3249
28274W        W44748   0.021   6.699   2.828  0.0246  0.3371  0.0836
28275W        W44749  18.040  14.845   3.192 -0.0601 -0.1168 -0.1549
28276W        W44750   6.799   4.169  15.161  0.1614  0.0232 -0.1303
28277W        W44751  14.028   5.482   3.783 -0.0890 -0.0920 -0.0749
28278W        W44752  14.739  14.915   1.461 -0.2099  0.0012  0.1153
28279W        W44753  13.628  16.068   3.511  0.0280  0.2749  0.0289
28280W        W44754   7.187  15.003   1.448 -0.1169  0.0062  0.0125
28281W        W44755   6.964   1.621   2.245 -0.1687  0.0709 -0.1909
28282W        W44756   1.497  17.376   0.853 -0.4163  0.2797 -0.1271
28283W        W44757   2.865  10.484  16.094  0.0887  0.3317  0.3522
28284W        W44758   2.235  11.310   1.635 -0.4148 -0.2184  0.0244
28285W        W44759   2.237  14.734   4.196  0.0287 -0.2912  0.2181
28286W        W44760  14.888   1.617   2.410  0.0098 -0.0395  0.1688
28287W        W44761   9.971  15.900  13.645  0.0679  0.0996  0.1180
28288W        W44762  18.101   2.223  14.269  0.0338 -0.2308 -0.1162
28289W        W44763  15.592   5.654  15.909  0.0333  0.3513  0.1928
28290W        W44764   3.361  15.504  14.932  0.1828 -0.0799 -0.3395
28291W        W44765   8.663   2.096  12.844  0.0425  0.1732 -0.2875
28292W        W44766  18.134  10.177  13.439  0.2650 -0.0776 -0.0730
28293W        W44767  13.799   1.631   4.789 -0.0465  0.1598  0.0457
28294W        W44768  17.081   2.439   2.016 -0.1744  0.0800  0.3424
28295W        W44769   5.076  16.844   0.849  0.0423  0.1640 -0.0692
28296W        W44770   4.523  12.926   4.080 -0.2764 -0.0159  0.0043
28297W        W44771  15.629  15.642   4.283  0.2006 -0.0552  0.0349
28298W        W44772  11.715  13.857  12.270  0.0865  0.0564 -0.1972
28299W        W44773   3.873   0.996  12.676 -0.2337 -0.1238 -0.2237
28300W        W44774  15.127  12.509  14.684  0.0703  0.2847  0.0744
28301W        W44775  12.479  10.442   5.300  0.3057 -0.1330  0.1664
28302W        W44776  11.859   8.900   5.879 -0.1282 -0.0408 -0.0186
28303W        W44777  14.380  18.034  14.219  0.3245  0.1107 -0.2559
28304W        W44778   3.766  13.794  11.450 -0.2397  0.0274  0.1514
28305W        W44779   3.244   0.273  12.811  0.1171 -0.2377 -0.0604
28306W        W44780  16.508  14.062   3.121 -0.3087 -0.1933 -0.1127
28307W        W44781   2.908   1.491  14.263  0.0099  0.0959  0.3680
28308W        W44782  13.310  12.123   2.588  0.0266  0.1826  0.0648
28309W        W44783   3.001   7.888   1.139 -0.2872 -0.2371  0.2933
28310W        W44784   5.916   6.102  12.901  0.2675 -0.2992  0.0979
28311W        W44785   8.058  15.430  11.704 -0.2717 -0.0376  0.1012
28312W        W44786   5.779  17.233   2.642  0.2215 -0.0002  0.0117
28313W        W44787   1.724  13.411   1.876  0.0743  0.2364 -0.2747
28314W        W44788  15.837  11.503  15.346  0.1136 -0.1665 -0.0660
28315W        W44789  15.171   2.766  11.789  0.0874  0.1351  0.1668
28316W        W44790   6.553   0.300   3.781  0.2458 -0.1627  0.1651
28317W        W44791   1.205   0.002  15.637 -0.1405  0.1980 -0.1373
28318W        W44792  16.428   6.633   4.618 -0.0534 -0.1318 -0.1109
28319W        W44793   4.802   1.205  12.501 -0.1669 -0.1948  0.3416
28320W        W44794  14.747   9.394  15.148 -0.1978 -0.0494 -0.0099
28321W        W44795  10.546   1.423   1.097  0.1114 -0.0149 -0.2353
28322W        W44796   0.761   8.943  11.744  0.0518 -0.0913  0.2366
28323W        W44797   4.139  11.550   3.788 -0.1137  0.0760  0.0882
28324W        W44798   7.663  13.716   3.891  0.1619 -0.1276 -0.1123
28325W        W44799  14.888  16.377  13.500  0.3098  0.0151 -0.0136
28326W        W44800   6.946   0.293  15.540  0.2856 -0.1642 -0.2736
28327W        W44801   4.314   6.019  15.782  0.1107  0.0128  0.1847
28328W        W44802  14.604   0.692   1.959 -0.0450  0.0517  0.1210
28329W        W44803   6.319   0.058  16.300  0.1631 -0.1135 -0.0956
28330W        W44804  12.925   2.914   3.935  0.1159  0.4178 -0.1260
28331W        W44805  12.152  11.163  16.362 -0.0351  0.2099  0.1694
28332W        W44806   9.942   8.912  15.343 -0.0347 -0.0348  0.0935
28333W        W44807   9.556   1.335   2.691 -0.1147  0.1487 -0.2235
28334W        W44808   5.034   6.128  14.548 -0.4048 -0.1989  0.1743
28335W        W44809  12.321  12.348   4.183 -0.1785 -0.1923  0.1175
28336W        W44810   8.121   9.965  15.205 -0.0218 -0.1323 -0.3414
28337W        W44811   5.665   1.148   5.364 -0.0735  0.1294 -0.0874
28338W        W44812   3.719  16.827   0.412 -0.2208 -0.0999 -0.0681
28339W        W44813   4.501   4.964   1.449  0.0045 -0.0850 -0.0498
28340W        W44814  12.246   1.494   6.116  0.1149  0.2434 -0.3210
28341W        W44815  10.468   0.916   1.234  0.0564 -0.0588 -0.4017
28342W        W44816   4.068  13.492  11.832  0.2519  0.1188  0.0883
28343W        W44817   6.451   0.818   4.569  0.0746 -0.0694  0.0828
28344W        W44818   4.290   8.248  15.250  0.6044 -0.1858 -0.1192
28345W        W44819   6.579   7.299   5.975  0.3947 -0.0107  0.1217
28346W        W44820   4.499  16.678   2.521 -0.1231 -0.0783  0.0592
28347W        W44821   1.897   5.056   2.466  0.0544  0.0183 -0.0536
28348W        W44822   3.446  11.190  12.562 -0.0608  0.3598 -0.1772
28349W        W44823  10.007  16.816  16.073 -0.0930  0.1848 -0.0115
28350W        W44824  16.234  11.569   4.128 -0.1538  0.0539  0.1070
28351W        W44825  13.679   2.752  15.107 -0.2188  0.2640 -0.0819
28352W        W44826  10.885   1.071   2.406  0.1906  0.1352 -0.4540
28353W        W44827   6.780  13.110   4.367  0.1479  0.2595 -0.2611
28354W        W44828  13.966   9.830  11.648  0.0102  0.5745 -0.0952
28355W        W44829  14.339   7.121  12.650  0.0265  0.1823 -0.4198
28356W        W44830   7.200   5.562  14.166  0.2733  0.3602 -0.1252
28357W        W44831   0.799  13.660  13.690 -0.2165 -0.2744 -0.1943
28358W        W44832   6.775  13.359   0.098  0.0413 -0.1515  0.1308
28359W        W44833   6.431   0.742   6.086 -0.0490 -0.1823  0.2546
28360W        W44834   7.967  12.328  14.708 -0.2767  0.0753 -0.2386
28361W        W44835  13.618  15.780  15.307 -0.0885 -0.2827 -0.0736
28362W        W44836  12.737  18.157  14.475  0.1956 -0.0509 -0.3908
28363W        W44837  12.698  12.310   1.483 -0.0290 -0.1562 -0.1764
28364W        W44838   5.581  17.818  13.087  0.2635  0.1184 -0.0776
28365W        W44839  15.383  16.082  13.330 -0.2878  0.1926  0.1431
28366W        W44840  12.204  16.574   3.276 -0.2134  0.0400 -0.0987
28367W        W44841  11.827   8.847   2.483 -0.3442  0.3307 -0.0850
28368W        W44842  11.979  13.184  13.914  0.0865  0.2436 -0.1629
28369W        W44843   5.021   5.553  12.030 -0.0620 -0.0453 -0.1077
28370W        W44844   2.565   6.373  13.258 -0.0468 -0.0088  0.2661
28371W        W44845  15.968   9.752  14.636 -0.1834 -0.3351 -0.3115
28372W        W44846   3.801   3.067   2.447 -0.1965  0.2725  0.0144
28373W        W44847   5.700  16.246   1.752  0.0366 -0.1422 -0.0266
28374W        W44848   3.707   2.551  14.494 -0.0551 -0.0252  0.0625
28375W        W44849   6.476   3.650  15.129  0.1803 -0.1539  0.1294
28376W        W44850  11.880  14.368   3.814 -0.0614  0.0622  0.0122
28377W        W44851   6.045   4.666  11.755 -0.1245  0.1161  0.1844
28378W        W44852   1.409  14.687   1.935 -0.2734 -0.0348  0.1408
28379W        W44853   9.830  16.294   6.221  0.1201 -0.1014  0.1706
28380W        W44854   6.723  15.727  11.900 -0.1425 -0.1673 -0.0306
28381W        W44855   6.149   6.464  13.739  0.2734 -0.4045  0.3921
28382W        W44856   7.131   7.047  15.671 -0.2084 -0.4486 -0.0423
28383W        W44857   0.856  14.735   5.418 -0.0834  0.0550 -0.1015
28384W        W44858  13.003   7.559   4.590 -0.0273 -0.0890 -0.2193
28385W        W44859   8.240   9.234  16.109 -0.0963 -0.0789  0.0999
28386W        W44860  12.757   9.980  15.261  0.1152  0.0892  0.2010
28387W        W44861   7.633  13.831  16.292 -0.1562  0.0879  0.1259
28388W        W44862   9.089  10.829   2.788  0.0874  0.0877 -0.0434
28389W        W44863   9.057   3.879  12.916 -0.0631  0.0600 -0.0604
28390W        W44864  18.045  11.842   5.929 -0.0498 -0.0589 -0.0810
28391W        W44865  10.644  17.335   4.233  0.1886  0.1730 -0.0317
28392W        W44866  11.576  14.754  13.444  0.0220 -0.0716  0.0902
28393W        W44867  14.062  16.476   1.182  0.0344 -0.2501 -0.0255
28394W        W44868  16.953   0.355  11.994 -0.2126 -0.1976 -0.1891
28395W        W44869   8.469   8.508  10.219 -0.1723 -0.2663 -0.0362
28396W        W44870   8.891  12.230   2.806  0.2286  0.0897  0.1183
28397W        W44871  18.076  10.591  13.054  0.1064  0.0802 -0.0699
28398W        W44872  11.568   8.483   4.387 -0.0185  0.2603  0.0877
28399W        W44873   7.925  17.753   4.574 -0.0131  0.0271  0.0852
28400W        W44874  16.421   5.452   5.212 -0.0652  0.1165  0.2160
28401W        W44875  15.117   3.780  13.826  0.0532  0.0688 -0.0364
28402W        W44876   9.402   3.669  12.499 -0.1516 -0.1507  0.0315
28403W        W44877  15.255   3.297  11.830 -0.0787 -0.1054 -0.1906
28404W        W44878  10.335   6.839  15.135  0.1759  0.4871 -0.0265
28405W        W44879  16.771   8.731   5.328 -0.1116 -0.3160 -0.2399
28406W        W44880   9.975   9.844  11.999 -0.1035  0.1783 -0.2306
28407W        W44881  14.819   1.443   5.033  0.1465  0.1899 -0.2221
28408W        W44882  10.140  16.821   0.391  0.2339 -0.1422  0.5336
28409W        W44883  12.201  13.341   2.213 -0.2241 -0.1510  0.1091
28410W        W44884  15.752  15.734   3.696 -0.0479 -0.4127 -0.2067
28411W        W44885   7.338   2.880  13.955 -0.0036  0.0691  0.1084
28412W        W44886  14.260   9.950  14.047 -0.2893 -0.0585 -0.1295
28413W        W44887   1.327   6.475   3.256  0.0229  0.1036  0.2177
28414W        W44888   9.821   3.568  12.130 -0.3646  0.2843 -0.1715
28415W        W44889   9.748   1.993  11.383 -0.0533  0.0821  0.2139
28416W        W44890   7.485  16.247   1.977  0.0361  0.0017 -0.0344
28417W        W44891  15.918  16.202   1.695 -0.1987 -0.3331  0.0174
28418W        W44892  15.006  10.415  12.931  0.3499  0.0117  0.0812
28419W        W44893  16.142  13.605  14.424 -0.0928  0.2691 -0.0965
28420W        W44894  15.357   0.606  11.738  0.0150  0.1923  0.0367
28421W        W44895   9.744   7.338  11.342 -0.4023 -0.1028 -0.3164
28422W        W44896  13.132   7.423  15.814 -0.0013 -0.2674 -0.0076
28423W        W44897  15.930  15.676   1.883  0.2082  0.3057  0.1746
28424W        W44898   8.947  12.563  11.256  0.1143 -0.2696  0.1710
28425W        W44899  12.501  10.208  14.319 -0.0585  0.1659  0.2925
28426W        W44900   4.168  13.571   0.420  0.3859  0.2574  0.1946
28427W        W44901  15.078   2.255   2.396 -0.0755 -0.0063 -0.1696
28428W        W44902   7.795  13.811   1.667  0.1266  0.1995  0.0576
28429W        W44903   8.378  16.729  15.712 -0.0123  0.2231 -0.0867
28430W        W44904   0.398   0.244   5.172  0.0441  0.2906  0.1479
28431W        W44905   9.133   5.970  12.788  0.1973  0.2516  0.0490
28432W        W44906   0.425  11.052  13.714  0.3201  0.2392 -0.1773
28433W        W44907   3.016  14.302   5.466 -0.1861 -0.1296 -0.3612
28434W        W44908   1.342  14.892   5.538 -0.1435  0.0223  0.1211
28435W        W44909  17.319   5.813   1.346  0.2906 -0.0101  0.2766
28436W        W44910  11.913  15.983  12.231 -0.0537 -0.1019  0.1598
28437W        W44911  12.146  15.626  11.957  0.0195  0.2462  0.1345
28438W        W44912  12.624  14.174  16.047 -0.0921 -0.0005 -0.0849
28439W        W44913  16.689   5.806   1.668  0.5136 -0.1493 -0.0947
28440W        W44914  11.829   7.721   1.296 -0.1916 -0.1486 -0.0134
28441W        W44915  16.967  14.104   2.594 -0.2788 -0.1551 -0.0475
28442W        W44916  12.245  11.254  11.551  0.2277  0.2653 -0.0935
28443W        W44917   6.621   9.734   0.197  0.0561  0.0614 -0.0922
28444W        W44918   6.040  10.296   1.318  0.1328  0.0076  0.1432
28445W        W44919  10.159   8.570  11.601 -0.2453  0.0811 -0.3249
28446W        W44920  11.888   5.522  14.703  0.1451 -0.5102  0.1528
28447W        W44921  17.021   3.147   2.963 -0.1084  0.0395 -0.2246
28448W        W44922   9.005   2.991  14.389 -0.2974 -0.2417 -0.2213
28449W        W44923   6.290  13.742   4.971 -0.0595 -0.0680 -0.1133
28450W        W44924   2.699   7.108  11.660 -0.2261  0.1381 -0.0642
28451W        W44925   1.277  16.334  14.136 -0.0516  0.1020 -0.1046
28452W        W44926   9.660   3.851  11.608 -0.0664  0.1329 -0.2220
28453W        W44927  16.379   9.639  11.885  0.0467 -0.0080  0.0771
28454W        W44928  10.760  10.148  11.420  0.0249 -0.1792 -0.1203
28455W        W44929   0.096  16.155   2.070  0.2290  0.2295 -0.2731
28456W        W44930   3.666  10.849  11.252 -0.0055  0.2533 -0.0372
28457W        W44931  10.648   6.068  14.944  0.1213  0.1688 -0.2650
28458W        W44932  12.874   5.181  16.137  0.0284 -0.2162  0.0406
28459W        W44933   9.938   4.314   0.509  0.2486  0.1088 -0.1874
28460W        W44934  17.396  15.455  11.580 -0.3117 -0.2130 -0.0906
28461W        W44935   8.183   6.980   0.816  0.1031  0.0725 -0.1703
28462W        W44936   8.476   4.521  15.709 -0.0747 -0.2302  0.0003
28463W        W44937   8.007   9.994  11.233  0.0018 -0.2269 -0.0803
28464W        W44938   7.849  16.036  15.971 -0.2127 -0.0743  0.0648
28465W        W44939   9.508   4.078   4.552 -0.1145 -0.1043  0.0926
28466W        W44940   4.744  14.800   4.858  0.0798  0.0094  0.2365
28467W        W44941  12.011   4.949  12.672  0.2432  0.1438 -0.0362
28468W        W44942   5.152   6.490   4.949 -0.2899  0.1514 -0.1773
28469W        W44943   3.273   2.780   0.486  0.0206  0.0306  0.0771
28470W        W44944  13.091  17.159  11.985 -0.0131 -0.0895 -0.0752
28471W        W44945   1.487   1.886   0.523  0.0772  0.1023 -0.2563
28472W        W44946  13.570  11.426   4.197 -0.0469  0.0408 -0.0964
28473W        W44947   6.194   1.679  12.602 -0.1839 -0.0741  0.1403
28474W        W44948   5.064   2.813   4.783  0.0442  0.0618  0.7033
28475W        W44949   7.386   2.214  14.478 -0.1943  0.3539  0.2167
28476W        W44950   6.084  11.869   2.748 -0.0399 -0.1441  0.1831
28477W        W44951   5.610   3.590  12.675  0.1112  0.0839  0.2185
28478W        W44952   6.988  15.571   3.914  0.2291  0.1871  0.1522
28479W        W44953  15.221   3.311   1.755 -0.0378 -0.2134  0.1780
28480W        W44954   7.100   5.680   2.095 -0.0305 -0.1673  0.1262
28481W        W44955   3.721   3.017  15.950  0.0818  0.1212  0.2465
28482W        W44956  11.330  14.862   4.470 -0.3766 -0.0853  0.0241
28483W        W44957   9.081  12.993  14.301  0.0777 -0.0670  0.1667
28484W        W44958   5.542  17.317  12.939  0.0256  0.1940 -0.1289
28485W        W44959  13.428  15.319  15.161  0.1935  0.1617 -0.1687
28486W        W44960  15.959   4.305  15.462  0.1416 -0.0339  0.0140
28487W        W44961  14.793  12.147   1.603 -0.0531  0.0088 -0.0230
28488W        W44962   7.587  10.334  14.739 -0.1027 -0.0361  0.0824
28489W        W44963  14.629  13.047  13.849  0.0795 -0.2048  0.1847
28490W        W44964   5.026  17.469   3.729 -0.1407  0.1426 -0.0522
28491W        W44965   5.753   5.434   5.060  0.2811 -0.0211  0.0657
28492W        W44966   8.527  17.798  13.781  0.1573 -0.0533  0.0001
28493W        W44967   6.467  11.608   5.317 -0.0437  0.0892 -0.0655
28494W        W44968   3.697  14.379  11.675 -0.1682  0.4040  0.0755
28495W        W44969  11.071   8.517  14.582 -0.1308 -0.0923 -0.1992
28496W        W44970   6.705   6.186   5.830 -0.1256 -0.0985  0.1339
28497W        W44971  11.176  16.580   5.335  0.0988  0.0979 -0.1639
28498W        W44972   3.062   4.949  12.083 -0.3130 -0.1160  0.0281
28499W        W44973  11.756   6.152   1.006 -0.0168 -0.1563 -0.0011
28500W        W44974  15.683  15.590   5.059 -0.1651  0.0749  0.0578
28501W        W44975  15.144   9.977   4.153  0.1537  0.0882  0.0066
28502W        W44976  11.390  16.724   1.366 -0.1654 -0.3040 -0.0652
28503W        W44977  15.708   0.664  16.229  0.0688  0.1958  0.3451
28504W        W44978  12.986  12.683   4.836  0.2255 -0.1745 -0.0812
28505W        W44979   0.210  11.022   2.152  0.0857  0.0114  0.0881
28506W        W44980  11.087  14.657   0.042 -0.1858  0.0908 -0.0515
28507W        W44981   1.774  15.565  15.421 -0.1234  0.0775 -0.0417
28508W        W44982  11.027   2.888   4.113 -0.3345  0.2337  0.0919
28509W        W44983   6.136   9.019   3.921  0.0274  0.1496 -0.0299
28510W        W44984   3.271  12.995  15.423  0.0825  0.2636  0.0841
28511W        W44985   0.225   9.417   3.608 -0.3829  0.1101  0.0399
28512W        W44986   6.052  17.482   3.560 -0.1003  0.0798  0.1229
28513W        W44987  13.161   7.969   0.775 -0.1879 -0.0278 -0.1712
28514W        W44988   3.980   1.620   3.661  0.3081 -0.2159 -0.1338
28515W        W44989  15.195   6.448  16.032 -0.2266 -0.2265 -0.0186
28516W        W44990   3.424  12.988   1.558  0.0030  0.2634 -0.1755
28517W        W44991  14.856   7.323  12.158  0.0208  0.0122 -0.0581
28518W        W44992  15.801   0.522   2.592  0.0254  0.3168  0.2015
28519W        W44993  16.695  14.436  13.038 -0.2796 -0.2276  0.2414
28520W        W44994  12.683   3.092   3.280  0.1517 -0.0634  0.2936
28521W        W44995   3.848  16.461  15.314  0.0441  0.1540  0.0073
28522W        W44996  10.895   9.869  13.603  0.0380 -0.1312 -0.0932
28523W        W44997  13.364  13.409  10.617 -0.0165 -0.1049  0.1893
28524W        W44998  11.187   8.487   1.440 -0.1720  0.0691  0.0432
28525W        W44999  11.534   3.087   2.117  0.2586  0.1649 -0.1619
28526W        W45000  13.947  16.139   3.893  0.0488 -0.0203 -0.0529
28527W        W45001  14.459  12.368   0.312 -0.3532  0.0470 -0.0858
28528W        W45002   3.213   1.279  13.902  0.2514 -0.1123 -0.0730
28529W        W45003  17.998  17.505   3.873  0.0197 -0.1466 -0.1262
28530W        W45004   0.189  14.228   3.236 -0.0478  0.0269 -0.2524
28531W        W45005  10.352   1.295  11.741  0.1755  0.0814 -0.1890
28532W        W45006  12.372   8.086   3.863  0.1011  0.0043  0.2017
28533W        W45007   2.848  17.057   0.392 -0.0424 -0.0149  0.0356
28534W        W45008   0.542   7.494   3.441  0.0089 -0.2972  0.1155
28535W        W45009   7.743  13.167   4.058 -0.0199 -0.0412 -0.1714
28536W        W45010   6.023   0.634   4.837  0.1404  0.1062 -0.1067
28537W        W45011  13.666  18.061   6.086 -0.2237 -0.4507 -0.0529
28538W        W45012  15.525   2.069  13.629  0.0487  0.2501 -0.0696
28539W        W45013  12.371   1.185   5.367 -0.0648  0.0579 -0.0955
28540W        W45014  10.090   3.037  10.593 -0.1129  0.1760  0.1832
28541W        W45015  15.129   9.862  12.469 -0.1116  0.0650 -0.3743
28542W        W45016  12.767   9.806   5.420  0.0981  0.0693  0.1204
28543W        W45017   1.008  16.468   0.503  0.2838  0.2777  0.0834
28544W        W45018  11.071   1.527   1.733 -0.1031 -0.0135  0.0947
28545W        W45019   1.037  11.593  12.010  0.1590  0.2080  0.3762
28546W        W45020   4.691  13.399   2.261 -0.0853 -0.0372 -0.1128
28547W        W45021   1.424   4.848  14.185 -0.0821  0.3512  0.0162
28548W        W45022  13.832  17.752  12.672 -0.0435 -0.0840 -0.0888
28549W        W45023  11.125   8.662  12.967  0.3558  0.1008 -0.5524
28550W        W45024  17.746  17.261  12.767 -0.2029  0.2090 -0.0890
28551W        W45025  11.835  15.048  11.312  0.2082  0.0906 -0.2102
28552W        W45026   9.559   3.825   5.029 -0.2567  0.0371  0.0464
28553W        W45027  10.472   2.380  11.738 -0.1372  0.0169 -0.0029
28554W        W45028   8.660   8.280   2.026 -0.0698 -0.2362 -0.1710
28555W        W45029   0.542  12.156   2.239  0.1463  0.1131 -0.0075
28556W        W45030   3.091   5.812  10.247  0.1655  0.4109  0.2765
28557W        W45031  10.816  16.458   4.167 -0.2654  0.0511 -0.0031
28558W        W45032  15.516   0.937   1.931 -0.1562  0.1033 -0.0046
28559W        W45033   9.783  17.286   4.149 -0.0353  0.3160  0.2860
28560W        W45034  16.425  17.126  14.203 -0.1052  0.1957  0.2104
28561W        W45035   2.453  10.879  10.048  0.2048 -0.2074 -0.0811
28562W        W45036  14.525   7.788  13.841  0.0030 -0.2263  0.0047
28563W        W45037   7.800   1.019   3.731 -0.0136 -0.0995 -0.0150
28564W        W45038  10.190  12.729   4.073 -0.1957  0.2010 -0.1981
28565W        W45039   4.005   7.721   5.306  0.0201  0.2447  0.0486
28566W        W45040   8.662   0.855  14.653 -0.0673  0.1003  0.1333
28567W        W45041  18.071  16.478  13.052  0.2431 -0.1508 -0.2696
28568W        W45042   1.017  16.060   2.028 -0.0191 -0.0557  0.0273
28569W        W45043   1.165  11.901   2.789  0.2330 -0.0900 -0.0983
28570W        W45044  13.114  17.230   1.743 -0.1781  0.0528 -0.0368
28571W        W45045   8.745  17.369  14.043  0.0138  0.0217 -0.2678
28572W        W45046  12.764  15.354  15.940 -0.1859  0.0915 -0.0628
28573W        W45047  15.289  15.269   5.248 -0.0952 -0.1582  0.2788
28574W        W45048   9.304  11.900   3.712 -0.4135  0.3891  0.0667
28575W        W45049  13.847  13.541   2.692 -0.2163 -0.1015  0.0128
28576W        W45050  10.778   2.054  11.455  0.0442 -0.1503 -0.1374
28577W        W45051   1.259  17.198  15.266 -0.3159  0.2478 -0.0032
28578W        W45052  13.550   7.431   4.068 -0.0447  0.1731  0.1024
28579W        W45053  14.832  10.311   4.384 -0.1406  0.2497 -0.0299
28580W        W45054  14.671   7.037  14.127 -0.0034 -0.3208 -0.1843
28581W        W45055  16.936  14.864   0.246  0.1583 -0.1083 -0.0816
28582W        W45056   1.050  15.918   6.073  0.2643  0.0219 -0.0923
28583W        W45057  17.191   7.275  14.150  0.0235  0.2489 -0.2177
28584W        W45058  12.003   1.973   3.843 -0.0796 -0.0219 -0.0398
28585W        W45059  10.134   4.977  15.345  0.2460 -0.1038  0.2932
28586W        W45060   0.204   4.293  15.437  0.1479 -0.0059  0.1191
28587W        W45061  15.266   9.249   4.480  0.0504 -0.1197  0.0836
28588W        W45062   1.382   9.708  16.099 -0.2290 -0.2454 -0.1054
28589W        W45063   2.709  16.616  12.363 -0.0230  0.1392  0.0252
28590W        W45064   4.969   9.012  12.015  0.0507 -0.2185 -0.1933
28591W        W45065   7.862  17.993   0.940 -0.1558 -0.0719  0.0796
28592W        W45066   6.390   9.292   5.639  0.0619  0.1208 -0.4941
28593W        W45067   6.222  13.305   0.279 -0.0861 -0.2576  0.1629
28594W        W45068  17.439  10.348  15.725 -0.1002  0.0981  0.0014
28595W        W45069  12.072   9.963  15.865 -0.1171  0.1292  0.2116
28596W        W45070  15.957   5.169  11.694 -0.1641 -0.1476 -0.0759
28597W        W45071   1.755  17.676   5.660  0.2530 -0.0170  0.3064
28598W        W45072  14.955   9.136  12.346  0.0831 -0.1754  0.1227
28599W        W45073  14.046   6.045  12.720 -0.3396 -0.3559  0.0670
28600W        W45074   4.123   4.473  12.801  0.3066  0.1189  0.1011
28601W        W45075   2.138   5.983   0.058 -0.0215 -0.4665  0.0857
28602W        W45076   4.557  17.100  15.461  0.2336  0.1870 -0.0189
28603W        W45077  13.569   9.757   2.688 -0.1682 -0.1584 -0.2392
28604W        W45078   2.326  14.312  11.592  0.1451  0.0047 -0.1427
28605W        W45079  11.959   8.781  12.573  0.0003 -0.1364  0.1830
28606W        W45080  16.757   8.061   5.307  0.0148 -0.2658 -0.1501
28607W        W45081  13.762  11.981  16.135  0.0149 -0.0232 -0.2003
28608W        W45082  13.622   8.993  11.764  0.0099 -0.3320  0.0084
28609W        W45083   5.803  16.412   2.228  0.0114 -0.1759  0.0127
28610W        W45084   9.771   5.600   0.735 -0.1023 -0.0458  0.1434
28611W        W45085   0.850  13.695   3.839  0.0453 -0.0516  0.0321
28612W        W45086  16.009   5.437  13.827  0.4136  0.0550  0.1607
28613W        W45087   2.402  17.000   3.661  0.1263 -0.2882 -0.1807
28614W        W45088   5.227  17.325  16.241  0.0630 -0.1709 -0.2615
28615W        W45089  16.489   3.249   4.521  0.0756 -0.1005 -0.2218
28616W        W45090  14.609   0.625   0.503 -0.0158  0.0989  0.1391
28617W        W45091  12.059  15.580   6.139  0.0272  0.1985 -0.3567
28618W        W45092  13.670   9.555  12.075 -0.1664  0.2698  0.0743
28619W        W45093  17.310  12.212  15.689  0.0304 -0.0232  0.1673
28620W        W45094  12.535  11.506  15.718 -0.2000 -0.1337  0.0361
28621W        W45095  13.319  10.275   2.995 -0.1140  0.0477 -0.0353
28622W        W45096   3.011  13.902  15.104 -0.2005 -0.0837  0.2525
28623W        W45097   9.361  15.665   0.767 -0.0636  0.0901 -0.1271
28624W        W45098  12.133   2.220   2.295  0.0297 -0.0750  0.1099
28625W        W45099  15.385   0.604  13.482  0.3786  0.0500 -0.0404
28626W        W45100   2.610   1.533   6.033 -0.1631  0.2405  0.1504
28627W        W45101   4.411  11.084   3.723  0.1751 -0.0946 -0.0616
28628W        W45102  14.432  14.586   3.651  0.3436  0.0564  0.1448
28629W        W45103   7.173  16.078  13.331 -0.3488  0.1699  0.1539
28630W        W45104   3.660   2.099  13.404 -0.1483  0.0011  0.2297
28631W        W45105  10.323  13.377  12.117 -0.0521 -0.1351  0.1114
28632W        W45106   8.384   5.229  11.576 -0.0541 -0.2186 -0.4844
28633W        W45107   0.118  15.290  15.474 -0.0103 -0.2632 -0.0149
28634W        W45108  14.630   8.706  11.966 -0.4132 -0.0803 -0.0791
28635W        W45109   2.006  12.856  12.641  0.2009  0.3754 -0.0798
28636W        W45110   4.004   6.250  13.752 -0.0207  0.1058  0.0809
28637W        W45111   7.911   4.838   3.056  0.1014 -0.0544 -0.0081
28638W        W45112   3.079   2.316   3.216 -0.0162  0.0671 -0.0061
28639W        W45113  16.374   1.136   0.825  0.2661 -0.1400 -0.0020
28640W        W45114   5.717   1.711   5.531  0.2364 -0.0524  0.1253
28641W        W45115  16.444   9.536  14.433 -0.0122 -0.0656  0.2426
28642W        W45116   0.259   4.961   0.294  0.1846 -0.0623 -0.0834
28643W        W45117  12.934  10.490  13.833  0.2369 -0.0434  0.2522
28644W        W45118  10.028  11.420  13.056  0.2981  0.2371 -0.2837
28645W        W45119   4.632  13.565  15.638 -0.2622  0.0345 -0.3354
28646W        W45120   7.318   1.979   0.016  0.2450  0.3232  0.0264
28647W        W45121   6.187   5.900  15.280  0.1985 -0.2039 -0.0049
28648W        W45122  11.754  17.957  14.084  0.0361 -0.2766  0.0303
28649W        W45123  11.225   3.571   4.660 -0.2900 -0.3871 -0.0268
28650W        W45124  11.047  10.829  15.805  0.0658  0.1767  0.0361
28651W        W45125   0.328   5.790  12.974 -0.1831 -0.0772 -0.0165
28652W        W45126   5.214   5.150   2.249 -0.0849 -0.0516  0.2424
28653W        W45127   6.278  16.886  12.422  0.4436 -0.0248  0.0402
28654W        W45128   7.823   8.064  12.519  0.0613  0.0651  0.1680
28655W        W45129  11.868  17.213  11.648  0.0804 -0.0953 -0.0865
28656W        W45130  15.289  16.995  11.181  0.1440  0.0023 -0.0433
28657W        W45131   8.603  10.121  15.940  0.3879 -0.2362 -0.0381
28658W        W45132   9.618   1.624   3.074  0.2502 -0.1321  0.1793
28659W        W45133   6.730   4.421   5.299  0.1289  0.5054  0.0024
28660W        W45134   5.588   6.771  15.023  0.0275  0.0461 -0.1409
28661W        W45135  15.186   8.175   1.924 -0.0940 -0.0714  0.0723
28662W        W45136  12.673   7.980   1.066 -0.0622 -0.1037 -0.3444
28663W        W45137  13.781  11.779   2.182  0.0716  0.3286 -0.2593
28664W        W45138  12.434   3.632   0.111 -0.0963 -0.2225 -0.3191
28665W        W45139   6.702  13.934   3.966 -0.0816  0.1105  0.2173
28666W        W45140  16.256  16.808   1.609 -0.2551 -0.2492 -0.1706
28667W        W45141   3.007   3.269   0.706  0.2180  0.1429 -0.5658
28668W        W45142  13.308   1.256  11.446  0.1390 -0.0368 -0.1543
28669W        W45143   3.572   4.269   5.297  0.0106  0.1049  0.1307
28670W        W45144   5.090  10.302  15.979  0.4413 -0.1126 -0.1620
28671W        W45145   1.312   6.777   0.669 -0.1903 -0.0762 -0.1219
28672W        W45146  13.520   6.210   3.943  0.0555 -0.1766  0.0010
28673W        W45147   0.872   9.831   5.718  0.1416 -0.0449 -0.1014
28674W        W45148  18.067   9.685  14.722  0.2145  0.0679  0.0773
28675W        W45149   9.530  16.441   2.551 -0.3426 -0.1382  0.1358
28676W        W45150   4.599   8.144   0.695 -0.1703  0.1893  0.3136
28677W        W45151  14.352  15.027   1.878 -0.1798  0.1830 -0.1084
28678W        W45152  17.947   3.564  11.156 -0.3005  0.1572 -0.1098
28679W        W45153  10.887  12.189  14.888  0.1846 -0.0397 -0.0599
28680W        W45154   5.223  17.976  14.954  0.1016 -0.3334  0.0870
28681W        W45155  13.575  17.712   4.138 -0.0828 -0.0374 -0.3063
28682W        W45156   0.168   0.903   3.051  0.0842 -0.3063  0.0740
28683W        W45157  11.630   2.279   1.461  0.2516  0.2272 -0.2836
28684W        W45158  15.167  15.893  14.800 -0.1096  0.1028  0.3109
28685W        W45159  14.301   9.648  15.029 -0.0717  0.0632  0.1864
28686W        W45160   2.829   7.189  12.541 -0.0945 -0.0526  0.0494
28687W        W45161  17.082  10.231  14.738 -0.3053  0.1479 -0.1749
28688W        W45162  16.164  11.514  14.964 -0.1920 -0.2744 -0.0187
28689W        W45163  14.726  16.872   0.591 -0.0908 -0.2810  0.1527
28690W        W45164  17.023  11.806  12.455 -0.1176  0.0726 -0.0751
28691W        W45165   3.111  17.617  12.530  0.0496  0.0136 -0.4581
28692W        W45166  13.107   3.968  12.752 -0.0157 -0.1871  0.2031
28693W        W45167  12.613   4.051   0.305  0.0489  0.1349  0.0177
28694W        W45168  11.232   7.004   3.974  0.0078 -0.0509 -0.2044
28695W        W45169  11.501   7.191  12.909  0.1465 -0.0386  0.0350
28696W        W45170  13.393   9.853   4.410 -0.0775 -0.1862 -0.1656
28697W        W45171  16.846   8.339  15.123 -0.0291  0.0145  0.0700
28698W        W45172  11.761   3.576  14.298 -0.5196 -0.0851  0.0690
28699W        W45173   4.933  10.234  10.829  0.1707  0.1698 -0.0372
28700W        W45174   7.262  17.080   2.536 -0.0837 -0.2345  0.1533
28701W        W45175   1.606   0.050   0.830 -0.3057 -0.1169  0.1561
28702W        W45176  15.565   1.629   2.589 -0.1707 -0.0458  0.1337
28703W        W45177  10.209   8.995   3.840 -0.2938 -0.1758 -0.1168
28704W        W45178  13.557  15.057  14.091 -0.0592 -0.0829 -0.0039
28705W        W45179   0.498   1.735   0.319 -0.2766  0.0703  0.1154
28706W        W45180  10.377   5.747   3.550 -0.0895  0.0681  0.2584
28707W        W45181   4.120   1.972  15.166  0.0923  0.1183 -0.0918
28708W        W45182  17.803   0.609  13.794 -0.1551  0.1246  0.1769
28709W        W45183   9.826  15.042   0.635  0.1314  0.0653  0.1417
28710W        W45184   2.817  12.027   2.455 -0.1065  0.3150 -0.0988
28711W        W45185   6.339   7.222   2.359  0.2539  0.1982  0.0793
28712W        W45186   9.139  11.666  11.530 -0.0225  0.0911 -0.0705
28713W        W45187   7.280   3.861   0.044  0.1310  0.0438  0.1673
28714W        W45188   4.565  10.620   3.884  0.3086  0.1563 -0.0707
28715W        W45189   8.375   2.707  13.615 -0.1456 -0.1385  0.0508
28716W        W45190   1.513  12.932   0.116  0.0082 -0.1517 -0.0637
28717W        W45191  13.815   6.962   3.887  0.4018 -0.0855 -0.1784
28718W        W45192   9.328   5.483  14.284  0.0960 -0.2724  0.4590
28719W        W45193   8.804  11.565  13.928 -0.0854  0.0306 -0.1544
28720W        W45194  16.854  12.909  12.554 -0.0999  0.1935  0.3810
28721W        W45195  17.066   6.749  14.336  0.2240  0.0693  0.1046
28722W        W45196   8.897   0.366  14.843 -0.1667 -0.1845  0.1993
28723W        W45197  15.215   6.954  12.210 -0.1535 -0.0203 -0.2246
28724W        W45198  10.539   0.177  16.357 -0.0852 -0.4044  0.0538
28725W        W45199   2.664  15.766  11.812  0.0271  0.3864 -0.1033
28726W        W45200   2.534   0.157  15.651  0.0915 -0.0884  0.0095
28727W        W45201  10.520   4.137   1.806 -0.2137 -0.0790 -0.2136
28728W        W45202  14.233  13.746   0.914  0.1973  0.2708 -0.2309
28729W        W45203   3.031  15.320   0.991  0.1292  0.1819 -0.0745
28730W        W45204   3.502  14.530  13.114 -0.0140  0.0061 -0.1139
28731W        W45205   3.260  12.887   0.873 -0.1771 -0.0776 -0.1109
28732W        W45206   4.016   1.839  12.486  0.1601  0.1220 -0.1445
28733W        W45207   0.548   7.927   2.539  0.2124  0.0459  0.1028
28734W        W45208   3.005   1.041   0.290 -0.1026 -0.4060  0.0864
28735W        W45209   9.455   5.741  13.042 -0.0374 -0.0211 -0.0710
28736W        W45210   3.656  15.097   2.447 -0.1053 -0.1220  0.0892
28737W        W45211   6.153   3.446   0.648 -0.0807 -0.1905 -0.0926
28738W        W45212   0.307   5.646   3.878  0.0303  0.2115  0.2734
28739W        W45213  15.305  10.958   2.272  0.1519  0.0461  0.1614
28740W        W45214  16.386   8.891  15.080  0.1383  0.1093  0.0594
28741W        W45215  13.860   2.255   3.026  0.3346  0.2279  0.2573
28742W        W45216   9.692   7.368  15.423  0.0094 -0.0783 -0.1767
28743W        W45217   5.925  12.871   5.204  0.2412  0.0443  0.1095
28744W        W45218   7.911  17.298  11.953  0.0950 -0.1441 -0.2206
28745W        W45219   1.830   8.006  13.311  0.0824 -0.2517  0.2318
28746W        W45220   4.640   4.600   5.546 -0.2972  0.2062 -0.0043
28747W        W45221   4.448  10.831   3.235 -0.3678 -0.1688 -0.0458
28748W        W45222  11.909   7.418   2.904 -0.0483 -0.2583  0.1021
28749W        W45223  12.356  12.253   0.073 -0.0916  0.2254  0.0928
28750W        W45224   7.019   6.852   4.376  0.2690  0.1200  0.2349
28751W        W45225   4.986   3.080  15.930  0.1266 -0.0975  0.1841
28752W        W45226   4.525  11.125   0.383 -0.3462  0.3558  0.4176
28753W        W45227   9.407  13.398  16.168 -0.0375  0.2985 -0.2012
28754W        W45228  11.562   6.407  11.754  0.4668 -0.2949 -0.3612
28755W        W45229  12.149   5.199  13.413 -0.1547 -0.0270 -0.0086
28756W        W45230   9.409  16.171   1.928  0.2476  0.0323 -0.3605
28757W        W45231  11.014   9.977   1.186 -0.2513 -0.1336  0.2361
28758W        W45232  12.763   3.849  11.191  0.0738 -0.1499  0.1922
28759W        W45233   7.269  12.677  11.464  0.3376  0.3000 -0.0096
28760W        W45234   5.178   2.469   3.120 -0.3065 -0.2174  0.0960
28761W        W45235   5.483   1.997  13.662 -0.0918 -0.1970  0.0833
28762W        W45236  13.564   2.778   4.375  0.0056 -0.1315  0.1618
28763W        W45237   5.781   7.146  12.758  0.1635 -0.2632  0.3030
28764W        W45238  14.689  10.887   1.545  0.0131 -0.0189 -0.1913
28765W        W45239  13.533   5.190  12.964 -0.3726  0.2697 -0.3255
28766W        W45240  13.563   0.272   1.354 -0.1157 -0.3381  0.0207
28767W        W45241   7.555   0.552   1.064 -0.4077  0.0244 -0.1914
28768W        W45242   6.783   1.681   4.830  0.2687 -0.2333  0.0694
28769W        W45243  13.848   6.459   2.326 -0.1749  0.1293  0.2141
28770W        W45244   4.207  10.526  13.978 -0.2013  0.1263  0.2385
28771W        W45245  14.936  16.283  14.915 -0.0186  0.3889 -0.1221
28772W        W45246   1.499   2.303   6.114 -0.0309  0.0312  0.0314
28773W        W45247  16.095  15.965   5.007 -0.0639 -0.2060  0.1427
28774W        W45248   6.555   4.335   3.130  0.0671 -0.0428 -0.1050
28775W        W45249  10.256   3.199  11.400 -0.1376 -0.0037  0.0362
28776W        W45250   1.963   4.052   2.639  0.2632  0.1802 -0.0580
28777W        W45251  15.750   7.528  11.924 -0.1304  0.0179  0.1500
28778W        W45252  17.586  13.430   3.926 -0.1963  0.2191  0.2448
28779W        W45253  16.698   2.342   0.760  0.0513 -0.0006 -0.0778
28780W        W45254   8.386   7.468  10.755 -0.1625  0.0864 -0.1088
28781W        W45255   9.917  13.813  11.580  0.0606 -0.3260 -0.0751
28782W        W45256   1.104  12.155   0.774 -0.0630 -0.0251  0.1514
28783W        W45257   4.180   1.370  12.579  0.2283 -0.1534  0.0671
28784W        W45258   3.495   8.412  13.214 -0.1310 -0.0588 -0.0436
28785W        W45259  12.334   2.302  15.113 -0.1151 -0.0585 -0.1640
28786W        W45260  10.573   5.874   4.548  0.0524 -0.0901 -0.1080
28787W        W45261   5.211  11.583  11.307 -0.0352 -0.0787 -0.1471
28788W        W45262   6.988   9.147   0.895  0.1419 -0.0907 -0.2592
28789W        W45263   5.280  10.901  16.011 -0.0630 -0.0930 -0.0493
28790W        W45264  16.465   9.038   0.536 -0.0010 -0.0866 -0.0623
28791W        W45265  10.283  10.566   0.448 -0.1768  0.0159  0.2446
28792W        W45266  12.382   6.278   2.926 -0.1103  0.0511  0.1070
28793W        W45267   8.825  10.261   4.420  0.1262  0.1420 -0.1302
28794W        W45268   7.342  17.800  12.482 -0.0279 -0.0800 -0.0468
28795W        W45269   6.315  14.682   1.986  0.0074  0.2006  0.0384
28796W        W45270   6.404   4.566   5.732 -0.0668  0.2823  0.0764
28797W        W45271  10.184  11.590  11.582  0.2099 -0.4285 -0.3748
28798W        W45272   8.398  12.939  13.147  0.1254  0.0434 -0.1650
28799W        W45273   2.205  17.440   5.396  0.1089 -0.0613  0.0658
28800W        W45274   8.141  13.470   1.408 -0.2086  0.0840 -0.1376
28801W        W45275  16.169   2.119  11.004  0.3028  0.2532 -0.1447
28802W        W45276   2.009  16.981  11.259 -0.5144  0.0782 -0.0706
28803W        W45277   8.164   6.771  16.166 -0.2875 -0.4376  0.0495
28804W        W45278  13.432   1.869   0.684 -0.2823  0.0087 -0.1431
28805W        W45279   3.640   7.449   4.513  0.0242 -0.0169  0.0649
28806W        W45280   9.713  12.861  11.420 -0.0687 -0.1268  0.2535
28807W        W45281  17.246  17.249   2.391  0.2472 -0.1307  0.3264
28808W        W45282  17.084   9.484   4.077  0.0245  0.0162 -0.1607
28809W        W45283  17.835  10.478   3.765  0.3399  0.3367 -0.0026
28810W        W45284  12.763  13.263  15.123  0.2396  0.0099  0.0729
28811W        W45285  15.251  13.174   5.270 -0.0941  0.0417  0.1011
28812W        W45286  14.485  16.699   2.831 -0.1566  0.0345 -0.2521
28813W        W45287   5.897  18.016  16.130 -0.4645 -0.1051  0.2458
28814W        W45288   4.591   9.045  12.891 -0.1264 -0.0604 -0.0357
28815W        W45289   2.349  11.548   4.051 -0.0097 -0.0705  0.0048
28816W        W45290   4.566   7.479   2.712  0.0620 -0.0339  0.1030
28817W        W45291   2.147   6.063   2.068 -0.2806  0.1596 -0.0082
28818W        W45292  17.033   7.941  11.307 -0.0056 -0.3261 -0.2226
28819W        W45293  16.745  16.545  12.379  0.0809 -0.0349 -0.0669
28820W        W45294  17.441  15.264  13.535  0.0468  0.2591 -0.0977
28821W        W45295  16.383  12.676   0.676  0.1906 -0.0215  0.3081
28822W        W45296   8.612   2.026   0.503 -0.0080 -0.0706 -0.0795
28823W        W45297  16.975  13.730  11.258 -0.5239 -0.2449  0.0704
28824W        W45298   2.765   6.263   4.021  0.2103 -0.1173 -0.0319
28825W        W45299   1.249   0.636  11.504  0.1177 -0.2626  0.1097
28826W        W45300   5.967   9.883  12.171 -0.1596 -0.1285  0.0027
28827W        W45301  15.618   5.693   3.314  0.0760 -0.1559 -0.0036
28828W        W45302   7.113   8.097   1.262  0.2009 -0.0711 -0.0926
28829W        W45303  17.633   1.306  12.861  0.2359 -0.0282 -0.0511
28830W        W45304  13.425  15.286   5.148  0.0328  0.0050  0.3730
28831W        W45305   7.944   1.945   4.335 -0.1884 -0.0313 -0.1125
28832W        W45306  16.568  15.174   5.403  0.1422 -0.1714 -0.1937
28833W        W45307  12.719  15.296  13.739 -0.3338  0.3264 -0.1627
28834W        W45308  17.240   8.591  11.783 -0.2540 -0.1805 -0.2101
28835W        W45309   2.587   2.287   4.716 -0.1038 -0.1554 -0.3400
28836W        W45310  15.170   4.040   4.307  0.1008  0.1410 -0.2462
28837W        W45311  13.346  13.989   2.001 -0.0334 -0.0424  0.1317
28838W        W45312   3.716  14.436   4.358  0.0824 -0.0447  0.0491
28839W        W45313  18.024  10.659   5.801 -0.2078 -0.1392  0.1829
28840W        W45314   9.413   4.528   5.324  0.2159  0.1527 -0.3512
28841W        W45315  15.236   2.035   1.463 -0.0789  0.2951 -0.0411
28842W        W45316   4.371   2.300   0.188 -0.2331  0.2352  0.0528
28843W        W45317  16.060   3.422   4.389  0.0774 -0.1118 -0.2045
28844W        W45318  12.259   7.960  13.742  0.0384  0.1489  0.0396
28845W        W45319   7.802  12.893  14.377  0.3061  0.2923 -0.0000
28846W        W45320   6.778  15.316   5.665 -0.0253  0.0429  0.1017
28847W        W45321   9.585   3.831  13.985 -0.0559 -0.2018 -0.2276
28848W        W45322   5.139   1.088   5.320 -0.0578  0.2890  0.1987
28849W        W45323   1.541  12.336   1.647 -0.1379  0.2716 -0.0212
28850W        W45324   1.843   3.860  11.681  0.1413  0.2157  0.1157
28851W        W45325  13.964  17.156   2.119 -0.0996  0.3668 -0.0139
28852W        W45326  10.921  14.782   3.271 -0.0862  0.1065  0.3345
28853W        W45327   7.550  14.901  16.330  0.1358 -0.0129 -0.3034
28854W        W45328  14.349   5.323  11.958 -0.0450 -0.3458 -0.0355
28855W        W45329  16.450   4.058   2.756 -0.2559  0.1653 -0.3367
28856W        W45330  11.023   9.852  11.679  0.1870  0.2689  0.1488
28857W        W45331   9.376  13.611  12.646 -0.1844 -0.0150  0.2736
28858W        W45332   6.010  14.315   0.116 -0.0791 -0.1793 -0.0766
28859W        W45333  14.966  18.083   0.648 -0.2806 -0.0722  0.0443
28860W        W45334   4.831   3.878   3.882  0.0529 -0.0254 -0.0962
28861W        W45335  17.173  12.894   5.029  0.2587 -0.0362 -0.1524
28862W        W45336   1.868   5.329   4.924 -0.1206 -0.0141  0.1318
28863W        W45337  11.773   1.713   1.161  0.4042  0.0699  0.0903
28864W        W45338   1.656   6.303   3.720  0.3525 -0.0223  0.0388
28865W        W45339   9.812  10.234   2.501  0.2862 -0.0306 -0.0575
28866W        W45340  12.122  17.575  14.151  0.1887  0.0193  0.0713
28867W        W45341  16.721  10.049   2.966  0.1019 -0.0510 -0.0475
28868W        W45342   6.962  14.326  12.650 -0.3176 -0.1262  0.1807
28869W        W45343  17.699  14.883   2.794 -0.2240 -0.3649 -0.1499
28870W        W45344   5.261   5.463  14.659  0.0609 -0.0010  0.1538
28871W        W45345   1.043  14.573  12.227  0.0994 -0.0266  0.0176
28872W        W45346   9.602   6.339   2.975 -0.1702 -0.2321  0.2923
28873W        W45347   8.412  10.164  10.350  0.0874 -0.1064 -0.1601
28874W        W45348  16.552   3.857  14.233  0.1227  0.1497 -0.0213
28875W        W45349   1.636  15.104   1.819 -0.2363  0.2374  0.1332
28876W        W45350   0.629   5.261   4.801  0.1228 -0.0411 -0.3395
28877W        W45351  13.527  16.562   2.724  0.3286 -0.0063 -0.2759
28878W        W45352   3.773   0.218   2.652  0.1981 -0.0217 -0.2205
28879W        W45353  17.461  17.813   6.025  0.2828 -0.0816 -0.1065
28880W        W45354   2.616  15.629  14.340 -0.0922  0.1490  0.0120
28881W        W45355  17.476   7.453  10.593  0.0910 -0.2524 -0.0192
28882W        W45356  16.481   0.707  15.131  0.1931  0.1968  0.0105
28883W        W45357  15.707   9.824   3.330  0.1050  0.0083 -0.1214
28884W        W45358   3.822   7.971  15.385 -0.0551  0.0084 -0.1683
28885W        W45359  12.231   2.594   0.877  0.1801  0.3421  0.2426
28886W        W45360  14.788   8.791  14.954  0.0957  0.1270 -0.4590
28887W        W45361  17.191   8.055  13.461 -0.0463 -0.4078 -0.1691
28888W        W45362   2.351   6.701   0.753 -0.0888 -0.0595 -0.2178
28889W        W45363   9.276   4.988  14.808  0.1293 -0.0687  0.1373
28890W        W45364  13.076  15.759  16.045  0.0327 -0.2868 -0.1946
28891W        W45365  13.087   0.954  14.626 -0.0800  0.0646  0.0973
28892W        W45366  10.608  10.718   0.760  0.2073 -0.0679 -0.4357
28893W        W45367   7.765   3.599   1.686  0.2262 -0.5515  0.0273
28894W        W45368   6.317   8.255  11.108 -0.0312  0.0373 -0.0708
28895W        W45369  12.959  15.408  13.363  0.1436  0.0085  0.2195
28896W        W45370  17.528   0.944  15.244 -0.1732 -0.1475  0.1015
28897W        W45371   1.864  12.712  12.123 -0.4366  0.0077  0.0823
28898W        W45372  17.566  16.504   1.825  0.3895 -0.1149  0.1189
28899W        W45373   9.511   1.736   4.054  0.0426 -0.0845 -0.0202
28900W        W45374   7.894  16.852  15.557 -0.0647  0.2164 -0.1216
28901W        W45375  16.758   2.777  14.173 -0.2350 -0.0978 -0.2659
28902W        W45376   9.475  17.757  14.259 -0.0056 -0.0125 -0.0630
28903W        W45377   0.498   6.680  14.574 -0.2962 -0.1852 -0.1545
28904W        W45378  16.647   2.670   4.680  0.1339  0.1358 -0.3070
28905W        W45379   5.293   8.072  12.481 -0.0488 -0.1373  0.1090
28906W        W45380  14.444   1.517  12.278 -0.0889 -0.3731 -0.3252
28907W        W45381  13.218   0.693  15.157  0.0403  0.0955 -0.0576
28908W        W45382  14.233  15.606   1.826  0.0696  0.0735  0.0787
28909W        W45383  16.422   3.402   4.018  0.1345 -0.1034 -0.3597
28910W        W45384  15.579   1.025   4.996  0.0061 -0.0226 -0.0117
28911W        W45385   5.483  17.711  11.494 -0.1704 -0.1326  0.1752
28912W        W45386  13.728   2.985  13.459 -0.1904 -0.1430  0.3248
28913W        W45387   0.593   2.950   5.493 -0.3277  0.1508  0.1427
28914W        W45388   1.079   8.742   4.538 -0.0610  0.1582  0.1455
28915W        W45389  14.971   3.915  11.278 -0.1630 -0.0083 -0.1220
28916W        W45390   0.786  13.402  12.755  0.0002 -0.0754  0.1197
28917W        W45391   6.909   6.650  10.249 -0.1730 -0.1210  0.1349
28918W        W45392  17.127   2.198   3.738 -0.1492  0.1650 -0.3238
28919W        W45393   0.516  10.267  15.119  0.2787 -0.3134  0.3941
28920W        W45394   0.832   2.654   1.660 -0.0794  0.2715  0.1126
28921W        W45395  11.851   3.012  14.002  0.2099  0.1525  0.0436
28922W        W45396  17.305   9.651   1.477  0.3366  0.0140  0.3182
28923W        W45397   9.922   4.668  13.999  0.1223 -0.0361  0.0022
28924W        W45398   4.814   0.504   6.031 -0.0809  0.1745  0.0350
28925W        W45399   4.659   2.032   4.509 -0.1133 -0.2525 -0.1739
28926W        W45400   0.242   9.012  15.619 -0.2781 -0.1459 -0.2408
28927W        W45401  17.198  11.041  12.918 -0.1449  0.0279 -0.0491
28928W        W45402  16.514  10.094  13.270  0.0126  0.2735  0.0731
28929W        W45403  17.631  17.555   5.065  0.0380  0.1449 -0.0135
28930W        W45404   7.815   8.989  13.716 -0.0221  0.0684  0.0895
28931W        W45405  11.084  13.326  13.698 -0.2649 -0.1508  0.4010
28932W        W45406  16.976  16.665   3.126  0.0702  0.0069  0.0915
28933W        W45407   1.567  10.248  13.648 -0.2078 -0.2008 -0.0480
28934W        W45408   4.543   4.345   4.024  0.1169 -0.0910 -0.4083
28935W        W45409  11.250   9.130   1.907  0.2609  0.0419  0.0460
28936W        W45410   8.019   9.545  14.910  0.2195 -0.0190  0.0253
28937W        W45411  12.327   2.414  15.786 -0.0308 -0.1336 -0.4382
28938W        W45412   5.037   6.593  14.103  0.0283 -0.0898 -0.0505
28939W        W45413   5.096  12.741  14.481 -0.1011 -0.0724 -0.0073
28940W        W45414  16.435  14.592  14.391  0.1101  0.2217 -0.1520
28941W        W45415   0.317  11.572  16.280  0.0456 -0.2334  0.3107
28942W        W45416  12.093  12.977   0.400 -0.4683 -0.0443 -0.1270
28943W        W45417   8.669   0.334   3.142  0.1797  0.0911  0.0660
28944W        W45418  13.847  15.016   3.524  0.2765 -0.2660  0.1849
28945W        W45419   1.953  16.099  12.171  0.1060 -0.0365  0.1530
28946W        W45420  15.392  14.548   4.182 -0.2113 -0.2847 -0.0303
28947W        W45421  13.509   4.535  11.740 -0.2391 -0.0345 -0.0072
28948W        W45422   3.975  11.090   6.145 -0.0891 -0.2477  0.3013
28949W        W45423  14.417  10.637   4.639 -0.1157  0.0651 -0.0277
28950W        W45424  16.123  13.811   2.763  0.2197  0.2106 -0.3346
28951W        W45425  17.794   7.316   1.247  0.2595  0.0173  0.1322
28952W        W45426   8.950  16.764  11.085 -0.2358  0.1784 -0.0878
28953W        W45427  14.646  13.314   4.751 -0.0437 -0.1064 -0.1413
28954W        W45428   6.755   6.947   4.752  0.0925 -0.1528 -0.3212
28955W        W45429   7.764   2.849  15.095  0.0014  0.1594  0.1370
28956W        W45430  12.836  14.108   4.148 -0.0088  0.0002 -0.1249
28957W        W45431   4.199  15.914  13.667 -0.2383  0.0461 -0.0769
28958W        W45432   6.804   3.323   2.622  0.0642  0.1270 -0.4035
28959W        W45433   7.160  10.569  14.130  0.2814  0.2100 -0.2210
28960W        W45434   2.529  12.771   1.870 -0.0628 -0.0620 -0.0956
28961W        W45435   7.297  14.817   2.060 -0.0876 -0.2251 -0.0781
28962W        W45436  14.324  11.171   4.618 -0.2275  0.2845  0.3626
28963W        W45437   0.701  11.822   1.929 -0.0101  0.3994  0.2835
28964W        W45438  15.078   6.891   5.256  0.2078  0.4171  0.1913
28965W        W45439   0.470   0.704  12.200  0.0197 -0.0938 -0.1903
28966W        W45440   3.415   7.650   1.041  0.0457  0.1946 -0.0265
28967W        W45441   5.383   7.562   0.890  0.0627  0.1894  0.0407
28968W        W45442  16.258   8.626  11.687 -0.0048  0.1613 -0.2601
28969W        W45443   5.000   8.974   5.920  0.1299  0.0763 -0.2741
28970W        W45444  18.101  12.939   1.391 -0.2455 -0.1212 -0.1604
28971W        W45445   6.304  15.782   2.464  0.1241  0.2146  0.0183
28972W        W45446  16.998  13.906  12.429  0.3367 -0.2587 -0.0396
28973W        W45447   3.871   4.747   3.352 -0.1548 -0.0865  0.0981
28974W        W45448   7.400   9.977  11.513  0.0009  0.0937 -0.2718
28975W        W45449  16.778   0.400   2.490  0.4978 -0.3132 -0.0318
28976W        W45450  10.692  11.900  14.523  0.1271  0.0812 -0.1900
28977W        W45451  15.365   0.381   4.142  0.3356 -0.0378 -0.2000
28978W        W45452   7.100   2.979  12.636 -0.1452 -0.2342 -0.1333
28979W        W45453   6.500  10.865   1.684 -0.3106 -0.1683  0.0924
28980W        W45454  14.758   6.518   2.115  0.1633  0.0607  0.0297
28981W        W45455   7.804  16.753   0.040  0.3195  0.2657  0.0200
28982W        W45456  14.288  16.779   3.350 -0.1008 -0.0977  0.0796
28983W        W45457  16.882   9.644  15.336 -0.0679 -0.0440 -0.1032
28984W        W45458   6.569   2.760   4.671 -0.0876  0.0738 -0.0643
28985W        W45459  12.216  12.056   3.686  0.1874  0.3785 -0.0262
28986W        W45460   7.304   1.751  15.057 -0.1038  0.3435 -0.1704
28987W        W45461  14.234  10.965   1.808  0.0574  0.0056  0.0688
28988W        W45462   0.294  13.288   2.661 -0.0202 -0.2442 -0.2052
28989W        W45463   4.352   0.837  13.222 -0.2002 -0.0950  0.0398
28990W        W45464  13.821   6.400  13.060 -0.0719 -0.0620  0.0655
28991W        W45465   6.411   3.148   1.626 -0.0205 -0.1345 -0.0923
28992W        W45466   3.943   9.511  15.169  0.0089 -0.3989 -0.0560
28993W        W45467   4.380  17.087  13.301 -0.1532  0.2561  0.0661
28994W        W45468   9.028  13.131   0.224 -0.1180  0.0117 -0.0449
28995W        W45469   9.871  14.717   5.922  0.1452  0.0220  0.0514
28996W        W45470  10.261  14.924   4.618 -0.4480 -0.0790  0.1868
28997W        W45471  14.629   1.464   3.597 -0.2197  0.2293  0.0131
28998W        W45472   8.486   9.843  13.724  0.1184  0.2835 -0.1380
28999W        W45473  15.868  16.812  12.902 -0.1883 -0.0489  0.1045
29000W        W45474  13.247  10.494   0.956 -0.1475  0.0993 -0.0414
29001W        W45475   9.101   4.192   0.143 -0.0333  0.1536  0.1910
29002W        W45476   3.975  11.437   2.152 -0.1824 -0.2280  0.1113
29003W        W45477  17.309   2.204  11.608 -0.1500 -0.2242  0.0909
29004W        W45478  12.919  10.253  14.590 -0.3280  0.0530 -0.1261
29005W        W45479   1.528   7.953   5.309  0.3247 -0.1710  0.0604
29006W        W45480   9.666  17.193  12.623  0.0625  0.0375 -0.0397
29007W        W45481  14.389   3.576   3.271 -0.3446 -0.1382 -0.0287
29008W        W45482   4.111   7.731  14.635  0.0188 -0.1875 -0.1614
29009W        W45483   4.848   2.329   4.900 -0.0780 -0.1029  0.2997
29010W        W45484  15.508   4.254  15.299 -0.1148 -0.0727  0.0239
29011W        W45485   4.584  15.051  13.116  0.0059 -0.0086  0.1333
29012W        W45486   5.840   5.177   0.085 -0.1784 -0.0675 -0.0107
29013W        W45487   9.728   3.862   2.520  0.0987  0.2745 -0.2213
29014W        W45488  11.026   1.662   5.173  0.1783  0.1406  0.1581
29015W        W45489  16.831   7.066  11.256  0.0167  0.2188 -0.2112
29016W        W45490   5.914   8.990   4.383 -0.4673 -0.0041  0.2497
29017W        W45491  12.019  15.279   4.818 -0.2575 -0.0143  0.0434
29018W        W45492  14.552   9.514   2.454  0.3360 -0.1318  0.0907
29019W        W45493  17.340   9.909  13.543  0.0200 -0.0393 -0.0852
29020W        W45494   8.372  14.502  11.934  0.0079  0.1090 -0.2150
29021W        W45495  15.020  14.420   4.545  0.0846  0.1015 -0.0779
29022W        W45496   8.988   3.788   2.564 -0.0512 -0.1160 -0.1244
29023W        W45497   8.174  11.240   5.005 -0.0441  0.1873  0.1446
29024W        W45498   5.428   7.446   5.231 -0.0261  0.0931 -0.1106
29025W        W45499   0.761   0.515   0.499  0.4008  0.2690  0.4327
29026W        W45500  10.132   4.512  16.169 -0.0732  0.2682  0.2071
29027W        W45501  16.541   2.587  12.050 -0.2086 -0.1621  0.0107
29028W        W45502  17.864   4.608   4.090  0.0249 -0.0777  0.0016
29029W        W45503  12.734  11.897   2.636 -0.1713  0.1525 -0.2207
29030W        W45504  10.181  12.021  11.237  0.0688 -0.0622 -0.1301
29031W        W45505   2.062   5.910  12.510 -0.0489 -0.0734  0.0672
29032W        W45506   1.185   5.301   3.608  0.0714 -0.0722 -0.0965
29033W        W45507  12.060  10.348  13.611 -0.3691 -0.3402 -0.1235
29034W        W45508   6.393   9.689   4.241 -0.2420 -0.3692  0.0676
29035W        W45509   4.829  16.243  15.808  0.1018 -0.0338  0.0175
29036W        W45510   2.516  10.563  15.480  0.1865 -0.0950  0.1401
29037W        W45511  10.717  15.894   1.223 -0.0957 -0.2883 -0.2069
29038W        W45512   2.779   7.983  15.354 -0.1069 -0.1580  0.2454
29039W        W45513  11.129  10.307  15.853 -0.1803 -0.3506 -0.0207
29040W        W45514   0.093   6.114  12.574 -0.4258  0.3601  0.0588
29041W        W45515  12.254   0.242  15.831 -0.0875 -0.0634 -0.1795
29042W        W45516  11.999   8.392  13.648  0.1565 -0.1761 -0.0699
29043W        W45517  17.740   7.047  12.687 -0.1132 -0.0039 -0.2981
29044W        W45518  16.467   3.988  13.717 -0.3196  0.1051  0.0706
29045W        W45519   4.137  11.601   4.709  0.0563 -0.1300  0.1137
29046W        W45520  16.866  18.003  12.128  0.3064  0.1476  0.2887
29047W        W45521  10.376  13.961  13.329 -0.1368  0.1021  0.1074
29048W        W45522  15.034   0.280  13.238  0.1234  0.3450  0.0883
29049W        W45523  14.126   2.234   4.178  0.1213 -0.0258 -0.0968
29050W        W45524  16.341   8.386   4.543  0.0815 -0.1292 -0.0914
29051W        W45525  14.584  13.176   2.493 -0.0659  0.1123  0.0672
29052W        W45526   8.387  12.991   6.191 -0.0617  0.1828 -0.0815
29053W        W45527   4.204   0.375   1.337  0.1187 -0.0294 -0.1061
29054W        W45528  10.211   8.740   4.328  0.1228 -0.1357 -0.0750
29055W        W45529  15.066  17.527   0.864  0.1068  0.0108  0.2350
29056W        W45530   6.205  10.538  10.791 -0.0762  0.0714  0.1518
29057W        W45531   4.648   7.156   3.220  0.1942 -0.1593  0.0415
29058W        W45532  17.675   0.035   3.436  0.2385  0.2074  0.2096
29059W        W45533   7.358   9.081  10.384 -0.0178  0.1444  0.3434
29060W        W45534   5.114  12.975  13.067  0.3124 -0.1561  0.0665
29061W        W45535  15.321  15.867   0.212 -0.0636 -0.1994 -0.0990
29062W        W45536   2.671   5.531  12.595 -0.0697 -0.1519 -0.0252
29063W        W45537   4.805   6.162  15.237 -0.0620  0.0176 -0.2523
29064W        W45538   3.906  13.895   0.757 -0.0976 -0.0383 -0.1688
29065W        W45539   5.529   9.564  15.586  0.0727 -0.2063 -0.0647
29066W        W45540   7.938  17.824  11.687 -0.2299 -0.1177 -0.0378
29067W        W45541   8.898  17.279  16.169  0.2988 -0.3168  0.1054
29068W        W45542   5.603   3.393  15.518  0.0610  0.0530 -0.0284
29069W        W45543   5.345   1.389  14.868  0.0414 -0.2221 -0.1456
29070W        W45544  15.652   1.115   0.024 -0.0962 -0.0876 -0.2825
29071W        W45545   5.072   1.212   3.645  0.4398 -0.2814  0.0906
29072W        W45546   8.386   7.000   2.114 -0.0700  0.2894  0.0785
29073W        W45547  11.655   9.860   3.205 -0.3217  0.0511 -0.0515
29074W        W45548  14.783   8.100  13.635 -0.1770 -0.2352  0.2315
29075W        W45549   4.380   6.725   5.356  0.0533  0.2011  0.3570
29076W        W45550   4.704   3.784  11.511 -0.0214 -0.2457 -0.4348
29077W        W45551   6.638   5.530   1.020 -0.0160  0.0427 -0.0623
29078W        W45552   4.792  17.402   5.018  0.1076 -0.1272 -0.1928
29079W        W45553  10.436  11.735   2.268 -0.0074 -0.1095  0.1434
29080W        W45554  12.644  17.389   1.729  0.0551 -0.1970  0.2609
29081W        W45555   2.244   0.437   5.074 -0.0952 -0.0378 -0.1914
29082W        W45556  15.498  12.686  14.416  0.3578  0.0849 -0.0452
29083W        W45557   4.588  11.725   0.960 -0.1141  0.1338 -0.0403
29084W        W45558   5.710   4.051   0.304 -0.2151  0.0080  0.2525
29085W        W45559   1.248   9.196   5.770 -0.0392  0.2265  0.0617
29086W        W45560  13.687  16.511   5.579 -0.1827 -0.0567  0.0787
29087W        W45561   4.072   6.622   1.944  0.1816 -0.0954 -0.2392
29088W        W45562  16.948   1.202  15.398 -0.0475 -0.0181 -0.0619
29089W        W45563   7.382  16.643  15.574  0.0351 -0.2262 -0.2130
29090W        W45564   7.129  10.964   5.549 -0.2287 -0.0043 -0.2540
29091W        W45565  13.104   1.201  12.381 -0.0180 -0.1869  0.3775
29092W        W45566  16.255  11.536   2.811  0.0936 -0.0873  0.0319
29093W        W45567   9.625   5.146   3.255  0.0042  0.0363 -0.0139
29094W        W45568  15.878   1.258   2.706  0.0465 -0.0915  0.3272
29095W        W45569   3.000  14.571  14.774 -0.0220 -0.0161  0.1427
29096W        W45570  15.064   6.310  15.242 -0.2655 -0.2592 -0.1267
29097W        W45571  14.249   1.735  16.218  0.0085  0.4178 -0.2324
29098W        W45572   9.982   3.940  16.366  0.1107 -0.1472  0.2368
29099W        W45573  17.694  13.926   3.842 -0.0547  0.2026  0.3015
29100W        W45574   0.457  13.450   3.829 -0.1530 -0.4387  0.4200
29101W        W45575  16.055  15.422  14.540  0.1097  0.0700 -0.1054
29102W        W45576  10.027   6.962   1.996 -0.0456  0.1155 -0.0371
29103W        W45577   6.658   8.155  11.702  0.0144 -0.1004  0.3752
29104W        W45578  14.446  16.363  14.955  0.0371  0.0817 -0.1631
29105W        W45579   4.770  16.559  13.485  0.0377  0.0673  0.0074
29106W        W45580  11.270  13.879   0.099  0.1807 -0.1126 -0.1418
29107W        W45581  10.882  16.700  12.262 -0.1819  0.2200  0.0135
29108W        W45582   4.451  12.979  14.004  0.0833 -0.1088 -0.1055
29109W        W45583  16.078  15.431  16.302 -0.1026  0.0678  0.1627
29110W        W45584   2.211   4.162   3.538  0.4205 -0.0148  0.0149
29111W        W45585  10.110   5.704   4.603  0.0085 -0.2481  0.0549
29112W        W45586   7.820   3.326  13.137 -0.0951 -0.0923 -0.1059
29113W        W45587   8.066   3.242   2.516 -0.3016  0.1292  0.0658
29114W        W45588   4.917   3.530   1.099 -0.1770 -0.4828  0.2073
29115W        W45589   1.286   8.395  16.212  0.1692 -0.0345  0.1102
29116W        W45590   0.526   2.967   0.083  0.3844  0.1664 -0.0966
29117W        W45591  10.606  13.860   1.169  0.0228  0.0114 -0.2378
29118W        W45592   9.106   6.508   1.692 -0.3191  0.3013 -0.0441
29119W        W45593  13.087   0.598   1.084  0.0821  0.0550  0.0288
29120W        W45594   2.762   2.864   0.293  0.1537 -0.1243  0.0090
29121W        W45595  16.870   4.737  14.684 -0.1419 -0.1314 -0.0299
29122W        W45596   7.831  14.528  13.969  0.3347  0.0340  0.1949
29123W        W45597   8.091  14.113  14.132 -0.0854  0.0600 -0.0234
29124W        W45598   6.274   6.786   2.043  0.2953  0.1589 -0.0047
29125W        W45599  11.576  14.451   4.746 -0.0337 -0.1375 -0.0441
29126W        W45600   6.092   0.872   0.370  0.0531  0.1818 -0.0180
29127W        W45601   6.730  12.900  10.361  0.3831  0.0355 -0.2076
29128W        W45602  15.652   3.971  13.728  0.1364 -0.2295  0.1530
29129W        W45603  13.034   8.622   5.982 -0.1584  0.0855  0.3182
29130W        W45604  16.948   3.871   2.070  0.1847 -0.0162 -0.0811
29131W        W45605   4.751   6.166   6.137  0.0196 -0.1691 -0.0113
29132W        W45606  17.164   6.763   0.824  0.2394 -0.1150 -0.1526
29133W        W45607   6.771  15.164   4.667  0.1327 -0.1331  0.1377
29134W        W45608  13.170   6.465   0.268 -0.0122  0.0701 -0.0286
29135W        W45609  11.812  16.467  12.268  0.2197 -0.0840 -0.1388
29136W        W45610   8.767   4.281   1.032  0.0208  0.0516  0.1510
29137W        W45611  13.441  16.127  16.358  0.2160  0.0400  0.0408
29138W        W45612   0.114   6.409   1.893  0.2271  0.3325  0.4276
29139W        W45613  12.586   8.456  15.064  0.1528 -0.2124  0.0822
29140W        W45614   4.952  13.538   4.711  0.0956 -0.2293 -0.0241
29141W        W45615  18.009   4.899   1.724  0.0137 -0.2941 -0.0474
29142W        W45616   0.709   7.913  12.110  0.2963 -0.2194  0.4612
29143W        W45617   4.530  16.679  11.569 -0.1414  0.1006  0.1324
29144W        W45618   2.519  14.273  14.029  0.0644  0.2098 -0.1604
29145W        W45619   4.851   2.779  11.839 -0.1371 -0.0573 -0.4297
29146W        W45620  13.168   4.915   1.209  0.2361  0.3003 -0.1263
29147W        W45621  15.730   2.567   1.865  0.0340 -0.1207 -0.0264
29148W        W45622   3.373   4.597   0.734  0.2685 -0.0077 -0.1276
29149W        W45623  16.573   5.031   2.394  0.2077  0.0118 -0.1323
29150W        W45624   0.696  12.674  15.621 -0.4958 -0.1723  0.0106
29151W        W45625  12.249  11.233   4.208 -0.2052 -0.0347 -0.1189
29152W        W45626   3.960  16.400   5.045  0.2623  0.0488 -0.2462
29153W        W45627   1.190   8.409   2.299 -0.2798  0.1300  0.0174
29154W        W45628   4.727   2.210   3.111  0.1730  0.2161  0.3302
29155W        W45629  11.583  16.222  14.063  0.4319 -0.0280 -0.0425
29156W        W45630   1.493  12.700  12.478  0.1487 -0.0165 -0.0754
29157W        W45631  17.878  16.220   1.475  0.1179  0.1878  0.0426
29158W        W45632   5.015  15.855   0.245  0.0790  0.1026 -0.1169
29159W        W45633   3.501  15.753   1.229  0.2000 -0.0643  0.0391
29160W        W45634  15.332  17.962  10.214  0.0855  0.2568  0.1568
29161W        W45635  10.262  15.878   5.676 -0.1716  0.0034  0.2859
29162W        W45636  13.834   4.305  15.825 -0.1016 -0.1562  0.0535
29163W        W45637  14.375   7.273   5.528  0.1568  0.2291  0.1916
29164W        W45638   0.929  14.720   4.104 -0.1817 -0.0006 -0.1939
29165W        W45639  12.697  10.956  15.031 -0.0823  0.0737  0.0111
29166W        W45640  16.633   1.805   0.572  0.1264  0.1740 -0.0594
29167W        W45641   8.299  10.341   1.817  0.1486 -0.0539 -0.1172
29168W        W45642  17.073  12.103  11.504 -0.2833 -0.0785 -0.2252
29169W        W45643   3.258  16.937  15.840 -0.1255 -0.0813  0.0961
29170W        W45644   8.500   1.564  12.726  0.0353 -0.0083  0.2701
29171W        W45645   8.483  11.157   1.969 -0.0573 -0.1124  0.0146
29172W        W45646   9.052   5.672  16.048  0.0137  0.0194  0.1788
29173W        W45647  16.911  16.762   0.631  0.2511  0.1282 -0.2147
29174W        W45648   6.257  15.318   1.180  0.0038  0.2370  0.1504
29175W        W45649  12.760   0.669   4.626 -0.0766 -0.0420 -0.1121
29176W        W45650   6.732  13.580   1.055 -0.1515  0.1450  0.1238
29177W        W45651  11.527   5.992   4.093 -0.0349 -0.0500  0.0695
29178W        W45652  11.783  12.070   2.613 -0.2716  0.4725  0.1528
29179W        W45653  10.271   1.585  12.157 -0.1172  0.0407 -0.0999
29180W        W45654   7.209   9.137  13.055  0.3360 -0.0052 -0.0544
29181W        W45655  14.718   9.077   6.451  0.2696 -0.1504  0.0198
29182W        W45656  10.422   1.022  15.127  0.0698 -0.2052 -0.0970
29183W        W45657  15.231  14.064   1.701  0.1358 -0.1392 -0.1995
29184W        W45658   9.217  10.542  11.959 -0.3619 -0.1763  0.1665
29185W        W45659  12.483   9.961   0.373 -0.3058 -0.1651  0.0091
29186W        W45660  15.914  17.213   4.441  0.1262 -0.1834  0.1128
29187W        W45661  14.642   5.845   3.349  0.1486  0.0137  0.0147
29188W        W45662  18.142  12.262  12.313  0.0811  0.0900 -0.0734
29189W        W45663   2.913   3.289   2.672  0.1345  0.1863 -0.0251
29190W        W45664  13.753  16.446  12.390 -0.0328  0.0583 -0.0478
29191W        W45665   7.939  11.580   4.738 -0.1924 -0.1530  0.0423
29192W        W45666   4.969   3.711  12.699  0.1480  0.0258 -0.0220
29193W        W45667   1.327  15.775   4.979 -0.4043  0.2540 -0.0640
29194W        W45668   9.112  12.175   0.968  0.0652 -0.0852 -0.0683
29195W        W45669  15.793   3.004  14.499 -0.2479 -0.3119 -0.0040
29196W        W45670   8.847  10.309   0.303 -0.1222  0.0572 -0.3187
29197W        W45671  15.343   4.492   2.422 -0.2191  0.0378  0.0348
29198W        W45672   9.217   8.270  14.585  0.2199  0.1484 -0.0189
29199W        W45673   0.804  13.426  14.702 -0.1474  0.0740 -0.1475
29200W        W45674   1.099   2.574  15.951  0.0794  0.1115  0.1034
29201W        W45675   5.323   0.257  15.099  0.0591 -0.0540  0.1876
29202W        W45676  15.059   3.788   5.624 -0.2119  0.0346  0.0675
29203W        W45677   9.605   9.900   1.380  0.1269 -0.0814 -0.2148
29204W        W45678   4.777  15.980  14.368  0.0461  0.1043  0.0856
29205W        W45679  12.486   8.144  16.168  0.1846  0.2332  0.4191
29206W        W45680  10.774   1.745  13.970  0.0344  0.2408 -0.1481
29207W        W45681  16.042  13.051   0.615  0.0566 -0.0680  0.2291
29208W        W45682  13.829  13.308   1.727  0.0312 -0.0994  0.2781
29209W        W45683   7.632  12.402  12.313  0.1429  0.0010 -0.1138
29210W        W45684   5.652  10.312   1.012 -0.1341  0.1608 -0.2196
29211W        W45685  10.648   7.667   1.612 -0.1524  0.1042  0.0577
29212W        W45686   9.356   8.777  12.570  0.0118  0.2566  0.1580
29213W        W45687   0.928  11.167   3.958  0.0921  0.0728  0.2361
29214W        W45688  13.905  14.447   3.401 -0.0222 -0.0786 -0.2553
29215W        W45689   4.406   5.055   2.873  0.1722 -0.1363  0.0494
29216W        W45690  15.674  12.522  16.348  0.0432  0.0429 -0.3849
29217W        W45691   3.704   5.129  12.478 -0.1315  0.0545  0.2400
29218W        W45692  16.256   2.584   2.527  0.1603  0.1971 -0.0727
29219W        W45693  13.897  14.795   1.743  0.0733 -0.0782 -0.1328
29220W        W45694  15.423   9.336  15.501  0.2496 -0.2568  0.0815
29221W        W45695  12.677   7.350   3.220  0.0336 -0.0574  0.1077
29222W        W45696  13.086  10.526  12.905  0.1488 -0.2787  0.1720
29223W        W45697   2.195   1.430   0.020  0.0137  0.0536 -0.0148
29224W        W45698  13.033   3.409   0.749 -0.3714 -0.2251  0.1153
29225W        W45699   7.581   5.424   5.910  0.2006  0.0198  0.1594
29226W        W45700   8.592  11.340   1.518 -0.3714 -0.1026  0.0515
29227W        W45701  11.012  12.789  12.445 -0.1116 -0.3058 -0.1673
29228W        W45702   5.842  11.564  14.288  0.0043 -0.0762  0.3978
29229W        W45703  17.671   1.860   2.978 -0.0337 -0.1135  0.0784
29230W        W45704  14.918   6.362  14.769  0.2389 -0.1469  0.4023
29231W        W45705  11.434   2.451  11.643 -0.1433 -0.0966 -0.1243
29232W        W45706  17.272   2.123   2.916 -0.0845  0.0232  0.2380
29233W        W45707   4.716   9.551   5.059 -0.2328  0.3753  0.0392
29234W        W45708  10.224  16.894   3.409  0.2190  0.0562 -0.0736
29235W        W45709  11.267   7.989  16.017  0.0518 -0.0557 -0.3432
29236W        W45710   5.291  12.219  12.457 -0.2092  0.1568  0.0905
29237W        W45711   5.255  13.591   2.894  0.2131 -0.1383  0.0352
29238W        W45712  18.010   1.821   4.656  0.0475  0.0392  0.1665
29239W        W45713   8.736  11.019   1.120 -0.1454  0.1801  0.1714
29240W        W45714  13.874   6.741  15.890 -0.0353 -0.0404  0.4030
29241W        W45715  11.268   7.059   1.314  0.1034  0.2753 -0.0293
29242W        W45716   3.491   5.893   2.077 -0.0367  0.0240 -0.2304
29243W        W45717   9.638  13.715  13.916 -0.2283 -0.1499  0.0758
29244W        W45718  10.271  18.178   1.698 -0.0818  0.1197  0.5446
29245W        W45719  17.297  13.758   1.535 -0.0445  0.1223 -0.2200
29246W        W45720   0.929   1.358   6.024  0.1030 -0.0968 -0.2625
29247W        W45721  10.462  12.418  12.348  0.2423 -0.0853 -0.0181
29248W        W45722  13.193  10.142  15.313  0.3737 -0.2341 -0.2841
29249W        W45723  10.850   8.815  13.621  0.1966 -0.3067 -0.2776
29250W        W45724   7.383  13.635  12.916  0.2287  0.1726  0.0539
29251W        W45725  15.262   6.095  10.553  0.2506 -0.1680 -0.1469
29252W        W45726   9.608  16.597   0.456  0.0482 -0.0141  0.4785
29253W        W45727   7.715   9.151  12.319 -0.2773 -0.1188 -0.2145
29254W        W45728   2.102  11.943  14.037  0.0690  0.2692  0.1211
29255W        W45729   4.160  11.469  15.171 -0.1313  0.0757  0.1882
29256W        W45730  17.676   4.372   1.116  0.0559  0.1525  0.1612
29257W        W45731   0.638  14.590   4.965  0.1326  0.1612 -0.0048
29258W        W45732  16.230  17.758   3.515  0.0380  0.2435  0.0923
29259W        W45733  15.696  11.722   1.617  0.0761  0.2887  0.6082
29260W        W45734   4.088   4.720   4.694  0.0822  0.0096  0.0409
29261W        W45735   8.224   9.381   2.272  0.1613  0.2058 -0.1104
29262W        W45736  15.209  11.556  13.657 -0.0729  0.0132  0.8076
29263W        W45737   5.409  16.847  14.911  0.2089  0.0462  0.1441
29264W        W45738   2.932   9.597   2.552  0.0198  0.1474  0.2213
29265W        W45739  16.302   1.765  15.982  0.1861 -0.1293 -0.0337
29266W        W45740  10.505   2.853   1.827 -0.0414 -0.0760  0.0215
29267W        W45741  17.618  11.994  11.661  0.0947  0.1148 -0.0147
29268W        W45742   3.586  13.514   3.767 -0.1646 -0.1584 -0.0682
29269W        W45743  11.263   2.105  13.223 -0.1487 -0.0800 -0.0122
29270W        W45744   8.336   2.106   1.696  0.0581 -0.0162  0.4695
29271W        W45745   7.146   1.463  16.187  0.0150  0.0767  0.0088
29272W        W45746  15.718   5.761  12.313  0.0208 -0.0502  0.0476
29273W        W45747  14.567  12.598  12.430 -0.0909 -0.0196 -0.2037
29274W        W45748   4.168  15.041   0.402  0.2538 -0.2241 -0.4629
29275W        W45749   1.878   8.899   3.729 -0.2279  0.0003 -0.1342
29276W        W45750  17.230   2.767   3.257 -0.1027 -0.1084 -0.0810
29277W        W45751  14.029  10.045   2.308  0.2466  0.1490  0.2277
29278W        W45752  16.181   6.435  10.841 -0.1431 -0.1942  0.0577
29279W        W45753  13.822  11.072  16.336  0.0810  0.1905 -0.0284
29280W        W45754   2.784  17.909   0.183  0.0323  0.3222  0.2463
29281W        W45755  17.467   5.346   5.191  0.1484  0.1628 -0.2088
29282W        W45756  11.324   4.287  12.780  0.1330 -0.0666 -0.1424
29283W        W45757   1.643   1.566   1.723 -0.0175 -0.1611 -0.0218
29284W        W45758  12.406   1.682   4.101 -0.1304  0.2018  0.1193
29285W        W45759  10.799  14.211   0.905 -0.0374  0.3425  0.1419
29286W        W45760  15.777  15.997  12.262  0.0754 -0.1379 -0.1610
29287W        W45761  14.778   0.941  11.604  0.2738  0.2900  0.1450
29288W        W45762  16.934   8.787   5.780 -0.0725  0.1637  0.0056
29289W        W45763  11.522   2.483   3.266 -0.2463  0.0104 -0.0133
29290W        W45764  16.107   8.893   1.244 -0.3417  0.0300 -0.0394
29291W        W45765   6.404   7.977  13.997  0.0994  0.2754  0.0722
29292W        W45766  16.717   0.781  12.074  0.1406  0.0508  0.0352
29293W        W45767  15.488   9.750   4.462  0.0278  0.0669 -0.0522
29294W        W45768   0.341   8.379   3.912  0.0604  0.0208 -0.0845
29295W        W45769  15.929  16.298  15.746 -0.1633 -0.0437 -0.0830
29296W        W45770   2.100  12.699   2.801  0.1812 -0.0058 -0.1842
29297W        W45771   2.512  11.902  14.290 -0.0239 -0.1512  0.0899
29298W        W45772   9.284   0.575  14.047 -0.2564  0.2006 -0.2128
29299W        W45773   4.593  12.400   3.822  0.0146 -0.0465  0.2124
29300W        W45774  13.541   4.654  12.691 -0.0667  0.0500  0.2157
29301W        W45775  11.032   0.792  13.544 -0.1804 -0.1282 -0.1761
29302W        W45776   5.988  15.800  13.292  0.0884  0.4213 -0.2882
29303W        W45777  10.340  10.598  12.855  0.0345 -0.3265  0.0539
29304W        W45778  12.733   1.769   2.765  0.2197  0.1230  0.0434
29305W        W45779   3.006  12.485  10.244 -0.2273  0.1375 -0.0845
29306W        W45780  14.889  13.204  15.661  0.1280  0.0962  0.0966
29307W        W45781   0.923  12.813  12.421  0.1913 -0.3908 -0.2291
29308W        W45782   6.856   4.710   2.096 -0.2419 -0.1673 -0.0398
29309W        W45783   8.703   1.576   2.532  0.2066  0.1402 -0.0680
29310W        W45784   4.594   8.823   4.475  0.1539  0.2128 -0.0583
29311W        W45785  11.465  13.556  12.605 -0.0703 -0.0160 -0.0601
29312W        W45786   2.192   2.663   1.237 -0.3370  0.0090  0.1389
29313W        W45787  17.664   9.462  14.424 -0.2962  0.0488 -0.0719
29314W        W45788  14.587   2.065   4.986  0.0503  0.1355  0.4749
29315W        W45789  15.869  15.537  12.582 -0.0149 -0.0013  0.2535
29316W        W45790  14.365  13.935  15.396  0.0514 -0.3677 -0.1527
29317W        W45791  16.771   4.765  12.122  0.2407  0.0169 -0.0673
29318W        W45792  15.157  16.340   3.490  0.0383 -0.1255 -0.2394
29319W        W45793  14.667  16.484   3.743 -0.2142  0.1472  0.4039
29320W        W45794  16.491  17.209  11.678  0.2683  0.0711  0.2594
29321W        W45795   4.944   6.113   2.660  0.1468 -0.1091  0.1582
29322W        W45796  13.775   0.477   3.690  0.3876  0.1675 -0.0169
29323W        W45797  15.317  10.463   0.944 -0.0565  0.1737  0.2442
29324W        W45798   7.313   4.127  15.122 -0.0458  0.1589 -0.0026
29325W        W45799   3.767  16.465  12.199  0.0075  0.2808  0.2344
29326W        W45800   4.839   6.358   4.464 -0.0241 -0.0903  0.1957
29327W        W45801   5.633  15.316  14.589 -0.1284 -0.1285 -0.0064
29328W        W45802   2.994  17.228  13.421 -0.1132  0.1577 -0.0351
29329W        W45803  10.284  11.060   1.097  0.0058 -0.0697 -0.0517
29330W        W45804   6.191  16.303   4.524  0.3982 -0.0254 -0.2729
29331W        W45805   2.558  10.948  13.342 -0.5228  0.1079  0.0802
29332W        W45806   6.119   5.145   0.883 -0.3588  0.0154  0.4422
29333W        W45807  10.286  14.969   0.919  0.2330 -0.1054 -0.0480
29334W        W45808  12.254   0.417  12.642  0.2326 -0.1076 -0.3829
29335W        W45809  17.510  11.792  12.360  0.0810  0.3410  0.1195
29336W        W45810   6.474   3.658  16.358  0.1682 -0.2289  0.1441
29337W        W45811  13.970  16.683  11.633 -0.0229  0.2104 -0.0774
29338W        W45812  10.527  16.927  12.476  0.0735  0.1454 -0.0387
29339W        W45813  16.753  11.597  13.806  0.2020  0.0813  0.0063
29340W        W45814   1.662   8.468  15.392  0.2574 -0.1511 -0.0474
29341W        W45815   3.944   3.132   5.872  0.2724  0.0409  0.3663
29342W        W45816  16.783   7.808  11.796  0.0012  0.1014  0.1470
29343W        W45817   6.359   0.272   4.793 -0.0630 -0.0854  0.1980
29344W        W45818   6.281   1.427   3.630  0.1334  0.3347 -0.3680
29345W        W45819  11.832  12.191   2.101 -0.0540 -0.1922 -0.0675
29346W        W45820   6.471  12.692  13.961  0.3813 -0.2740  0.1708
29347W        W45821  16.576   5.583  11.212 -0.0157 -0.4172 -0.2470
29348W        W45822   0.393  11.668   4.821  0.1466  0.0078  0.1371
29349W        W45823   1.549  11.927  11.904 -0.0495 -0.3859 -0.0290
29350W        W45824   1.845   5.333  11.757 -0.2308  0.1700  0.0905
29351W        W45825   4.319  13.401  14.312 -0.4162 -0.0652 -0.0587
29352W        W45826   3.209   4.449  13.783 -0.1464 -0.1285 -0.2466
29353W        W45827   5.942  10.744   1.468  0.0742  0.0863  0.0143
29354W        W45828   2.993  10.066  14.716 -0.1068 -0.0912  0.1335
29355W        W45829  12.244   6.055   4.660  0.0118 -0.1810 -0.2710
29356W        W45830  15.931  13.423   3.447  0.1183 -0.2062  0.1357
29357W        W45831  11.691   3.712   5.598  0.0026  0.0389 -0.1061
29358W        W45832   9.274   0.872   2.777 -0.0697 -0.0795 -0.1993
29359W        W45833   2.693   0.240  14.147 -0.0337 -0.4930  0.1900
29360W        W45834  17.003   9.880   5.204  0.1695  0.2817  0.4242
29361W        W45835  16.212  17.980  11.463 -0.3718 -0.2298  0.1923
29362W        W45836  16.579   1.645   2.250 -0.2402  0.3020  0.0637
29363W        W45837  14.563   4.977  13.553 -0.3078  0.0513 -0.1105
29364W        W45838  13.755   1.201  11.600 -0.2511 -0.0657  0.0420
29365W        W45839   3.924   9.655  11.577  0.2106 -0.0674 -0.4132
29366W        W45840   0.558   8.205   0.311  0.0057 -0.4440 -0.2586
29367W        W45841  14.594   8.344   5.732 -0.1701 -0.0804  0.2397
29368W        W45842   4.717  16.987   2.982 -0.3520 -0.3973 -0.1313
29369W        W45843  12.025  14.574   6.244  0.2435 -0.1640 -0.1482
29370W        W45844  10.282   7.391   2.008 -0.2187 -0.2639  0.1789
29371W        W45845   0.182  12.010   1.234  0.1846  0.0176 -0.1088
29372W        W45846  16.296   4.828   1.587  0.1802 -0.0564  0.0673
29373W        W45847  16.780   6.503   4.306  0.0975 -0.0208 -0.0124
29374W        W45848   3.552   0.659  16.326 -0.0913 -0.0288  0.2725
29375W        W45849   1.457   9.000  12.501  0.1838 -0.0728  0.1972
29376W        W45850   4.812  10.215  12.809 -0.1221 -0.0700  0.0802
29377W        W45851   0.857  12.132  15.502  0.2554  0.2637 -0.1364
29378W        W45852   5.402  12.983   1.275  0.0296  0.2608  0.5010
29379W        W45853   6.478   9.757  16.013 -0.2716 -0.0333 -0.1029
29380W        W45854  15.914  14.532   4.330  0.2013 -0.2398 -0.0670
29381W        W45855  16.496  17.829   0.508  0.3244 -0.0868  0.0840
29382W        W45856   2.112   5.834  11.756  0.1566 -0.1952 -0.1436
29383W        W45857  16.743   6.784  16.005  0.0388  0.0645 -0.0130
29384W        W45858  11.009   8.122  14.990 -0.4875 -0.2555  0.1432
29385W        W45859  10.116  15.942   3.661 -0.0140 -0.0542 -0.0376
29386W        W45860   8.256  13.972  11.974 -0.1079  0.0682 -0.4963
29387W        W45861   0.091  15.178   4.448 -0.2548  0.1010 -0.0619
29388W        W45862   1.456   0.109  16.210  0.0569 -0.1788  0.1829
29389W        W45863  12.438  14.629  16.226 -0.0423  0.1737  0.0462
29390W        W45864  16.854   2.801  16.012  0.0402  0.1724  0.2809
29391W        W45865  17.886   6.178  14.340  0.2039 -0.2531 -0.1631
29392W        W45866   2.131  15.028   1.726 -0.3218 -0.1239  0.1945
29393W        W45867  17.256   1.162  14.052  0.1357  0.1878  0.0269
29394W        W45868   5.112  16.403   3.664  0.1310 -0.1627 -0.2470
29395W        W45869   6.544  16.177  11.999 -0.0170 -0.2114 -0.2108
29396W        W45870   4.218  17.685  10.933 -0.1153  0.0245  0.1094
29397W        W45871  15.485   5.600   0.949 -0.0126 -0.0499 -0.1566
29398W        W45872  11.021   0.436  15.657  0.1957  0.0785 -0.0647
29399W        W45873  12.560  15.931  13.987 -0.0074  0.0323 -0.1017
29400W        W45874   1.995  15.030   0.814  0.1457 -0.1026 -0.3555
29401W        W45875   8.027  10.654  14.685 -0.3034 -0.0265 -0.4412
29402W        W45876  11.534  13.278   1.257 -0.0502 -0.0729 -0.1033
29403W        W45877   7.599   4.880  14.301  0.0283  0.2893 -0.1804
29404W        W45878   2.174   0.334   5.681  0.0844 -0.1350  0.0263
29405W        W45879  18.169   3.789   4.025  0.0121  0.1722 -0.1869
29406W        W45880  14.029   3.268  10.968  0.3120 -0.4370  0.2335
29407W        W45881  14.628   5.168   0.811  0.1238  0.0004 -0.1487
29408W        W45882  13.644  15.634   1.828  0.3256  0.3475 -0.0900
29409W        W45883   0.119   2.408  10.262  0.3785  0.2291  0.1467
29410W        W45884   5.048   7.628   4.414 -0.3573 -0.0645  0.2983
29411W        W45885   2.287  15.037  15.935 -0.0434 -0.0738  0.2134
29412W        W45886   2.013   9.949   2.140  0.1042 -0.2281  0.2184
29413W        W45887   3.290  14.388  15.158 -0.0664 -0.2016  0.2690
29414W        W45888   0.210  14.826  14.335  0.0204 -0.0062  0.1594
29415W        W45889  14.508  11.977   0.720  0.1678  0.1330 -0.0054
29416W        W45890   6.737   5.809  13.924  0.0334  0.0963  0.0973
29417W        W45891   3.948  14.977   1.500  0.1591  0.2737 -0.1017
29418W        W45892   8.638  10.899   3.068  0.1895 -0.0620 -0.3516
29419W        W45893  14.419   9.746   4.603  0.0127  0.0420  0.0504
29420W        W45894   9.662   0.882   2.472  0.0001 -0.0207  0.0043
29421W        W45895   1.365  15.070   0.423  0.0033 -0.2068 -0.0227
29422W        W45896  11.558  15.797   5.472  0.1218 -0.1227 -0.0508
29423W        W45897   7.031  11.087   4.647  0.1800 -0.2117 -0.0155
29424W        W45898  15.146   4.172  13.559  0.1325  0.0166  0.4063
29425W        W45899   9.680   2.949   2.400  0.0733  0.1576 -0.2605
29426W        W45900   8.639  15.840  16.147  0.0276 -0.2149  0.0362
29427W        W45901   4.715  14.205   0.048  0.1450 -0.0056 -0.1434
29428W        W45902  12.984   8.933   2.286  0.2448 -0.0062 -0.1745
29429W        W45903   8.315  11.181  11.048 -0.1410 -0.2607  0.1232
29430W        W45904   0.433  16.194   2.833  0.0046 -0.1686  0.2334
29431W        W45905   1.688  17.764   5.161 -0.0393 -0.0324  0.0153
29432W        W45906   4.611   5.954  14.761  0.2810  0.0233 -0.0518
29433W        W45907  15.467  11.602   4.514  0.0233 -0.1220  0.2498
29434W        W45908   4.654  16.845  12.043 -0.1473  0.1379 -0.0850
29435W        W45909   0.068   7.176   3.119  0.1615 -0.0668 -0.0204
29436W        W45910   9.209  16.427  12.604  0.2284  0.0926 -0.0456
29437W        W45911   4.389  17.826   3.001 -0.0841 -0.0665  0.0191
29438W        W45912   1.588  16.521  15.072  0.1590  0.1574  0.3944
29439W        W45913   0.385   6.688  14.036  0.0471 -0.3873 -0.2304
29440W        W45914  14.019  12.731   0.303 -0.1900 -0.2255 -0.2152
29441W        W45915  13.161  13.138   3.972 -0.0113 -0.0761  0.1414
29442W        W45916  17.483  13.960  15.703 -0.1281 -0.2768  0.0052
29443W        W45917   0.649  12.295   1.424 -0.3611  0.3455 -0.1749
29444W        W45918  16.777  17.446   4.647 -0.1654  0.0048 -0.2350
29445W        W45919  16.018   1.831  11.833 -0.0042 -0.0468 -0.3107
29446W        W45920  10.647   9.951   2.174  0.1022 -0.1989  0.0580
29447W        W45921   7.863   8.988   3.819  0.0150  0.0178  0.0415
29448W        W45922   4.227   5.607   4.179 -0.3144  0.0049  0.0321
29449W        W45923  10.791   4.080   4.259  0.1811  0.0569 -0.0458
29450W        W45924   3.012   0.743   4.010  0.2286  0.2092 -0.1210
29451W        W45925   6.503   5.478  15.236  0.0878  0.1771 -0.1074
29452W        W45926  12.163  17.846   4.958  0.0769 -0.1828 -0.3750
29453W        W45927   8.811   3.369   0.415  0.1067  0.1052  0.2759
29454W        W45928   9.989  14.726  12.216 -0.0196  0.1751  0.0928
29455W        W45929  18.113   2.613  12.713 -0.1013  0.0322  0.1013
29456W        W45930   4.277   3.697  12.546 -0.0539  0.0801  0.1276
29457W        W45931   0.575  14.416   1.958 -0.0333 -0.0794 -0.1316
29458W        W45932   3.541  10.307   2.326  0.2720  0.0087 -0.0482
29459W        W45933   5.428  15.225  12.457  0.1610  0.0094  0.0767
29460W        W45934   9.764   0.758  14.200  0.1825 -0.1412 -0.0054
29461W        W45935   8.281   4.278  14.760 -0.2691 -0.0054 -0.1225
29462W        W45936   3.953   2.818  14.117 -0.0801  0.0145  0.3475
29463W        W45937   4.169   5.650   1.629 -0.2253 -0.1123  0.0448
29464W        W45938  13.297  15.489  15.626  0.0716  0.0904  0.0436
29465W        W45939   7.773  14.915   5.418 -0.3369  0.1185  0.0992
29466W        W45940   5.912   0.508   1.098  0.0439  0.1108  0.1067
29467W        W45941   9.054   3.148  13.863 -0.1859 -0.0788 -0.2301
29468W        W45942   4.681   9.825   1.564  0.0078  0.0345  0.1401
29469W        W45943   1.288   8.234   3.575 -0.0526  0.1570  0.0733
29470W        W45944   6.539   0.406   1.829 -0.0571 -0.0673  0.0136
29471W        W45945   0.164  11.925  13.454  0.2266 -0.0067  0.2323
29472W        W45946  16.653   9.616   5.515 -0.3280 -0.0513 -0.2665
29473W        W45947  15.332  11.747  13.092  0.2524 -0.0409  0.1609
29474W        W45948   7.945   2.660   5.256 -0.0637 -0.0437 -0.2284
29475W        W45949  15.944   4.218   0.226  0.2789 -0.1154 -0.1855
29476W        W45950  11.957  16.718   0.763 -0.2562 -0.1943 -0.1368
29477W        W45951   6.226   3.710   4.931 -0.1580  0.3353 -0.0247
29478W        W45952   7.924   7.962   4.135  0.1413  0.0601  0.0742
29479W        W45953  12.381  14.845  13.079 -0.4253  0.0529  0.0792
29480W        W45954   6.205  11.436   2.547 -0.0230 -0.2342 -0.3805
29481W        W45955   0.339   7.836  13.149 -0.0388  0.0090  0.1851
29482W        W45956  12.694   5.517   0.166 -0.1669  0.3326  0.3492
29483W        W45957   3.701   2.809   0.112  0.5523 -0.1348  0.1657
29484W        W45958   7.818   5.848   4.298  0.1270 -0.1019 -0.1896
29485W        W45959   5.359  11.992  11.982  0.1981  0.3331  0.0921
29486W        W45960   2.715   0.289   4.313 -0.0953 -0.1288 -0.0159
29487W        W45961  10.470  11.295   3.210 -0.1056 -0.0423  0.2717
29488W        W45962  16.226   7.146  14.108 -0.0733 -0.2165 -0.2062
29489W        W45963  10.097  10.223   4.701  0.2119  0.1444  0.1712
29490W        W45964  10.381  12.444  11.371  0.0513  0.1758 -0.0395
29491W        W45965  15.988   1.032   2.175  0.0001 -0.0886  0.1500
29492W        W45966  10.046   4.559  15.103  0.2950 -0.2082  0.0875
29493W        W45967   3.602  11.503   1.253  0.2552  0.0051  0.2920
29494W        W45968   0.465  14.365  14.298  0.0076 -0.2599 -0.0650
29495W        W45969  17.211  13.150  11.873  0.0621 -0.2023 -0.0822
29496W        W45970   9.945  14.794  16.207 -0.0044  0.2515  0.4156
29497W        W45971  13.868   5.144  15.175 -0.0304  0.1716  0.1570
29498W        W45972  13.150  14.163  14.483  0.1078  0.1993  0.1012
29499W        W45973  14.398  12.734  15.679  0.0933  0.2298  0.0756
29500W        W45974  10.107  14.404   4.377 -0.2513 -0.1717 -0.1494
29501W        W45975  11.202  15.584  15.336 -0.0340  0.5433  0.1725
29502W        W45976  16.120  17.737   1.597  0.0662  0.0295 -0.2482
29503W        W45977  15.786   2.113   1.719 -0.0166 -0.2483  0.0113
29504W        W45978   7.963  17.069   1.581 -0.1167  0.0912  0.2200
29505W        W45979   6.777  16.535  11.716 -0.1676  0.2374  0.0446
29506W        W45980   0.228  17.574  11.815  0.1915  0.0845  0.0433
29507W        W45981  13.897   3.364   1.237  0.0654 -0.0405  0.0792
29508W        W45982   9.323  17.677   3.006 -0.1715  0.1554 -0.0720
29509W        W45983  15.622   3.341  13.132  0.0215 -0.1948 -0.1262
29510W        W45984  15.018   5.581   4.101 -0.1945  0.2741 -0.2212
29511W        W45985   5.748  13.395   1.880 -0.1336 -0.0082 -0.1444
29512W        W45986   5.830   5.923  14.271  0.2298 -0.2917  0.0546
29513W        W45987   1.275   8.046   1.984  0.0327  0.0788 -0.2073
29514W        W45988  16.744   1.527  13.408 -0.2725 -0.1467 -0.1882
29515W        W45989   1.350  14.372   1.390  0.1981 -0.2178 -0.0607
29516W        W45990   8.692  13.723  13.418  0.0939 -0.1677  0.0731
29517W        W45991  13.007  15.717   5.348 -0.1449  0.2798  0.1964
29518W        W45992  16.826   1.930   3.987  0.1619 -0.1081 -0.2272
29519W        W45993  15.539   2.854  13.135 -0.3429 -0.0528  0.1357
29520W        W45994  12.516  13.068  11.113 -0.0440 -0.0812  0.0382
29521W        W45995  11.445   0.540  15.311 -0.0976  0.1299  0.1589
29522W        W45996  14.635   6.925  11.449 -0.0765  0.3086  0.2295
29523W        W45997   6.122  10.365   1.790  0.1684  0.0964 -0.1029
29524W        W45998   6.259   1.905   4.791  0.1698  0.2151 -0.0916
29525W        W45999   4.692  11.726  13.808  0.0934  0.0954 -0.0427
29526W        W46000  12.260  16.168   1.009 -0.3036  0.0672  0.0646
29527W        W46001  15.477   3.156  14.119  0.0637 -0.3601  0.3742
29528W        W46002   6.514   6.345  16.364 -0.0079 -0.0639 -0.0734
29529W        W46003  17.846   5.255  15.048 -0.3377  0.0143 -0.0493
29530W        W46004  15.244   8.360  12.815 -0.3124 -0.0294 -0.0792
29531W        W46005   7.885   2.440   3.430  0.0316  0.2062 -0.2195
29532W        W46006  12.076   1.063   4.866 -0.0223 -0.0806 -0.2548
29533W        W46007  15.701   2.347  13.185  0.2000 -0.0755 -0.3346
29534W        W46008  14.671   8.678   3.123 -0.0805  0.0744 -0.0100
29535W        W46009  11.090  11.747  12.595  0.1746  0.3250 -0.3805
29536W        W46010  17.667  13.076  11.985 -0.1473 -0.0715 -0.2159
29537W        W46011   2.830  11.868  10.883  0.2204 -0.1367  0.3937
29538W        W46012   1.433   2.469  10.546  0.1687  0.3813  0.0365
29539W        W46013   3.502  14.180   2.126  0.0120  0.0578  0.0762
29540W        W46014  11.381  12.361   4.019 -0.0727 -0.2717 -0.1931
29541W        W46015  12.154   9.485   1.475  0.2204  0.4918 -0.1896
29542W        W46016   9.908  12.187   2.918 -0.0477 -0.4239 -0.0578
29543W        W46017   9.806  12.957  12.213 -0.0337  0.1976  0.1829
29544W        W46018  16.652  15.097  14.909 -0.2453  0.0362  0.1705
29545W        W46019  15.944   4.796  12.039 -0.0336  0.0083  0.1457
29546W        W46020   1.495   5.784  14.632  0.1560  0.0615 -0.2866
29547W        W46021   9.811  16.733   4.448 -0.0111 -0.0812 -0.3267
29548W        W46022   8.687   0.828   3.015 -0.0894 -0.3607 -0.2336
29549W        W46023   3.489   2.631   4.582 -0.2890 -0.0973  0.0887
29550W        W46024  15.338   1.940   3.788  0.1841  0.0152  0.0976
29551W        W46025   4.495   5.446   0.711  0.0537  0.0894  0.0674
29552W        W46026  11.488   5.537  11.604  0.0277  0.0103 -0.1070
29553W        W46027   4.133  16.508  14.875 -0.1160 -0.1457  0.3160
29554W        W46028  14.341  12.673   1.145  0.1694  0.0030  0.1660
29555W        W46029  13.106  12.260  11.897  0.2022 -0.0234 -0.1418
29556W        W46030  17.766   5.213   0.783  0.1962  0.0206  0.1528
29557W        W46031  14.315   3.102  12.408  0.1652 -0.0856 -0.0109
29558W        W46032   7.331   7.478   0.140 -0.1229 -0.1211  0.1185
29559W        W46033  10.764  14.056  15.329 -0.2806  0.0739  0.2533
29560W        W46034   1.093  11.019   0.186  0.1042  0.4044 -0.2575
29561W        W46035  17.210   3.916   4.376 -0.1682  0.0262 -0.1087
29562W        W46036   1.263   1.284  14.789 -0.1571 -0.2329 -0.2958
29563W        W46037  14.916   1.198   1.909  0.1288  0.0662 -0.1865
29564W        W46038  17.306   1.373  10.332  0.0049 -0.0382  0.4800
29565W        W46039  14.656  16.687  12.668  0.1698  0.3331  0.1686
29566W        W46040  11.700  17.542  15.989 -0.3371 -0.0245 -0.2055
29567W        W46041  17.389  13.251  14.234 -0.1346  0.1311 -0.1924
29568W        W46042  16.393   2.199  14.873  0.0646 -0.2518 -0.1585
29569W        W46043   2.833  12.152   4.783 -0.2381  0.0296 -0.1486
29570W        W46044  18.146   8.318  15.016  0.0051  0.0155  0.1014
29571W        W46045   1.505  17.696  13.342  0.1642 -0.2857 -0.3320
29572W        W46046   8.974   3.016   3.148 -0.0568 -0.2483  0.0253
29573W        W46047  14.384   5.556   5.059  0.0361 -0.0838 -0.2870
29574W        W46048   2.418   2.787  14.117 -0.0727 -0.2473  0.2917
29575W        W46049   9.168   4.078  15.746  0.2306 -0.3484  0.1067
29576W        W46050   0.045   2.934   1.179 -0.2331  0.3532  0.2494
29577W        W46051  16.344   1.556  14.615 -0.1533  0.3036  0.1797
29578W        W46052   4.536   8.156   1.212 -0.1328 -0.0403 -0.1274
29579W        W46053   8.740   9.611  12.013 -0.2011 -0.0879  0.0297
29580W        W46054  12.201  18.003   1.380  0.1646 -0.0347  0.1380
29581W        W46055  11.524  14.747   2.990  0.3626 -0.0016 -0.1502
29582W        W46056  14.754   1.371  14.720  0.0340  0.1837 -0.2552
29583W        W46057  12.758   4.824   1.784 -0.3709  0.0281  0.1257
29584W        W46058   6.890  12.267   3.135  0.0596 -0.0179 -0.0919
29585W        W46059   6.071   0.243  13.810  0.0375  0.1127 -0.2263
29586W        W46060   0.727   2.701  14.454  0.1333  0.1859 -0.0145
29587W        W46061   3.646   0.221   0.235 -0.0872  0.2818 -0.3311
29588W        W46062  15.983   0.350  10.874  0.1935 -0.1324  0.0521
29589W        W46063   7.320   2.065  10.907  0.2609 -0.2014 -0.0997
29590W        W46064  14.421   6.293  12.567 -0.0724 -0.0257  0.1054
29591W        W46065   6.540  14.397  12.355  0.0050  0.0889 -0.0487
29592W        W46066   6.776  13.566   4.906 -0.0400  0.0429 -0.1843
29593W        W46067  17.794  15.247   2.411 -0.2813 -0.1161  0.3124
29594W        W46068  13.996  14.811  12.250  0.1354  0.0376  0.0301
29595W        W46069  13.354  10.857   5.701 -0.1432 -0.2415 -0.0360
29596W        W46070   8.411  13.267   1.070  0.1544  0.1322  0.1662
29597W        W46071  15.436   0.330   1.698 -0.2568  0.2309  0.0132
29598W        W46072   4.005   9.553  12.076  0.0471 -0.2120 -0.3245
29599W        W46073  11.452   4.399   1.240  0.1629 -0.0848  0.0560
29600W        W46074  16.824  17.753   5.416  0.0427  0.3503  0.1241
29601W        W46075   5.292   2.717   3.536 -0.0985 -0.2005 -0.4516
29602W        W46076  16.684  17.081  13.321  0.0332 -0.0874 -0.2213
29603W        W46077   0.267  11.881  12.483 -0.1999  0.1431 -0.2431
29604W        W46078   2.567   2.417   0.044  0.1456 -0.1837 -0.0407
29605W        W46079   7.242  13.889   4.901 -0.0667 -0.0142  0.0154
29606W        W46080  18.001  11.346   1.912 -0.1929 -0.3151 -0.1809
29607W        W46081   8.924  10.924  15.248 -0.1620  0.1545  0.0762
29608W        W46082   3.360  16.709  15.371  0.0357  0.2431 -0.1785
29609W        W46083   2.500   9.532   2.168  0.0437 -0.2275  0.2640
29610W        W46084  15.995  12.805   1.067  0.0323 -0.2575  0.0999
29611W        W46085  14.021   3.120   1.677 -0.1153  0.1116  0.0859
29612W        W46086  12.681  11.774   0.652  0.2601  0.4497 -0.2464
29613W        W46087   6.164  10.608  16.047 -0.0141  0.1745 -0.1109
29614W        W46088  15.711   6.881   1.711  0.1314 -0.2499  0.0760
29615W        W46089   0.305   8.469   4.531  0.2426 -0.1597  0.1776
29616W        W46090   2.238  17.449  14.211 -0.1339 -0.1585  0.0106
29617W        W46091  15.588  15.108   4.240  0.0368  0.1308  0.1736
29618W        W46092   6.148  16.759   4.773 -0.0856  0.0358 -0.1699
29619W        W46093   0.598   8.268   5.704 -0.2323 -0.2658  0.0794
29620W        W46094   1.167   2.674   4.697 -0.1427 -0.0873 -0.0060
29621W        W46095  15.510   2.460  16.279  0.1621  0.2800 -0.1573
29622W        W46096  16.733  14.522   1.116  0.0952 -0.2085 -0.0964
29623W        W46097   4.406   5.836   2.011  0.5262  0.2127  0.0275
29624W        W46098  14.194  16.628   5.554 -0.1147 -0.1899 -0.0490
29625W        W46099  12.815   3.408   5.474 -0.1506 -0.0435 -0.0497
29626W        W46100  16.142   4.622  11.515  0.0454  0.2066  0.0340
29627W        W46101   1.651   3.154   0.725  0.2514  0.2250  0.3403
29628W        W46102  13.764   8.069   5.363  0.0558  0.0643  0.0399
29629W        W46103   3.776  17.936   1.920 -0.1217 -0.2181  0.0234
29630W        W46104   8.725   0.213   0.470 -0.0187  0.1927  0.0780
29631W        W46105   0.354  18.065   3.151  0.0142 -0.1436 -0.0611
29632W        W46106  16.985   5.804  13.797  0.3985  0.0055  0.1726
29633W        W46107   8.259   7.576   5.398  0.1612  0.2126 -0.0250
29634W        W46108  16.961   4.613  11.155  0.0459  0.3062  0.1963
29635W        W46109   9.778   7.976   4.818  0.2850 -0.1078 -0.0075
29636W        W46110   6.003   3.036  11.349  0.2260  0.2575  0.0443
29637W        W46111  12.004  15.116   3.566 -0.4159 -0.0273  0.2967
29638W        W46112  15.224  13.335  12.019  0.1942 -0.0041 -0.0951
29639W        W46113  14.366  15.212  11.941  0.4570  0.0003 -0.1878
29640W        W46114   4.592   6.535   4.852  0.2107 -0.1739  0.0541
29641W        W46115   7.071  16.094  15.655 -0.0820  0.0429  0.1646
29642W        W46116   0.595   0.921   0.748  0.0242  0.2414 -0.2129
29643W        W46117   5.389  10.782  12.338  0.0705 -0.0989  0.4126
29644W        W46118   7.484  11.135   4.173 -0.2679 -0.1250  0.1532
29645W        W46119   5.737   2.511  15.565  0.0345 -0.1926  0.0730
29646W        W46120   2.685  17.432   2.232 -0.0099  0.1240 -0.1701
29647W        W46121   5.786  11.134  14.550  0.1953  0.1692  0.1396
29648W        W46122   9.311   7.713  15.286  0.2315 -0.0533 -0.2646
29649W        W46123  17.098   6.860   1.570  0.1426 -0.1568 -0.1096
29650W        W46124   6.849   8.252   2.522 -0.0848 -0.0080  0.2399
29651W        W46125   7.096   2.051  15.833  0.3692  0.1093 -0.2197
29652W        W46126   5.136   8.831  12.495  0.1835  0.1037 -0.0020
29653W        W46127  14.594   2.051  13.089 -0.0349  0.1290  0.1280
29654W        W46128   3.464  13.270  16.214  0.1296 -0.2104  0.1676
29655W        W46129  16.383  16.497  15.882 -0.3525  0.0787 -0.1793
29656W        W46130   8.069  11.323  11.547  0.2661 -0.0384  0.2227
29657W        W46131   0.887  13.747  13.182  0.1624 -0.1632  0.1110
29658W        W46132  16.667  11.728   5.722  0.5168  0.2289 -0.1152
29659W        W46133   6.343  14.598  12.808 -0.2674 -0.1110 -0.1292
29660W        W46134  16.050   8.309   2.881 -0.0142  0.1597 -0.0714
29661W        W46135   5.610   3.012  13.864  0.0430  0.0897  0.1767
29662W        W46136  16.027   1.040  11.538  0.1889 -0.0173  0.2727
29663W        W46137   2.213   2.846  13.322 -0.0692  0.0863  0.1418
29664W        W46138  17.990  14.691   5.012  0.1873  0.1158 -0.1094
29665W        W46139   6.132  15.431   3.014 -0.3948  0.1005 -0.1302
29666W        W46140  11.958   7.907  14.961 -0.1963 -0.0075 -0.1317
29667W        W46141  13.922   2.918  12.041 -0.0465  0.1682 -0.1393
29668W        W46142   6.615   2.644   0.544  0.0635 -0.0824  0.4656
29669W        W46143  11.654   1.624  12.270  0.3467 -0.0813 -0.0695
29670W        W46144   1.719  14.610   0.607 -0.3308 -0.3816 -0.3789
29671W        W46145   9.506  15.990  15.707  0.0866 -0.0292  0.0774
29672W        W46146   1.457  12.262   2.662  0.3400 -0.2105  0.2203
29673W        W46147   7.708   5.445  14.302 -0.2158  0.3058 -0.1569
29674W        W46148  10.112  10.805  14.678 -0.2893  0.2807 -0.0003
29675W        W46149   1.473   4.351   1.845 -0.2658  0.0856  0.0420
29676W        W46150   2.913  15.324   5.301 -0.3102  0.0113  0.0849
29677W        W46151   3.505  17.994  12.776 -0.0889 -0.1082  0.1008
29678W        W46152  15.060   8.540   3.924  0.0099  0.1971 -0.0139
29679W        W46153   0.832  17.257   2.526 -0.0924  0.2115 -0.1695
29680W        W46154  10.427   6.554   0.775 -0.0446 -0.0182  0.1409
29681W        W46155   0.783   7.758   5.690 -0.0216 -0.1856 -0.0161
29682W        W46156   1.975  14.196  11.289 -0.2060  0.2487  0.3407
29683W        W46157   1.197  13.257  10.650  0.1543  0.1126  0.0483
29684W        W46158   8.252  16.178  14.210 -0.0718  0.1130 -0.0763
29685W        W46159   9.264   6.300   4.241 -0.2328  0.1822 -0.1990
29686W        W46160  14.054  16.755  13.445  0.0136 -0.2730 -0.0314
29687W        W46161  13.865  16.236  14.874 -0.0583  0.2924  0.2310
29688W        W46162  16.007   7.550   5.751 -0.0501  0.0267 -0.1010
29689W        W46163   3.580   0.646  12.191 -0.0140  0.1363  0.3354
29690W        W46164   3.774  11.748  14.908 -0.1874  0.1089  0.0881
29691W        W46165   7.062  11.570  13.667  0.0981 -0.0350  0.2987
29692W        W46166  14.900  10.989  14.291  0.1835 -0.0107 -0.3108
29693W        W46167   2.650   7.380  14.810 -0.2607  0.4343  0.1029
29694W        W46168  11.767   5.218  16.202  0.0206  0.2215 -0.1315
29695W        W46169  14.759   2.971  16.299 -0.3312 -0.0188 -0.0101
29696W        W46170   7.448   2.116  11.918 -0.1631  0.0454 -0.0385
29697W        W46171   9.986   1.606  12.716 -0.2791  0.0969  0.1252
29698W        W46172   2.938   3.932  13.554 -0.1355  0.1295  0.2495
29699W        W46173  10.311  14.627  13.078 -0.0714 -0.0474  0.3607
29700W        W46174  16.733   3.817  11.710  0.0689 -0.0007 -0.1257
29701W        W46175  12.252   7.098  11.987  0.1609 -0.2478  0.1157
29702W        W46176   1.544  16.353   1.795 -0.1530 -0.2486 -0.2284
29703W        W46177   9.801  16.409  15.941 -0.0129 -0.0176  0.0694
29704W        W46178  10.507  11.920   4.569  0.0253 -0.0508 -0.1318
29705W        W46179   5.420  15.251   1.408 -0.0618 -0.0669  0.0442
29706W        W46180   8.480  10.306   4.007  0.0990 -0.0408  0.2112
29707W        W46181  11.767   4.705   1.582  0.0795  0.1575  0.0128
29708W        W46182   0.273  15.727  15.186  0.0638 -0.0716  0.2175
29709W        W46183   7.842  16.274   0.096  0.0227 -0.0792  0.1454
29710W        W46184   0.012   7.496  12.024  0.1462  0.1907  0.4365
29711W        W46185  13.083  10.521   0.122 -0.0985  0.1914  0.0476
29712W        W46186  11.432  13.069   3.363 -0.0945 -0.0716  0.2649
29713W        W46187   0.387  13.517   0.247 -0.0111  0.2171 -0.0239
29714W        W46188  13.045  12.616   4.109  0.1832  0.0342  0.2146
29715W        W46189  14.010   9.065   0.409 -0.3705 -0.0059  0.2508
29716W        W46190   0.424   1.051  15.650 -0.0948 -0.0589 -0.1205
29717W        W46191   7.347  11.953   9.970  0.0821 -0.1319 -0.0584
29718W        W46192  13.243  14.727  12.906  0.1897 -0.0530 -0.0717
29719W        W46193   8.890   3.611  13.637 -0.0051 -0.2689 -0.0228
29720W        W46194   7.591   5.553  11.728  0.0148  0.2720  0.1299
29721W        W46195  12.842  17.603  11.827  0.1978  0.0129 -0.0534
29722W        W46196  13.105   1.059   4.931  0.1057 -0.2891 -0.0180
29723W        W46197  17.996  13.864  14.498 -0.2867 -0.3322 -0.3779
29724W        W46198   3.761  14.293   2.567 -0.0617 -0.0818  0.0975
29725W        W46199  12.228   6.500  13.940 -0.3085  0.0406  0.0217
29726W        W46200  16.285  17.677   0.086  0.1039  0.0973 -0.2082
29727W        W46201  15.037  15.075  13.281  0.2493 -0.2780 -0.1374
29728W        W46202   9.316  13.878   1.850  0.1283  0.4440  0.1618
29729W        W46203   8.742   5.211   0.399  0.2781  0.0700 -0.2410
29730W        W46204  14.935  16.626  11.241  0.3561  0.2002 -0.1639
29731W        W46205   2.768   3.094   4.727 -0.0892 -0.1100  0.0754
29732W        W46206   4.381  17.195   1.312 -0.0212 -0.2298 -0.0406
29733W        W46207  16.765   8.014   0.131 -0.2085  0.0886 -0.0755
29734W        W46208   9.042   1.224   4.525  0.0149 -0.2170  0.0208
29735W        W46209  15.351   4.547  13.211 -0.0411 -0.1134  0.0511
29736W        W46210   9.448   8.424  14.152  0.1113  0.2423  0.0698
29737W        W46211   0.206  18.066   0.710  0.0086 -0.0558 -0.0336
29738W        W46212  11.348  16.612   4.824 -0.0520 -0.0401  0.2422
29739W        W46213  15.623  10.372  13.669  0.1765 -0.4139  0.1494
29740W        W46214   5.482  17.386   4.517  0.3717  0.2036  0.0039
29741W        W46215   0.269   6.271  14.363 -0.0103 -0.2617  0.0099
29742W        W46216   9.292   9.503  15.740 -0.3292  0.0710 -0.0240
29743W        W46217   7.674   8.181   3.790 -0.0992  0.1026 -0.1623
29744W        W46218   5.948  11.962   0.822 -0.0945 -0.2050 -0.0845
29745W        W46219   8.675  11.201   3.871 -0.0370 -0.0810 -0.1611
29746W        W46220  15.574   5.769  13.957 -0.2872 -0.3192 -0.1016
29747W        W46221   2.296  14.146  13.550 -0.3626  0.0231 -0.0590
29748W        W46222   0.184   2.802   5.242 -0.2264  0.2031 -0.0846
29749W        W46223   5.927  10.483   4.109  0.2046 -0.1939  0.1789
29750W        W46224  16.435   0.090   2.346 -0.2255 -0.2545  0.3052
29751W        W46225   5.564   5.176  15.054 -0.1715 -0.2437 -0.0654
29752W        W46226  14.453  15.151  14.474 -0.1161 -0.1026  0.1392
29753W        W46227   5.126   9.463   2.493 -0.2382  0.3417  0.1524
29754W        W46228   6.521   5.849   3.352 -0.2913 -0.1402 -0.3092
29755W        W46229   6.778  13.510   3.630 -0.1636  0.1561  0.0464
29756W        W46230  13.036   6.513   2.744 -0.0011  0.2136 -0.2168
29757W        W46231  16.060   0.092  12.244 -0.1289 -0.0640  0.1467
29758W        W46232   0.744   8.392   0.788  0.1126 -0.1420 -0.1645
29759W        W46233  12.488   7.794  15.568  0.1987  0.0380 -0.2718
29760W        W46234   1.683   8.210   2.992 -0.1281 -0.0996  0.0894
29761W        W46235   0.066   6.447   0.922 -0.4174 -0.1620 -0.1585
29762W        W46236   6.979  12.189   2.340 -0.1230 -0.0347 -0.3203
29763W        W46237  15.253   4.656   5.395  0.1254 -0.0564  0.1397
29764W        W46238   0.676   8.661  15.525  0.1730 -0.0077  0.1255
29765W        W46239   4.510  15.901   4.306  0.1245  0.3492  0.0477
29766W        W46240  11.067   5.897  11.544  0.2140  0.1100  0.2182
29767W        W46241  18.059  10.887  11.019  0.3296 -0.1315 -0.1332
29768W        W46242  16.403  14.742  12.736 -0.1023  0.0479  0.0098
29769W        W46243   7.442   4.682  13.164 -0.0108  0.2594 -0.0611
29770W        W46244   9.612  13.755  11.113  0.2513  0.1051 -0.0490
29771W        W46245   8.912   0.255  11.612 -0.2460 -0.2602 -0.0705
29772W        W46246  14.734  10.752   3.076 -0.0058 -0.0616 -0.0001
29773W        W46247   3.521   3.380   0.937  0.0523 -0.0099  0.0900
29774W        W46248   8.680   9.102  11.744 -0.2839  0.0550  0.0456
29775W        W46249   2.994   4.342   5.341 -0.0871 -0.2973 -0.0975
29776W        W46250   1.006  10.982  12.467  0.2978  0.1979  0.0417
29777W        W46251   9.815  14.513  15.657  0.1013  0.2840 -0.0849
29778W        W46252  17.614  16.620   1.304  0.1519 -0.1165 -0.0396
29779W        W46253   2.262   4.775   2.729 -0.1045 -0.4317 -0.0934
29780W        W46254  12.720   8.364   3.452  0.1969  0.0660 -0.3023
29781W        W46255   0.431  12.669   2.055  0.4518  0.2333 -0.0895
29782W        W46256  12.357  11.233   0.801  0.1515  0.2122  0.1420
29783W        W46257   2.936  16.919  12.037  0.0284  0.3062 -0.0633
29784W        W46258  15.708  13.845   3.685  0.2999 -0.0840 -0.1440
29785W        W46259   7.505  11.849  12.670  0.0287 -0.0129 -0.1295
29786W        W46260  15.996  14.831  12.434 -0.1471  0.0521  0.3295
29787W        W46261   0.185  11.787   4.141  0.4397  0.1194 -0.2501
29788W        W46262   2.646   1.757   5.620  0.0441  0.1417 -0.1880
29789W        W46263   4.032   7.651   4.256 -0.0976  0.4019 -0.2376
29790W        W46264   2.530   8.778  12.424  0.1567  0.1204 -0.3423
29791W        W46265   2.366  15.599  13.787  0.0769 -0.0075 -0.1938
29792W        W46266  16.508   6.051  14.212 -0.1328 -0.0883 -0.0229
29793W        W46267   0.532   1.057   3.798  0.1397 -0.1028 -0.2213
29794W        W46268   7.849   7.646   1.609  0.0743 -0.2526  0.2925
29795W        W46269  11.404   4.623  13.192 -0.1911  0.1153 -0.4152
29796W        W46270   0.419   0.322   0.834 -0.1318  0.0902 -0.0732
29797W        W46271   1.905   1.686   2.717  0.0485 -0.2744 -0.1264
29798W        W46272  13.566   5.681   4.709 -0.1692 -0.1258 -0.1436
29799W        W46273   5.896  13.942   5.713  0.0096 -0.0131 -0.0345
29800W        W46274  14.420   0.967  16.002  0.2000 -0.1371  0.0016
29801W        W46275   9.544   0.504   1.512  0.2800  0.2948  0.0473
29802W        W46276   4.162  16.925  11.804 -0.0677  0.0061 -0.1920
29803W        W46277   9.315   0.235  12.001  0.2208  0.2525 -0.0901
29804W        W46278   1.087  11.403   2.007  0.1362 -0.4181 -0.0944
29805W        W46279  13.631  14.234  14.329  0.2268  0.1586  0.0846
29806W        W46280   5.628   1.604  14.176 -0.3457  0.2896 -0.3382
29807W        W46281  14.158  17.399  15.603  0.0268  0.0865  0.2805
29808W        W46282   8.864   9.773  14.570  0.0253 -0.0113 -0.2312
29809W        W46283  16.199   6.613   3.145  0.1258 -0.0678  0.0175
29810W        W46284   0.480  15.668   5.264  0.2336 -0.1567 -0.0609
29811W        W46285  12.312  16.043   1.938  0.1323  0.2667 -0.1386
29812W        W46286  16.900  17.056   3.438 -0.0935  0.1475  0.1663
29813W        W46287   7.669   9.127   2.923 -0.1708  0.2023  0.0844
29814W        W46288  17.490   0.555  14.853  0.0446 -0.2586  0.1426
29815W        W46289   9.774   8.876   2.357  0.0179  0.2935 -0.2380
29816W        W46290  15.065   0.291   3.422  0.2269  0.3523 -0.1224
29817W        W46291  16.319  17.831   3.045  0.0217  0.3625 -0.0195
29818W        W46292   1.689   6.147  11.182 -0.0724 -0.2720  0.1748
29819W        W46293  14.129  11.861  12.659  0.2400  0.2196 -0.0736
29820W        W46294   1.965  14.959   0.345 -0.0307 -0.1295 -0.1782
29821W        W46295  15.967  15.234   3.590  0.2273 -0.0957  0.1596
29822W        W46296  16.226  18.164   1.378 -0.1865  0.3493  0.3606
29823W        W46297   3.942   7.206  15.186 -0.2284  0.0920  0.0520
29824W        W46298   1.844  13.710   5.235  0.0100  0.1927  0.2284
29825W        W46299   2.843  16.577  16.169  0.0149 -0.3241 -0.0062
29826W        W46300  10.162  17.320  14.292 -0.0610 -0.0736  0.3714
29827W        W46301  10.274   5.021  15.829 -0.0962  0.0890  0.2734
29828W        W46302   0.605  16.770   2.541  0.3451 -0.1168  0.4013
29829W        W46303  11.286   0.913  14.044 -0.0061  0.0029  0.0491
29830W        W46304   2.152   9.528   3.114 -0.1916 -0.0555 -0.0521
29831W        W46305   1.832  11.383  13.953  0.2993 -0.0157 -0.0086
29832W        W46306  12.773   8.801   3.640 -0.0538  0.3421  0.2376
29833W        W46307   3.759   3.518  12.411  0.2113  0.4281 -0.2796
29834W        W46308  10.693   5.713  14.582  0.0087 -0.1931 -0.1620
29835W        W46309  17.464  13.918  11.148  0.1811  0.3953  0.1746
29836W        W46310  12.261  13.180   4.383 -0.1205 -0.0032  0.1443
29837W        W46311  14.620   9.204   1.257  0.2640  0.0907 -0.0587
29838W        W46312  13.614   7.682   3.597 -0.0103 -0.2936 -0.0730
29839W        W46313   8.390   1.589   0.740  0.1506 -0.1340  0.4144
29840W        W46314  12.572   7.530  11.146  0.0076  0.4410  0.0046
29841W        W46315  11.031   8.867  14.200  0.1730  0.0899 -0.1831
29842W        W46316   7.396  12.425   4.175 -0.1502  0.1119 -0.1186
29843W        W46317  15.021   4.995   0.545  0.0415 -0.0765  0.2897
29844W        W46318   4.253  14.260   2.463 -0.0125 -0.0849  0.0327
29845W        W46319  12.578  17.392   3.207 -0.1034 -0.3852  0.2837
29846W        W46320  16.742   4.998   1.920  0.0944  0.0458  0.0618
29847W        W46321  10.255  11.034   2.175 -0.0507 -0.0112 -0.2890
29848W        W46322   5.269   5.168   1.004  0.0346 -0.1228 -0.2848
29849W        W46323   7.635  15.165   2.832 -0.0255 -0.1331  0.0861
29850W        W46324  15.986  11.830   2.518 -0.0104  0.2807 -0.0154
29851W        W46325   2.444   7.335  15.985 -0.0586  0.0339 -0.0788
29852W        W46326  13.039   0.241  14.938  0.2262  0.1541 -0.3398
29853W        W46327   9.474   6.815   4.040  0.3578 -0.1342  0.1022
29854W        W46328  12.825   0.476  10.389 -0.0544  0.1406  0.0330
29855W        W46329  13.820  13.879  14.604 -0.2820 -0.0123 -0.4679
29856W        W46330  13.680  10.083   1.919  0.1145  0.1251  0.1262
29857W        W46331   0.833  17.871   1.401 -0.1804  0.1203 -0.0486
29858W        W46332  14.056  13.650  13.032  0.1767 -0.0762  0.1580
29859W        W46333  10.950   9.472   0.318 -0.2553 -0.1110 -0.3106
29860W        W46334  12.350   0.973  11.860 -0.1892  0.0321  0.0036
29861W        W46335   5.503  12.484   1.581  0.5906 -0.0817 -0.3008
29862W        W46336   6.447   6.131  12.757 -0.0256 -0.0793 -0.0851
29863W        W46337   8.808   4.954  12.272  0.1728 -0.0801  0.0708
29864W        W46338  17.003   4.435  16.298  0.2499 -0.0402 -0.1121
29865W        W46339  17.481  11.007   4.438 -0.0229 -0.1434  0.1759
29866W        W46340   4.587  13.310   0.345  0.1244 -0.0373  0.0485
29867W        W46341   0.962   9.208  14.471 -0.1094  0.2964 -0.1654
29868W        W46342   2.003  12.233  11.858  0.2583  0.0732 -0.1124
29869W        W46343   3.414   3.266  12.168 -0.0891 -0.0771 -0.1979
29870W        W46344   1.160   5.986   1.188 -0.0849  0.3141 -0.0912
29871W        W46345   5.780   3.380   4.784  0.1567 -0.0841  0.0348
29872W        W46346  12.328  14.116   4.908  0.1720 -0.3210  0.2794
29873W        W46347   4.961   0.737   1.102 -0.0716  0.0950  0.1136
29874W        W46348  17.453   4.405   2.611 -0.1048 -0.1316  0.1391
29875W        W46349   4.659   5.620  11.566  0.1057  0.2023 -0.1731
29876W        W46350   3.712   9.220  12.324  0.0857 -0.2128  0.0521
29877W        W46351   4.623   3.521  14.547  0.0186 -0.1647 -0.0196
29878W        W46352   8.957   2.442  16.135 -0.0370  0.0447 -0.1846
29879W        W46353   6.103   5.025   3.841  0.0266  0.0076 -0.1988
29880W        W46354   5.651   9.012   1.738 -0.0864 -0.2933 -0.0712
29881W        W46355  12.402   6.794  12.334  0.1677 -0.1357  0.0287
29882W        W46356  14.654  16.628   1.050  0.1137  0.1335 -0.2088
29883W        W46357  13.459  10.847  12.168  0.2193 -0.1346 -0.0031
29884W        W46358   2.475  17.345  15.955 -0.1651 -0.1127 -0.1940
29885W        W46359   2.459  16.377   0.008  0.0759 -0.2581 -0.0766
29886W        W46360  14.495  12.596   3.164  0.3882  0.0897 -0.1308
29887W        W46361   4.754   7.441  16.279 -0.1443  0.3633 -0.0310
29888W        W46362   0.387   6.841   4.813  0.4512  0.0391  0.1694
29889W        W46363  14.078  16.514  13.929 -0.1679 -0.1142  0.1863
29890W        W46364   5.202  18.107   4.210  0.1276  0.0341  0.1173
29891W        W46365   2.106   0.442  10.763 -0.1865 -0.1374 -0.1583
29892W        W46366   3.013  12.277  14.726 -0.0017  0.0922  0.1906
29893W        W46367  11.801   7.683   3.473  0.1783  0.3768  0.1676
29894W        W46368  17.140   6.190   2.583  0.0394  0.2215  0.0253
29895W        W46369   4.930   9.518  12.105  0.0209  0.2655 -0.5189
29896W        W46370  12.963   6.456  14.502 -0.0774  0.2012  0.0418
29897W        W46371   2.166   8.379  15.084  0.1337  0.0467  0.2540
29898W        W46372   7.754  14.182  12.031 -0.1043  0.1621 -0.2924
29899W        W46373   7.280   3.157   4.465 -0.2010  0.4002 -0.2768
29900W        W46374   0.663   6.705   5.258 -0.1972  0.1200 -0.3220
29901W        W46375   3.632   8.761   0.367  0.0950  0.2722  0.2521
29902W        W46376  18.175   6.063  15.416  0.1821  0.0936 -0.0963
29903W        W46377   9.198  11.937  11.061  0.0806 -0.0977 -0.1307
29904W        W46378   2.548  12.601  12.391 -0.0159  0.1892 -0.0838
29905W        W46379  14.711   7.381  12.894  0.1004 -0.0603 -0.1823
29906W        W46380   2.315   0.551   0.183  0.0039 -0.2025 -0.2759
29907W        W46381  13.407   0.067   0.237  0.3105  0.2013  0.0065
29908W        W46382   4.570   2.357   2.261  0.1185  0.0602  0.0639
29909W        W46383  14.495   6.382   2.587  0.0736 -0.0675 -0.1269
29910W        W46384   4.239   7.423   1.369  0.0015 -0.3098 -0.0678
29911W        W46385  10.496  11.696  14.055 -0.0172 -0.0250 -0.2231
29912W        W46386  15.375  12.116   4.641  0.1150 -0.0930  0.1511
29913W        W46387  10.546  11.101   3.783  0.2263 -0.2694 -0.2394
29914W        W46388   3.033  11.788   3.316 -0.0133 -0.1107 -0.2161
29915W        W46389  12.290   8.701  15.394 -0.3270  0.0126 -0.1068
29916W        W46390   8.579  14.595   1.421 -0.1059 -0.1677  0.0250
29917W        W46391   6.043   9.602   3.696  0.1315  0.0289 -0.3459
29918W        W46392  10.662   7.316  15.624  0.0241  0.0912  0.1033
29919W        W46393   6.126  16.365  12.372  0.2947 -0.1061  0.0393
29920W        W46394   1.816   5.345   1.672 -0.1343 -0.0955 -0.1693
29921W        W46395   5.940   3.001  15.676  0.1339 -0.1778 -0.0257
29922W        W46396  12.389   1.030   3.070  0.1794  0.0858 -0.0218
29923W        W46397   7.571   1.383   0.753 -0.1687  0.1383 -0.2388
29924W        W46398   8.451  15.113  12.632  0.0166 -0.2749 -0.2713
29925W        W46399  14.245  16.860   0.928  0.0877  0.0356  0.1828
29926W        W46400   2.261   2.783   3.875 -0.1799  0.1285 -0.1187
29927W        W46401   4.983  17.600  11.763 -0.0000 -0.1683 -0.0375
29928W        W46402   0.116  15.705   2.946  0.0052  0.1655 -0.2581
29929W        W46403   0.610   7.086   3.170  0.0705  0.0993  0.0544
29930W        W46404   8.052  13.016   2.334 -0.2741 -0.2401  0.0371
29931W        W46405   2.636  17.315  13.799  0.0982  0.0793  0.1164
29932W        W46406   4.106  11.838   0.813  0.1924  0.1956  0.3890
29933W        W46407  10.204   3.703  11.469  0.0372 -0.4359  0.1593
29934W        W46408   8.552   3.517  15.733 -0.2011 -0.0556 -0.1183
29935W        W46409  12.614  14.808  14.908  0.1907  0.0864  0.0676
29936W        W46410  17.544  17.950  15.984  0.2003  0.1157  0.2481
29937W        W46411   3.967   6.869  11.752 -0.1058 -0.0616 -0.1080
29938W        W46412   1.482   4.551   3.271 -0.0562  0.1526  0.2280
29939W        W46413   6.353   8.669   4.223  0.2967 -0.1000 -0.1427
29940W        W46414   0.176  16.070  11.702  0.2134  0.0622  0.1590
29941W        W46415  12.012   9.640  13.845 -0.2403  0.1896  0.0458
29942W        W46416   7.050   7.696  12.965  0.0580  0.0107 -0.2052
29943W        W46417  14.520   7.790  11.249  0.1084  0.0362 -0.0988
29944W        W46418   2.350   8.696   2.607 -0.0523  0.2364 -0.0403
29945W        W46419   7.124  16.006   2.288 -0.1218 -0.2563 -0.1545
29946W        W46420   7.337  14.630  15.927 -0.0261 -0.2368 -0.0452
29947W        W46421  15.254   5.164  12.400  0.2411  0.0745 -0.1865
29948W        W46422  15.636  13.138   4.923 -0.1240  0.2209  0.0958
29949W        W46423  12.118  16.964  10.959  0.1675  0.1049  0.0931
29950W        W46424  14.324  12.886   5.455 -0.0589 -0.0040 -0.0239
29951W        W46425   2.700  15.554  16.112 -0.2174 -0.1032 -0.4251
29952W        W46426  11.544   5.503  12.230  0.0432  0.0480 -0.4475
29953W        W46427   9.753  10.178   3.940  0.1241  0.0484  0.3221
29954W        W46428   6.203   6.918   3.486 -0.0648  0.0076  0.3675
29955W        W46429   7.908  17.952  16.002  0.1639 -0.0958  0.0653
29956W        W46430  14.461  14.301   4.507  0.2042  0.1546 -0.2927
29957W        W46431   1.869   6.452  16.276 -0.1227  0.0392  0.2251
29958W        W46432   0.553   7.039  16.313 -0.1973  0.1811  0.1035
29959W        W46433  11.676  16.399  15.297 -0.1923 -0.0617 -0.0564
29960W        W46434  11.482  16.415  11.457  0.1198 -0.2259  0.0033
29961W        W46435   9.179   9.048  11.553  0.1993  0.0158 -0.0408
29962W        W46436  12.183   4.403  15.775 -0.1528  0.0671 -0.6701
29963W        W46437  17.088   5.679  11.291  0.0585  0.2176  0.0046
29964W        W46438   2.588   1.737   1.590 -0.0445 -0.1089  0.2696
29965W        W46439   6.341  15.931  14.509  0.1800 -0.0440  0.0625
29966W        W46440  13.680  17.531   3.703 -0.1528  0.2643  0.0419
29967W        W46441  17.600   8.703  15.913 -0.0573  0.2315 -0.2029
29968W        W46442  11.603   2.136   2.476  0.2472  0.2234  0.0319
29969W        W46443  13.473  14.796   3.738  0.2152 -0.0791 -0.1409
29970W        W46444   0.916   4.179  14.065 -0.0835 -0.0847 -0.0980
29971W        W46445   5.183   1.283   1.891  0.0315  0.3773  0.1705
29972W        W46446  12.458  10.968   0.353  0.1709 -0.1088  0.0539
29973W        W46447  15.374  11.619  12.293  0.1832  0.1030  0.0336
29974W        W46448   5.858   3.492   1.057 -0.1121 -0.0617 -0.0456
29975W        W46449  11.210  12.152  11.282  0.0776  0.2413 -0.0526
29976W        W46450   3.905   8.275   0.257  0.0290  0.0994 -0.0211
29977W        W46451   5.204   0.510  10.611 -0.1022 -0.0818 -0.1886
29978W        W46452   4.889  12.884   2.188  0.0969 -0.1820  0.1457
29979W        W46453  10.768   6.994   4.230  0.0942  0.5008  0.1254
29980W        W46454   9.809  14.570   3.946 -0.1571  0.0008 -0.2832
29981W        W46455  14.302  10.222  11.987  0.0916  0.2005 -0.1411
29982W        W46456   5.280   0.835   2.017  0.0655 -0.1683  0.2036
29983W        W46457  12.517   0.477   3.370  0.1511  0.0465 -0.0525
29984W        W46458  16.437   1.469   5.286  0.0930 -0.1771 -0.0345
29985W        W46459   0.780   1.230   4.713  0.2973  0.1519 -0.3377
29986W        W46460  10.514  10.183  13.237 -0.2017 -0.2516  0.0251
29987W        W46461  14.985   7.801  12.078 -0.1987 -0.2826  0.1567
29988W        W46462  11.676  12.355   5.328  0.0605  0.0875  0.2318
29989W        W46463   5.524   3.090   3.932 -0.0536  0.1989 -0.1926
29990W        W46464  17.051   9.041   4.320 -0.1294  0.0309 -0.1910
29991W        W46465   8.481   6.158   1.892  0.0596 -0.1476 -0.1516
29992W        W46466   5.850  10.256  15.247  0.1383 -0.3286  0.0075
29993W        W46467   9.634  10.253  14.212 -0.0114 -0.2147  0.1832
29994W        W46468  11.207   2.151   5.223 -0.1874  0.2560  0.0549
29995W        W46469  10.760   4.539   4.926  0.2960  0.0682  0.0656
29996W        W46470   6.839  12.195   4.560  0.0821  0.1939 -0.0806
29997W        W46471  10.108   2.412   1.009  0.0266  0.1539  0.0749
29998W        W46472   9.578   0.424  15.647  0.1695  0.0280  0.0901
29999W        W46473  17.987   7.200  15.547  0.0016 -0.0936  0.2335
30000W        W46474   6.446  14.645   3.069  0.1113 -0.1394 -0.0915
30001W        W46475  11.721   1.972  11.864 -0.1134  0.0679  0.0669
30002W        W46476   0.279   1.608  12.317 -0.1966  0.1120 -0.1741
30003W        W46477  11.223   5.028  14.505 -0.2068 -0.2353  0.0296
30004W        W46478   0.264   3.434   0.096 -0.3033  0.1838  0.2068
30005W        W46479  16.589  12.041   3.207  0.0294  0.1944  0.0556
30006W        W46480   2.282   6.388  13.830 -0.1729  0.1284 -0.0932
30007W        W46481   1.173   3.161   4.482 -0.0310 -0.1611 -0.1164
30008W        W46482  14.173   0.862   2.808  0.0748 -0.2976  0.0671
30009W        W46483   6.862  16.576   0.176 -0.0503  0.1617  0.1668
30010W        W46484   2.424   8.525   0.651  0.0257  0.0675 -0.1330
30011W        W46485   6.258  17.058   1.824 -0.2183  0.1839  0.4007
30012W        W46486   9.295   8.409  11.700 -0.1962 -0.1398 -0.0157
30013W        W46487  17.499   8.270   0.903 -0.1275 -0.1907  0.3100
30014W        W46488   5.588   1.145   2.876  0.2752 -0.1512 -0.3454
30015W        W46489  15.277   1.804  13.977  0.1783 -0.0348  0.1629
30016W        W46490  15.485  17.567  15.323 -0.0215  0.0977  0.0083
30017W        W46491   7.138   9.750   0.223  0.0307  0.2516  0.0698
30018W        W46492   3.743  14.879  11.710  0.0361 -0.0508  0.1660
30019W        W46493  15.076  14.970  11.694  0.2097  0.1198 -0.3446
30020W        W46494  11.590   4.162   3.458  0.0393 -0.3461  0.2077
30021W        W46495   7.429   6.991   1.863  0.2154  0.1574 -0.0302
30022W        W46496   9.613   5.846  14.461  0.3749 -0.0784 -0.0737
30023W        W46497  10.295   2.828  12.594  0.0835 -0.3114 -0.6176
30024W        W46498   8.089  10.470   4.212  0.0628  0.1510  0.0235
30025W        W46499  11.521  10.678   2.480  0.1499 -0.1188  0.0352
30026W        W46500   3.242  18.128  14.837 -0.3190 -0.0386 -0.0592
30027W        W46501  15.773  12.595   2.487 -0.1143 -0.0119  0.0930
30028W        W46502   2.374  12.867   4.555 -0.2450  0.0051 -0.0863
30029W        W46503  15.591  17.399  11.110  0.0708  0.1146  0.2169
30030W        W46504  10.055   3.903  14.390  0.0772  0.4145  0.0774
30031W        W46505   1.957   6.941  13.987  0.0561  0.0258 -0.0076
30032W        W46506   8.248  17.169  15.397 -0.0001  0.1462 -0.2381
30033W        W46507   3.930   4.537   1.019 -0.0442  0.1216  0.2967
30034W        W46508   2.892   2.728  16.077  0.2179  0.0169  0.0503
30035W        W46509  12.985   5.132  11.999 -0.4313 -0.1190 -0.1057
30036W        W46510  13.127   6.069  14.933 -0.0627 -0.1808  0.0855
30037W        W46511   7.971   0.215  12.789 -0.4144  0.1529  0.1836
30038W        W46512   4.703  14.280   0.551  0.0464 -0.2850  0.1502
30039W        W46513   0.490   2.060  12.300  0.2885 -0.1034  0.0940
30040W        W46514   7.552  13.371   0.419 -0.0908 -0.3252 -0.2727
30041W        W46515   5.368   6.298  15.956 -0.0347  0.0436  0.0852
30042W        W46516  17.857   2.413  13.282  0.0440  0.1261  0.0851
30043W        W46517  11.524  14.229   1.437 -0.0719 -0.0011  0.1924
30044W        W46518   9.370   5.043  15.877  0.0560  0.0934 -0.5384
30045W        W46519   9.215   8.771  16.190  0.0928 -0.0252 -0.0080
30046W        W46520  11.738  10.397  11.704  0.6059  0.1131 -0.2742
30047W        W46521   1.042  11.599   3.682  0.1870 -0.0047  0.0763
30048W        W46522   5.427  17.732   6.065  0.0044  0.0466  0.0944
30049W        W46523   6.691  14.419  15.254  0.0692 -0.1327  0.1395
30050W        W46524   2.851  16.717   3.673 -0.1727 -0.2226 -0.1771
30051W        W46525  11.168   6.810   5.510 -0.1148 -0.0306 -0.0464
30052W        W46526   0.645  18.155   0.464  0.1094 -0.1826  0.0212
30053W        W46527   3.779   3.395  15.573  0.0334  0.0706 -0.1820
30054W        W46528  14.969   8.576   0.493 -0.2487 -0.0655  0.2933
30055W        W46529   9.761   0.460   3.997  0.2053 -0.0725 -0.1479
30056W        W46530  14.291  11.952  14.398 -0.2426  0.1740  0.1736
30057W        W46531  17.882  15.638   5.298  0.2310  0.3646 -0.3977
30058W        W46532  15.762  17.346  13.785 -0.1528  0.1043  0.1315
30059W        W46533   1.239   0.338  13.282  0.3080 -0.1469  0.2461
30060W        W46534   2.053  13.961  15.030  0.1801  0.1659 -0.0217
30061W        W46535  17.319  11.637  11.908 -0.2685  0.1465 -0.2260
30062W        W46536  16.875  11.110   3.343  0.2050  0.0114  0.1492
30063W        W46537   5.421  11.771   4.486 -0.0779  0.0534 -0.0523
30064W        W46538   1.428   5.088   4.850 -0.0640  0.4271  0.0900
30065W        W46539   7.833  13.323  12.679 -0.0610  0.0174  0.2967
30066W        W46540   1.770   7.352   1.895  0.0430 -0.0214  0.0090
30067W        W46541   3.915   3.624   6.009 -0.1898 -0.0246 -0.1165
30068W        W46542  12.967   9.675  12.772  0.0240  0.1119 -0.0477
30069W        W46543  16.083  10.101  13.906  0.2577  0.1703  0.0333
30070W        W46544  14.585   0.133   3.336 -0.0425  0.1339 -0.0118
30071W        W46545   8.504   1.302   4.303 -0.3516  0.0296 -0.2520
30072W        W46546  10.574  15.241  16.208  0.0656 -0.1007  0.2037
30073W        W46547  12.251   3.503  14.442  0.1725 -0.0872  0.0942
30074W        W46548   7.089   7.202   0.411  0.0577  0.1803 -0.2347
30075W        W46549   7.827  12.889   3.699  0.1327  0.3447 -0.1954
30076W        W46550  15.363  16.887   5.480  0.1493  0.0319 -0.0655
30077W        W46551  17.614  15.033   1.976  0.0931 -0.1941  0.0595
30078W        W46552  16.814   0.507   5.217 -0.0977 -0.0314  0.1010
30079W        W46553   0.657  14.704   5.843  0.1872 -0.0600 -0.2024
30080W        W46554  16.097   5.862  14.745 -0.0424 -0.1253 -0.0742
30081W        W46555  10.577  15.146   0.565  0.0786 -0.0783  0.1687
30082W        W46556   5.411  14.594  11.433 -0.0169 -0.1614 -0.1924
30083W        W46557  12.726   5.421   2.048 -0.2843 -0.2188  0.0318
30084W        W46558   0.810   1.400  15.021  0.2125  0.2328  0.0908
30085W        W46559  12.036  17.471   0.021  0.0765  0.2716 -0.2788
30086W        W46560  17.623   7.007   4.660  0.1515 -0.1010 -0.0054
30087W        W46561  15.223   1.215   5.357  0.0765  0.0026 -0.0816
30088W        W46562  13.127  11.112  14.468 -0.0712  0.1976  0.2074
30089W        W46563   8.153   9.233  14.486  0.2638  0.0549 -0.0644
30090W        W46564   1.001   2.515   2.105  0.4182  0.0594 -0.0078
30091W        W46565   8.154   7.829   3.084 -0.0742  0.0684 -0.1225
30092W        W46566   5.133  11.199  12.471 -0.1799 -0.2243  0.2153
30093W        W46567  13.379   8.783  13.689  0.1598 -0.2033 -0.1760
30094W        W46568  17.094   9.761   3.637  0.0901  0.0748  0.0122
30095W        W46569   2.977  12.262   0.952  0.1373  0.1926  0.0613
30096W        W46570   6.200  13.699   1.083 -0.1156  0.0824 -0.0284
30097W        W46571   2.111   6.938   5.856  0.1474  0.6584 -0.1298
30098W        W46572  16.841  14.749   5.371 -0.0952  0.0321 -0.1915
30099W        W46573   2.860   2.783   2.871  0.2154  0.3641  0.1824
30100W        W46574   0.335  16.238  15.333  0.1494 -0.1509  0.1520
30101W        W46575   8.225   4.276  11.417  0.2139  0.0981 -0.1777
30102W        W46576   9.024   1.005   4.032  0.0028  0.0615 -0.3252
30103W        W46577  15.885  16.423  13.396  0.1734  0.2677  0.0533
30104W        W46578   3.689   9.540   4.655  0.0199 -0.1115 -0.3419
30105W        W46579   7.052   0.528   1.044  0.0757  0.1634  0.0905
30106W        W46580   2.078   9.524   1.375  0.0193 -0.2085 -0.2964
30107W        W46581   3.172   7.555  13.252 -0.1438  0.0947  0.2506
30108W        W46582  10.487   7.505   4.933  0.0775 -0.1803  0.3233
30109W        W46583  14.774   1.256  12.009  0.1276 -0.1020  0.3889
30110W        W46584  13.155  17.366   2.384 -0.0458  0.0508  0.1390
30111W        W46585  14.507  12.046   3.457 -0.3418 -0.0456  0.1190
30112W        W46586  11.584   1.249  14.400  0.0255 -0.2580  0.0217
30113W        W46587   9.426  14.761  14.191 -0.1384  0.0868 -0.1378
30114W        W46588  14.086  14.684  11.765 -0.1139 -0.0670 -0.0053
30115W        W46589   7.174  10.650   2.121  0.1458  0.2120  0.0230
30116W        W46590  13.236  17.467   3.377 -0.1818 -0.1959 -0.1793
30117W        W46591   5.603   5.750  12.820 -0.1839 -0.0270 -0.0439
30118W        W46592   4.916   2.390  10.662 -0.2222  0.0759  0.0013
30119W        W46593  10.691   7.138   5.275  0.1229  0.1219  0.3291
30120W        W46594  12.413   2.676  12.849 -0.1376  0.4108 -0.0223
30121W        W46595  12.225  12.440  14.198  0.0740  0.0356 -0.1075
30122W        W46596  14.378   9.191  14.862 -0.0821  0.0331  0.0750
30123W        W46597  18.007   4.239  12.362  0.0837 -0.0070  0.1656
30124W        W46598   5.083   3.314   0.003  0.0283 -0.1011  0.2233
30125W        W46599  13.629   8.009   1.831  0.2701 -0.2670 -0.3318
30126W        W46600  15.983   8.941  12.011  0.0150 -0.2254 -0.0578
30127W        W46601   2.337   2.813  15.737  0.1232  0.3233 -0.0514
30128W        W46602  12.274   3.549  12.664 -0.1431 -0.5190  0.2302
30129W        W46603   9.787   2.824  16.069  0.0891  0.2462  0.0110
30130W        W46604   6.215  11.095  15.823 -0.0666 -0.0237 -0.0944
30131W        W46605  14.983  10.087  11.724 -0.2306 -0.0131 -0.0223
30132W        W46606   7.048  15.986   1.798 -0.1292 -0.2896 -0.1953
30133W        W46607  13.617  16.052   5.905  0.2067 -0.0210  0.2335
30134W        W46608  17.647   4.642   0.036 -0.2245 -0.0991 -0.1574
30135W        W46609   4.035   6.719  13.829  0.2542 -0.2419  0.0373
30136W        W46610   4.933   6.701   0.665  0.1210  0.4176  0.0204
30137W        W46611   5.975  13.630  15.754  0.1542 -0.3007 -0.1480
30138W        W46612  14.774  13.037  12.161 -0.1990 -0.0418  0.3236
30139W        W46613  15.965   3.330  15.415  0.1161  0.2476  0.0351
30140W        W46614  14.555   3.464   5.735 -0.2765  0.2036 -0.1462
30141W        W46615   3.062  10.022  12.687 -0.2530 -0.3233  0.1579
30142W        W46616   6.149  12.796   0.237  0.2171 -0.0065  0.0877
30143W        W46617   6.283   6.022  12.154 -0.1550 -0.0132 -0.2970
30144W        W46618  16.020   4.307   5.334  0.1826  0.4075 -0.0004
30145W        W46619  11.773  16.273   0.583 -0.2371 -0.1665  0.0446
30146W        W46620  12.869  17.952  16.235 -0.1451 -0.0067  0.0659
30147W        W46621   6.905   6.667   2.720  0.0231 -0.1892 -0.3337
30148W        W46622   3.410   1.080  14.430  0.1633  0.2187 -0.0053
30149W        W46623   1.996   4.984   3.786 -0.2596  0.0502  0.2623
30150W        W46624   4.531   6.772  11.609 -0.0563 -0.0286 -0.1425
30151W        W46625   6.541   6.559  13.241 -0.0546  0.1722  0.2995
30152W        W46626   4.324   8.738   3.958 -0.0278 -0.2389  0.0472
30153W        W46627   7.350   5.732   1.492  0.0995  0.0228 -0.2027
30154W        W46628  14.029   1.069  14.503  0.1293  0.0413 -0.2189
30155W        W46629  10.127   3.395  10.970 -0.2518 -0.1103 -0.0647
30156W        W46630   8.310   9.253   0.649 -0.0054 -0.0093 -0.1873
30157W        W46631  12.863   7.326  15.148 -0.0592 -0.2065 -0.0417
30158W        W46632  13.088  14.545   0.386  0.0779  0.0804 -0.1796
30159W        W46633  14.290  13.938  14.735  0.2199 -0.2498  0.0533
30160W        W46634   4.441   7.504   3.523  0.1940  0.0312  0.2380
30161W        W46635   6.565  17.079   6.509 -0.1627 -0.0671 -0.1325
30162W        W46636   1.774  17.066  13.693  0.0512  0.1912 -0.1624
30163W        W46637   2.013   4.821  12.587 -0.0432 -0.1812 -0.0235
30164W        W46638  14.806   8.081  15.136 -0.0208  0.0217 -0.2729
30165W        W46639   8.119   3.517  11.455  0.0009  0.0529  0.1259
30166W        W46640   5.317  13.044   3.830 -0.0994 -0.0431  0.0507
30167W        W46641  11.983  11.651  11.635  0.3306  0.1236  0.3153
30168W        W46642  14.170  13.776   3.982 -0.3170 -0.2988  0.1007
30169W        W46643   1.392   1.523   3.262 -0.1471  0.0565  0.1776
30170W        W46644   9.011  10.119   3.165 -0.3707  0.1885  0.1938
30171W        W46645   5.492   8.960  12.188 -0.0784 -0.0923  0.0790
30172W        W46646  12.261   4.661  14.635  0.0893  0.0826  0.2868
30173W        W46647   4.185   1.961   0.497  0.4102  0.1290  0.0415
30174W        W46648  12.423  12.152  13.076 -0.0150  0.4137 -0.1833
30175W        W46649   0.348  17.153  14.885  0.0881  0.1891 -0.0983
30176W        W46650   6.415   1.227   4.112  0.2019 -0.0654 -0.0955
30177W        W46651   1.583   7.259   0.464  0.0582 -0.3055 -0.0777
30178W        W46652  15.912  13.025  13.187  0.0549  0.2360  0.4247
30179W        W46653   0.362  12.174   1.768 -0.0301 -0.1607 -0.2979
30180W        W46654  14.274  17.804   2.652  0.0448  0.1132 -0.0337
30181W        W46655   3.064  13.209  11.706  0.1672  0.1684  0.2461
30182W        W46656  10.731   2.229  12.529  0.2064 -0.2837 -0.1405
30183W        W46657  11.405  11.425  12.889 -0.0078 -0.2231  0.0314
30184W        W46658  17.915  11.847   1.107  0.2897  0.4706 -0.0845
30185W        W46659  10.080   6.961   0.613  0.1032  0.0467 -0.1222
30186W        W46660  13.769   6.420  15.137  0.1436 -0.0721  0.2173
30187W        W46661   5.301  15.545  10.789 -0.1278  0.2444  0.0650
30188W        W46662  13.713  18.137   0.573 -0.0752  0.0128  0.0606
30189W        W46663  11.436  14.557  16.004  0.0912  0.0727  0.0184
30190W        W46664   9.117  16.142   1.479  0.3202  0.0068  0.0651
30191W        W46665   5.418  11.166  15.590 -0.0151 -0.0848  0.0106
30192W        W46666   6.339  12.689  15.684 -0.2682 -0.1899  0.2568
30193W        W46667   1.036   3.048   0.237  0.0750 -0.0060  0.1027
30194W        W46668   8.755   4.977  15.445 -0.4634  0.0137  0.0915
30195W        W46669   6.698  11.798  14.462 -0.0801  0.0938 -0.0075
30196W        W46670   3.325  13.688  11.679 -0.1772 -0.3143  0.3307
30197W        W46671   8.997  16.536  11.751 -0.2306 -0.0744 -0.1519
30198W        W46672   8.125  11.663   3.367  0.2894  0.1104 -0.1724
30199W        W46673  15.279  10.596   3.099 -0.1493  0.1223 -0.2654
30200W        W46674   3.069   2.873  15.252 -0.1610 -0.0873 -0.2179
30201W        W46675   1.298  14.057   3.909  0.1440 -0.0367  0.1340
30202W        W46676   5.028   8.405   0.756 -0.1683  0.1957  0.2282
30203W        W46677  13.824   2.378  16.193  0.1670  0.0472  0.1371
30204W        W46678  18.010   1.421   5.667  0.0394 -0.0451 -0.1880
30205W        W46679   2.257   2.785  14.701 -0.0226  0.1498 -0.4009
30206W        W46680  13.885   8.851  10.870  0.1170 -0.0889 -0.0172
30207W        W46681  15.112   4.329  12.348  0.0333  0.1973 -0.2636
30208W        W46682  10.072  12.353   5.241 -0.0904  0.0494  0.0039
30209W        W46683  10.815   9.481   1.920  0.1953 -0.2051 -0.1251
30210W        W46684  10.438   4.340   1.271  0.1115  0.0919  0.0533
30211W        W46685   4.404  12.094  16.055 -0.1420  0.1824 -0.0525
30212W        W46686   4.290   1.050   2.565 -0.0521 -0.1511 -0.0938
30213W        W46687   0.192   8.442   5.409 -0.2167 -0.2586  0.2581
30214W        W46688   1.758   0.532  14.516 -0.1856  0.0749  0.0716
30215W        W46689  16.333  10.390   5.879 -0.0043 -0.1412 -0.0993
30216W        W46690   1.336  13.782   3.525  0.1725  0.1583  0.2226
30217W        W46691  13.762  17.742  14.780  0.2844  0.1569  0.2328
30218W        W46692   9.321  12.648   0.086 -0.1920  0.0386 -0.0227
30219W        W46693  14.944   8.245   1.500 -0.1913 -0.1431 -0.0536
30220W        W46694  15.083  10.732   2.666  0.0140 -0.1137  0.0559
30221W        W46695  17.742   8.181  15.667  0.1057  0.3988 -0.1251
30222W        W46696   3.185  11.197   3.577  0.3779 -0.1414  0.2105
30223W        W46697   6.796  10.447   3.346  0.1566 -0.1548  0.1664
30224W        W46698   4.013  17.145  14.743  0.0598  0.0758 -0.2314
30225W        W46699  16.511   7.988   1.977  0.1164 -0.0785 -0.3169
30226W        W46700   1.289  12.956  12.096 -0.2129 -0.2225 -0.2088
30227W        W46701  11.315   2.238  15.284 -0.4749  0.2470 -0.0843
30228W        W46702   7.961  12.426   0.652 -0.0948  0.0998  0.1904
30229W        W46703  15.649   9.566  15.037  0.0208 -0.2371  0.1622
30230W        W46704   0.469   7.026  12.957 -0.4464  0.2001  0.2884
30231W        W46705  13.461   2.111   1.166 -0.1478  0.2235 -0.3612
30232W        W46706   4.965   8.669  11.606  0.2333 -0.1764  0.2369
30233W        W46707   1.657  12.556   1.187  0.3589 -0.0335  0.2582
30234W        W46708   5.503  16.731   3.269  0.1351  0.0461  0.2015
30235W        W46709   1.220  15.627  13.036  0.0884 -0.2060  0.2316
30236W        W46710   3.584   6.399   0.548 -0.3038 -0.0966  0.1422
30237W        W46711   5.891  10.599   0.532  0.0890 -0.1455 -0.1974
30238W        W46712   0.127   4.517   5.000 -0.1630  0.1078 -0.0181
30239W        W46713   7.688  15.962   2.864  0.1237  0.2100 -0.0194
30240W        W46714   7.375   3.199   3.571  0.1777  0.1490 -0.0508
30241W        W46715   2.607  15.191  15.156 -0.2768 -0.3100 -0.1526
30242W        W46716  14.532   2.289  11.338  0.3544 -0.2898 -0.1999
30243W        W46717  10.149   5.422   1.110  0.1505  0.3407  0.0003
30244W        W46718  16.999  14.997  13.715 -0.0671  0.0179 -0.2985
30245W        W46719   1.343   8.211  11.373  0.1314  0.0798 -0.0230
30246W        W46720  17.230   6.733  16.322 -0.1608  0.0932  0.0866
30247W        W46721   3.326  11.179   0.900  0.0121  0.2296 -0.0850
30248W        W46722   1.649  13.658   4.746 -0.0829 -0.3423  0.0045
30249W        W46723  14.688  17.622   3.009  0.0037  0.1507  0.3179
30250W        W46724  12.387  12.954   2.449 -0.0217  0.1039  0.0107
30251W        W46725   5.902   7.659   0.946 -0.1547  0.2442 -0.1449
30252W        W46726  16.821  18.019  13.490  0.1385 -0.4877  0.0361
30253W        W46727   0.922   9.318   2.450  0.1940  0.1315 -0.0533
30254W        W46728  14.337  17.556   2.234  0.0317 -0.0580 -0.1517
30255W        W46729   9.152   2.133  12.705  0.0671  0.3956 -0.0403
30256W        W46730   7.816   4.040   1.408 -0.1631  0.1050 -0.2603
30257W        W46731   9.390   4.635  13.903 -0.0303  0.3127  0.0398
30258W        W46732  17.816  10.743  10.500 -0.0009  0.1334  0.1047
30259W        W46733  10.748   5.781   5.252  0.0032 -0.0439 -0.2321
30260W        W46734   0.649  17.647  11.385  0.0925 -0.0399  0.0094
30261W        W46735  13.332  15.994   2.575 -0.1109  0.3732  0.0023
30262W        W46736   6.997   1.987  12.277 -0.0990 -0.0541  0.0276
30263W        W46737   7.609   4.141   2.806  0.2339  0.0857  0.0938
30264W        W46738  13.178  10.755   3.754 -0.1275  0.1118 -0.0666
30265W        W46739  11.099   3.516   3.074  0.0185 -0.0996  0.1043
30266W        W46740  11.396  15.345   1.147  0.0094  0.0947 -0.1862
30267W        W46741  11.813   9.898  13.471 -0.2040 -0.2461  0.0452
30268W        W46742  15.700  10.329   2.971  0.0930 -0.0522 -0.0172
30269W        W46743  11.620   7.474  11.525 -0.0454 -0.1850  0.1029
30270W        W46744   5.770   7.673  16.369  0.1690  0.0420  0.1097
30271W        W46745  14.295  13.009  12.975 -0.0469  0.4999 -0.2768
30272W        W46746  18.164   5.491  15.470 -0.1283  0.2106  0.1926
30273W        W46747   8.971  15.407   5.832  0.0189  0.1066  0.2906
30274W        W46748   0.680  12.198  14.877 -0.0861  0.0310 -0.3999
30275W        W46749  14.495  10.447  13.042 -0.0171  0.0812 -0.0190
30276W        W46750  10.533   0.991   2.874 -0.1063 -0.2639  0.0430
30277W        W46751   9.689   4.610   0.976  0.0594 -0.1432  0.1051
30278W        W46752  14.699  13.554   2.106  0.2020 -0.0734 -0.0637
30279W        W46753  17.967  11.776   0.617  0.2626  0.1569  0.1262
30280W        W46754   4.666  14.695  10.620  0.0135 -0.1480 -0.1119
30281W        W46755  14.985   1.168  11.253 -0.0973 -0.1980  0.4497
30282W        W46756   3.567   6.486   1.835  0.0021  0.2599 -0.1272
30283W        W46757   8.739   8.745  13.714  0.2369 -0.0579 -0.0313
30284W        W46758   0.187  16.464   2.515 -0.0725 -0.2280  0.0796
30285W        W46759   8.895   3.423   4.493 -0.0427 -0.0666 -0.1358
30286W        W46760  14.200   3.339   4.749 -0.1140 -0.1628 -0.0301
30287W        W46761   8.855  15.465   0.070  0.0098  0.0331 -0.1839
30288W        W46762   8.465  11.813   4.766 -0.2363 -0.1644 -0.0117
30289W        W46763   0.082   3.247  10.821  0.0424  0.3058 -0.1417
30290W        W46764  14.809  13.808  15.173  0.4285  0.0496 -0.1095
30291W        W46765   5.575  17.890   4.478 -0.1801  0.0045 -0.0383
30292W        W46766  14.644   2.755   1.021 -0.0015 -0.0208  0.0860
30293W        W46767  15.230   1.972  10.050  0.3528 -0.2409  0.2323
30294W        W46768  16.626   9.118   5.671  0.0124 -0.1726 -0.0617
30295W        W46769  13.537  11.275  14.234  0.1771  0.0219  0.0446
30296W        W46770  15.782   9.288   0.581 -0.2045  0.1172 -0.1928
30297W        W46771   5.815  16.351  11.938 -0.3397  0.0670  0.2287
30298W        W46772  17.637  12.769   1.571 -0.2163  0.3886 -0.3233
30299W        W46773  17.754  14.759   4.159  0.0241  0.0024 -0.0587
30300W        W46774   7.003   8.114   4.384 -0.3486  0.1216 -0.2141
30301W        W46775  11.677   2.666  14.346 -0.1430 -0.0681  0.0897
30302W        W46776  12.974   9.859  15.734 -0.0722 -0.3060  0.1247
30303W        W46777   7.569  15.277  12.949 -0.0979 -0.0948  0.2994
30304W        W46778   2.310   5.951   0.898  0.1840 -0.0669  0.0447
30305W        W46779   2.242  13.240  11.224 -0.0091 -0.2065  0.1458
30306W        W46780   2.214  10.653  15.082  0.0705 -0.1454 -0.0805
30307W        W46781  14.293  14.616   2.129 -0.2549  0.0055  0.1547
30308W        W46782  14.325  13.608   2.438 -0.1414 -0.0605 -0.2489
30309W        W46783  11.662  13.450   3.693 -0.1784 -0.2505  0.0159
30310W        W46784   8.198  16.760  15.112 -0.0876 -0.0527  0.0402
30311W        W46785   5.303  12.532   4.647 -0.0228  0.1057  0.1268
30312W        W46786  14.181  16.610  15.271 -0.2940  0.0615  0.1162
30313W        W46787  11.374   1.902  14.758  0.0441 -0.1868  0.2381
30314W        W46788  12.973   2.586  12.051 -0.5497 -0.1970  0.1005
30315W        W46789   7.721  15.190   3.382  0.1270 -0.2317  0.0785
30316W        W46790   4.320  14.806  16.303  0.2266  0.0308  0.1029
30317W        W46791   0.941   6.812  11.752  0.0745  0.2628 -0.0968
30318W        W46792   9.315  17.823  15.613 -0.0833  0.1044  0.4213
30319W        W46793  14.366   3.581  15.509 -0.0302  0.1476 -0.0987
30320W        W46794  16.913   7.546  14.876  0.0874 -0.1413  0.0402
30321W        W46795   6.880  17.171  11.229  0.1288 -0.3128 -0.2942
30322W        W46796   2.807   7.736   0.370  0.2876 -0.2846 -0.0901
30323W        W46797   3.289   5.725   4.461 -0.0986 -0.0210 -0.3203
30324W        W46798   6.035  11.569   5.605  0.0705  0.3723  0.1579
30325W        W46799  10.837  17.590   1.881  0.3083 -0.1335 -0.2168
30326W        W46800  14.499   8.036  15.515  0.0922  0.1868 -0.1471
30327W        W46801   4.825   9.476   0.936 -0.0216  0.1743  0.1487
30328W        W46802  14.850   5.648   1.163 -0.2648 -0.0891  0.2172
30329W        W46803   5.831  13.914  11.848  0.2258  0.0306 -0.1007
30330W        W46804  10.783   1.556   3.258  0.0594  0.2483  0.3240
30331W        W46805  10.232   3.438  12.425 -0.1243  0.3289  0.0138
30332W        W46806  13.354   7.222   4.594 -0.0892 -0.1406  0.1596
30333W        W46807  13.351   1.820  11.321  0.0707 -0.5992 -0.0619
30334W        W46808  16.934  14.958   2.246 -0.2636  0.1265 -0.1303
30335W        W46809   6.012  12.566   5.692  0.1237 -0.0609  0.0722
30336W        W46810   2.161   8.938   0.438  0.0865  0.1579  0.1815
30337W        W46811   8.177   4.887  12.994  0.0445  0.3218  0.3720
30338W        W46812   0.697   3.371  15.044  0.0026 -0.0198 -0.1337
30339W        W46813  11.219   5.629  13.740 -0.1396  0.3979 -0.0534
30340W        W46814  18.109  10.990  12.066  0.0451  0.1860 -0.1798
30341W        W46815   3.638   6.971   4.781 -0.1271  0.1261  0.2346
30342W        W46816   9.509   5.427  12.628  0.1665 -0.1071  0.0363
30343W        W46817  12.506   3.107  15.732  0.0870 -0.1690 -0.1376
30344W        W46818  11.169   1.287  13.595 -0.2437  0.0441 -0.0276
30345W        W46819   1.947  13.331   4.867 -0.2297  0.1465  0.0367
30346W        W46820   4.631   4.208   3.506 -0.0438  0.2638  0.0358
30347W        W46821   4.597  15.307  15.491 -0.2727 -0.2272 -0.6257
30348W        W46822  15.592   6.568   2.113  0.0626 -0.1813 -0.0790
30349W        W46823  12.545   9.386  12.743 -0.1870  0.2035  0.1982
30350W        W46824  11.459  17.841  12.708 -0.3148 -0.1713 -0.0127
30351W        W46825  18.174  13.665   5.980  0.0666 -0.0825 -0.0738
30352W        W46826   3.450   9.776  15.843 -0.2169 -0.0499  0.2631
30353W        W46827   0.665  12.121   4.856 -0.4509  0.3638  0.0668
30354W        W46828   3.695   0.848  14.882  0.0311 -0.0526  0.0194
30355W        W46829   4.937   0.237   1.135 -0.0525  0.0201 -0.1142
30356W        W46830   4.105  11.702  15.676  0.1649  0.1338 -0.2039
30357W        W46831  11.071  17.594   1.436  0.1795 -0.1071 -0.0825
30358W        W46832  10.373  13.078  15.757 -0.0141 -0.1937 -0.0000
30359W        W46833  17.705  16.196   2.539  0.0452 -0.0750  0.0591
30360W        W46834  16.369   0.363  12.575  0.1471  0.1756 -0.3213
30361W        W46835   9.833  10.609   2.879 -0.0101 -0.3109  0.0857
30362W        W46836  13.747   2.111   2.151  0.2753 -0.1432 -0.1175
30363W        W46837  10.709   2.881   4.541  0.0305  0.1946  0.2941
30364W        W46838   0.317   3.184   2.070 -0.0519 -0.1727 -0.1153
30365W        W46839   5.887  10.747  12.190  0.3237  0.1737 -0.2888
30366W        W46840   6.033   8.211  11.916 -0.0869 -0.1686  0.0580
30367W        W46841   6.078  14.644   4.577 -0.1513  0.0153  0.1392
30368W        W46842  15.319  14.672  16.046 -0.1355  0.0577  0.0845
30369W        W46843  13.071  12.467   1.801 -0.0685  0.1084 -0.0423
30370W        W46844  10.789  16.606   0.665  0.3980  0.2686 -0.0507
30371W        W46845   7.979   7.073  11.030 -0.0367 -0.1090 -0.0617
30372W        W46846   3.318   4.758  12.492 -0.0077  0.2716 -0.0739
30373W        W46847  11.321   4.638  12.287 -0.1345  0.2154 -0.0539
30374W        W46848   1.515   4.050  11.131  0.0597 -0.0416  0.0772
30375W        W46849   4.589  14.300   1.903 -0.3220  0.1957  0.0494
30376W        W46850   0.301   4.868   3.227  0.3685  0.1304 -0.0326
30377W        W46851  11.384  17.566   2.406 -0.0067 -0.4473 -0.4001
30378W        W46852  15.450  11.666   3.752 -0.0711 -0.1461 -0.0094
30379W        W46853   5.544   0.456   4.799 -0.0249 -0.1209  0.0693
30380W        W46854   4.622   8.583   0.501 -0.0536  0.0063  0.2295
30381W        W46855   9.778   2.817   3.210  0.0209  0.0010 -0.3386
30382W        W46856  14.121   2.072   4.729 -0.0460 -0.1312 -0.0605
30383W        W46857   0.285   2.993  14.157  0.0163  0.0772 -0.0145
30384W        W46858   7.674   5.161  13.819  0.1970 -0.2586 -0.0110
30385W        W46859  17.942  13.768  11.383 -0.3361 -0.1252  0.2645
30386W        W46860   8.925  13.136  16.066 -0.0710 -0.1371 -0.0044
30387W        W46861  10.147  16.421   3.334 -0.3558 -0.0413 -0.1105
30388W        W46862  11.808   3.742  15.160 -0.1139 -0.0126  0.1272
30389W        W46863   8.550  15.599   5.584  0.1122  0.1370  0.1403
30390W        W46864  11.981   3.079  14.504  0.2128 -0.0199 -0.1831
30391W        W46865   2.084   6.394  11.059 -0.0448 -0.0250 -0.1959
30392W        W46866   5.642  11.237  15.063 -0.0676 -0.1390 -0.1586
30393W        W46867   4.844   9.856  11.599  0.0379  0.0004  0.0120
30394W        W46868   7.046  15.554   0.202  0.0784  0.1250  0.0715
30395W        W46869  16.075  11.118  11.616  0.3519 -0.0426 -0.1849
30396W        W46870  14.289   8.479  12.315  0.0965 -0.0153  0.3379
30397W        W46871   4.032   4.245  14.471 -0.1173  0.0863 -0.1451
30398W        W46872  17.135  17.262   0.736 -0.2826  0.1349 -0.1791
30399W        W46873   5.188   0.550   1.547  0.0024 -0.0214 -0.1581
30400W        W46874   5.621   3.859  13.420  0.0924 -0.0981 -0.2269
30401W        W46875  14.557   8.223   3.409 -0.0047  0.2820 -0.1971
30402W        W46876  15.302  16.304  14.429 -0.0031  0.0345 -0.1495
30403W        W46877  14.815   9.406   1.923 -0.3419  0.1715 -0.2365
30404W        W46878   1.419   1.687   2.529 -0.0626  0.0022  0.0908
30405W        W46879  14.697   3.611   0.309  0.1276 -0.1102  0.3924
30406W        W46880   2.417   4.446  11.151 -0.0124  0.0995 -0.3616
30407W        W46881  12.546   1.192  13.360 -0.2917 -0.0704  0.2629
30408W        W46882  15.211  14.337  12.850 -0.1979  0.0496 -0.2879
30409W        W46883  15.531   5.760  11.413 -0.3260  0.2561  0.1274
30410W        W46884   0.085  14.190  13.718  0.1974  0.1651  0.0114
30411W        W46885  12.110  12.814  15.743  0.1812 -0.0150  0.1848
30412W        W46886   8.879  15.386  15.260 -0.1967  0.2035 -0.1554
30413W        W46887   2.477   5.077   3.899 -0.1167 -0.0337  0.1501
30414W        W46888   2.035   0.534  14.047 -0.1208 -0.1838 -0.1241
30415W        W46889   5.749   5.624   2.050  0.0107 -0.0550 -0.0686
30416W        W46890  14.142   0.520  13.017  0.0205 -0.0783 -0.0346
30417W        W46891   1.095  17.476  11.705  0.1235 -0.0365 -0.3296
30418W        W46892   4.517  13.291  13.637  0.3500 -0.0978  0.0819
30419W        W46893  12.911   1.525   2.187  0.0262 -0.3635 -0.1815
30420W        W46894   2.713  15.167  15.679 -0.0832  0.0489 -0.2943
30421W        W46895  16.805   4.418  13.864 -0.0448  0.0649  0.0978
30422W        W46896   7.266  11.778  15.630 -0.0689 -0.1580 -0.1297
30423W        W46897   1.697  13.677  12.933  0.0181 -0.1130  0.2548
30424W        W46898  11.506  12.039  12.825  0.0406 -0.1885  0.0540
30425W        W46899   7.747   8.455  11.506  0.0786  0.2475 -0.0480
30426W        W46900   1.879  14.649  12.427 -0.1746  0.0051  0.0385
30427W        W46901   5.463   9.929   1.274 -0.0705 -0.0144  0.0164
30428W        W46902  17.201  14.545   0.467  0.3124  0.0574 -0.1509
30429W        W46903  13.598   6.080  13.352  0.1812  0.1509 -0.0830
30430W        W46904   7.277   7.910  13.701  0.0612  0.1479  0.1038
30431W        W46905   8.175   9.323  15.310  0.1401  0.2441 -0.0968
30432W        W46906  17.966   6.165   2.922  0.0007 -0.0043 -0.0155
30433W        W46907   9.791   2.863  15.021 -0.1752  0.1276 -0.1020
30434W        W46908   9.207   0.472  12.907 -0.3564  0.0404  0.1974
30435W        W46909  11.817   0.389   2.100 -0.1066 -0.2846  0.1125
30436W        W46910   5.516  10.256  11.296 -0.1206 -0.0445 -0.2844
30437W        W46911   0.225   7.063  14.293 -0.0779 -0.2128  0.1031
30438W        W46912   1.018   2.502  15.074 -0.2477  0.1174 -0.1922
30439W        W46913  11.812   1.578   2.939  0.0820  0.0540 -0.1810
30440W        W46914   2.273   5.006  16.079 -0.0400  0.0786 -0.0040
30441W        W46915   1.446  12.220  11.488  0.1913  0.1927 -0.0629
30442W        W46916  10.842   6.263  16.182  0.0138 -0.2444 -0.0829
30443W        W46917   7.450   9.874  16.213 -0.0752 -0.0540 -0.5121
30444W        W46918   3.740   6.031   5.007 -0.2875 -0.1134  0.0951
30445W        W46919   8.409  13.083   1.572  0.0518  0.0367 -0.0029
30446W        W46920   4.343   8.813   1.448 -0.5024 -0.2827 -0.3617
30447W        W46921  14.347  11.790  11.853 -0.0338 -0.0431  0.0295
30448W        W46922  12.238   5.151  14.658  0.0582 -0.0452  0.0497
30449W        W46923  16.388  10.258   4.098 -0.1024  0.1129 -0.0141
30450W        W46924   3.530   6.865   3.017  0.0971 -0.2015  0.1694
30451W        W46925   4.092   1.050   2.119 -0.0124  0.1035 -0.1807
30452W        W46926  13.081  10.443  13.359 -0.0850  0.2028 -0.0105
30453W        W46927   5.529  15.121  11.987 -0.1161  0.0432  0.0703
30454W        W46928   7.140   9.625   2.244  0.2141 -0.1311  0.3686
30455W        W46929  11.841   5.562   1.465  0.1550  0.0889 -0.4634
30456W        W46930   2.192  17.834   1.444  0.1203 -0.2493  0.2993
30457W        W46931  14.676   7.097   1.057 -0.0311  0.1743 -0.2895
30458W        W46932  12.341  13.054  15.310  0.1273 -0.1649 -0.2868
30459W        W46933  15.563   8.525   2.653  0.2305 -0.1219 -0.1273
30460W        W46934  14.419   7.507   1.910 -0.0386 -0.1116  0.1617
30461W        W46935   2.167   3.817  14.544  0.1095 -0.0994 -0.1195
30462W        W46936  16.067   6.775   2.017  0.1465 -0.0163 -0.1085
30463W        W46937  14.052   4.705  15.008 -0.1949 -0.0355 -0.1428
30464W        W46938   9.909  16.138   2.990  0.0602  0.1010  0.1607
30465W        W46939  11.658   8.386   1.825  0.1009  0.0713  0.0132
30466W        W46940  14.614   1.553  15.228 -0.0224  0.2640  0.0674
30467W        W46941  11.225   0.044  11.909  0.0386  0.0315  0.1383
30468W        W46942   5.219   5.221   5.128 -0.2596 -0.0893  0.0976
30469W        W46943  17.737   1.839  12.511  0.2092  0.0210  0.1895
30470W        W46944   2.518   6.806  14.798 -0.1567 -0.2793  0.1190
30471W        W46945   8.287  11.949  15.832 -0.2201  0.0888 -0.1098
30472W        W46946   3.461   8.764  14.972  0.0504 -0.3834  0.1929
30473W        W46947   8.502   6.635   4.792 -0.3058 -0.1960 -0.0130
30474W        W46948   9.741   4.450   0.050  0.1417  0.3280 -0.0516
30475W        W46949   0.927   4.812  16.349  0.0203  0.2737  0.0243
30476W        W46950   7.038   4.923   0.994  0.1384  0.2582 -0.1024
30477W        W46951  11.946  11.784   4.879  0.0244 -0.2331 -0.2695
30478W        W46952  17.414  17.609   0.480  0.1420 -0.0597  0.2781
30479W        W46953   3.759  12.618   1.551  0.1732 -0.2081 -0.0965
30480W        W46954   4.639  12.227  13.154 -0.1746 -0.0457 -0.0544
30481W        W46955   7.597   2.283   0.790 -0.0796 -0.3211 -0.0287
30482W        W46956  13.618  16.937   5.864 -0.0574 -0.1118  0.0094
30483W        W46957   9.337   6.055  15.916  0.0025 -0.0527  0.0305
30484W        W46958  15.750   6.560   3.421  0.1571 -0.1707  0.0433
30485W        W46959  11.915  14.023   4.600  0.0986 -0.1246 -0.3402
30486W        W46960  17.173   1.940  16.250 -0.1905  0.1569 -0.2183
30487W        W46961  10.814  16.871   1.127 -0.0934 -0.1280  0.2187
30488W        W46962   1.370   8.144   1.151  0.1527 -0.3203  0.0996
30489W        W46963   9.958  12.515  11.089  0.2534  0.1723 -0.3484
30490W        W46964  10.827  10.744  16.236 -0.0316 -0.1114  0.0437
30491W        W46965   3.995   5.659   2.907  0.0149  0.1423  0.2183
30492W        W46966   1.621  13.541  11.922 -0.0268 -0.0761  0.0919
30493W        W46967   7.627  12.848   0.323 -0.2195  0.0897 -0.0400
30494W        W46968   5.256   6.429   2.902 -0.0292 -0.1123 -0.0459
30495W        W46969   4.813  17.520   2.763  0.0677  0.0719 -0.1082
30496W        W46970   9.126  10.262  10.922  0.1630 -0.2001 -0.0467
30497W        W46971  11.962   1.772   2.204 -0.0117  0.0814 -0.3982
30498W        W46972   1.251   4.752  13.610  0.0527 -0.1958  0.0648
30499W        W46973  14.824  10.101  13.339  0.3512  0.1118  0.0070
30500W        W46974  13.870  11.079   3.418  0.2468  0.0112  0.1672
30501W        W46975   4.322  17.910   0.054 -0.1715 -0.1279  0.0878
30502W        W46976  15.808   8.133   0.413 -0.0722 -0.2800 -0.0431
30503W        W46977  10.489   0.432  15.069 -0.1094 -0.0623  0.0861
30504W        W46978   8.069  12.264   1.186  0.0545  0.0675  0.1159
30505W        W46979   3.347   7.897   2.749  0.0757  0.1105 -0.3143
30506W        W46980  16.154   6.044  16.277  0.0809 -0.1604 -0.0872
30507W        W46981  16.075   5.714  14.196  0.4115 -0.0802 -0.2550
30508W        W46982  13.322  10.328   1.446  0.0744 -0.2752 -0.1884
30509W        W46983  12.801  15.202   2.463 -0.3404 -0.0307  0.2751
30510W        W46984  16.927   0.786   4.786  0.1596 -0.0924  0.0099
30511W        W46985  17.065   3.432  11.977  0.3904 -0.2385  0.0568
30512W        W46986   7.337   6.761  11.716 -0.2523  0.1580  0.0069
30513W        W46987  17.975   5.007   3.769  0.0070 -0.3608 -0.0366
30514W        W46988   5.811  17.396  12.217 -0.0429 -0.0858  0.0192
30515W        W46989  12.353   1.336   2.000 -0.0314 -0.0549 -0.1410
30516W        W46990   6.589  14.403   4.124 -0.3037  0.1772 -0.1782
30517W        W46991  11.438  16.023  13.587 -0.2589 -0.0117 -0.0544
30518W        W46992  11.279  14.064   3.241 -0.1160 -0.0741 -0.2714
30519W        W46993  13.302  10.881  13.290 -0.0419  0.2307 -0.0098
30520W        W46994  13.816   1.320  15.370 -0.1472 -0.0926 -0.0463
30521W        W46995   4.118   0.884   5.362  0.1537 -0.0363 -0.3424
30522W        W46996  14.996   8.997   4.089 -0.0495 -0.2052  0.1963
30523W        W46997   3.806  13.569  14.159  0.0824 -0.0769  0.2962
30524W        W46998  14.946   1.415  12.497 -0.2764  0.2180 -0.0212
30525W        W46999  14.396   1.567   4.740  0.0559  0.0134  0.5355
30526W        W47000   2.065   3.264   2.399  0.1178  0.1043 -0.0163
30527W        W47001   1.018  17.635   4.963  0.1181 -0.3597 -0.0768
30528W        W47002   9.678  16.938  15.712 -0.1362 -0.0125  0.1325
30529W        W47003   1.157   3.242  11.611  0.0070 -0.0738 -0.0899
30530W        W47004   3.632  16.817  16.243  0.1299 -0.0973 -0.0574
30531W        W47005   3.509  14.949  10.901  0.0554  0.2434  0.1155
30532W        W47006   8.786   1.245  13.076 -0.0997  0.1279 -0.2719
30533W        W47007  12.785   9.332  14.743  0.4593  0.0574 -0.0853
30534W        W47008  13.025  17.325  12.425  0.0116  0.0420 -0.0072
30535W        W47009  14.796  11.993   1.135 -0.1403  0.0479  0.3124
30536W        W47010  12.961   8.468   5.000  0.1732 -0.1201  0.3759
30537W        W47011   6.863   9.043  12.682 -0.0398 -0.0695  0.0518
30538W        W47012   5.271  11.175  11.563 -0.0087 -0.1587 -0.2003
30539W        W47013   1.072   0.768  11.033  0.0842 -0.2626  0.2613
30540W        W47014   3.711   0.487  13.683  0.1209 -0.3281  0.0900
30541W        W47015   6.078   0.204   5.187  0.0933  0.1072 -0.0518
30542W        W47016  17.164  10.527  15.239  0.1464  0.2268  0.0029
30543W        W47017  12.231  12.315   1.259 -0.4534  0.0818 -0.0878
30544W        W47018  14.669  16.279  16.080 -0.0603  0.0759 -0.1305
30545W        W47019   9.416   1.963  14.557  0.0083 -0.2765 -0.0821
30546W        W47020  10.306  14.673   0.477 -0.2409 -0.1607 -0.0339
30547W        W47021   4.426   9.632  11.818 -0.1263 -0.0560 -0.1194
30548W        W47022  15.676  11.097  11.924 -0.0024  0.0467  0.0210
30549W        W47023   7.350  17.193   0.859  0.0142  0.1305  0.1093
30550W        W47024   7.506  17.508   4.443 -0.0948  0.1305 -0.0260
30551W        W47025   6.521  12.110  15.995  0.1831  0.0307  0.0993
30552W        W47026  17.746   0.776   5.458  0.0570  0.3297  0.2570
30553W        W47027   2.152   8.161  13.615 -0.0429 -0.1916  0.0576
30554W        W47028   3.685  10.348   5.844 -0.2492 -0.0096  0.3787
30555W        W47029   9.217  15.092  11.041 -0.1389 -0.2619  0.1541
30556W        W47030   9.144  13.718  13.778 -0.3976 -0.1452  0.1318
30557W        W47031  15.459   6.425   0.607  0.0624  0.0301 -0.1685
30558W        W47032   4.505   8.832   3.513 -0.0847  0.0765 -0.2768
30559W        W47033  15.804   5.112   1.720  0.0260  0.1705  0.2660
30560W        W47034  11.930   5.172  13.903 -0.0497 -0.0968 -0.2259
30561W        W47035   3.243   7.214  12.837  0.0599 -0.3529 -0.0078
30562W        W47036  10.229   5.966   1.081  0.3779  0.3276  0.1264
30563W        W47037  15.934   9.956   4.239  0.0293 -0.2309 -0.1044
30564W        W47038  10.993   7.157  14.019  0.0558 -0.2503 -0.0712
30565W        W47039   3.924   5.570  12.065 -0.0682  0.1156 -0.1135
30566W        W47040   2.510   0.378  15.180  0.0782 -0.1066 -0.2809
30567W        W47041  15.923   0.354  14.337  0.1350 -0.1771  0.0353
30568W        W47042  17.210  13.252   2.084  0.2815 -0.1106 -0.1935
30569W        W47043   8.745  13.060  13.905 -0.1802  0.0957  0.6175
30570W        W47044   1.786   8.758  14.055  0.0328 -0.2340 -0.3518
30571W        W47045  13.256  17.224  14.270 -0.1756 -0.1337 -0.0268
30572W        W47046   6.012   2.688  13.787  0.0013  0.1151  0.1052
30573W        W47047   3.246   1.626  12.729  0.0042 -0.0267  0.0040
30574W        W47048  11.778   4.609  11.965 -0.0546 -0.1722 -0.1553
30575W        W47049  10.509  12.798  12.768 -0.1337  0.1295  0.0253
30576W        W47050   1.554  11.500   2.895  0.0118  0.0200 -0.0964
30577W        W47051   4.129   4.232   0.196  0.3435  0.1377  0.0105
30578W        W47052  11.385   3.764  12.916 -0.1544 -0.1291  0.0658
30579W        W47053   7.230   6.436   4.692  0.4390 -0.1328  0.1343
30580W        W47054   3.806  17.100   4.769  0.1549  0.4822 -0.1045
30581W        W47055  11.125   3.237  16.161  0.0225  0.2882  0.0113
30582W        W47056   1.698  16.784   3.219  0.2196  0.4545  0.0553
30583W        W47057  10.177   2.199  11.380  0.0560  0.0449 -0.0467
30584W        W47058   7.200   0.525   5.118  0.2444 -0.2835 -0.2338
30585W        W47059   3.707   8.662   2.860 -0.0732 -0.0817  0.2200
30586W        W47060  12.646   1.526  16.095 -0.0017 -0.2020  0.0033
30587W        W47061   0.149   6.293   0.285  0.1661 -0.1753  0.0539
30588W        W47062   9.764  12.959  13.744 -0.1002 -0.1164 -0.0233
30589W        W47063  11.589   1.579   2.514  0.1263  0.1385  0.1672
30590W        W47064  10.290   7.405   0.712  0.1547  0.3836 -0.1116
30591W        W47065  15.452   3.390   1.227  0.0553  0.2049  0.0658
30592W        W47066   6.033  16.615   1.823  0.2349 -0.3068  0.1334
30593W        W47067   4.802   3.597   1.839 -0.1431  0.2040  0.0081
30594W        W47068   0.243   7.334  13.322 -0.0738 -0.0717 -0.1361
30595W        W47069   4.093   2.033   6.174  0.2074  0.1814  0.0764
30596W        W47070   8.109  14.734   1.381  0.0678 -0.0880 -0.1757
30597W        W47071  15.084   1.562  12.974  0.0807  0.0600 -0.1562
30598W        W47072   2.083   4.033  13.278 -0.1595 -0.2285  0.3501
30599W        W47073   2.505   9.392  15.818  0.0629  0.0452 -0.0345
30600W        W47074   5.456  18.109   3.176 -0.2757  0.1125  0.2206
30601W        W47075  12.585   1.449   5.714 -0.0536 -0.3667  0.0735
30602W        W47076   4.684  12.838   1.422  0.0850  0.0269 -0.0667
30603W        W47077   4.442  17.227  16.211 -0.0712  0.2294 -0.0245
30604W        W47078   7.975   7.600  15.358 -0.0101  0.0452 -0.3649
30605W        W47079   5.340  13.646  15.044  0.0466 -0.1845  0.0412
30606W        W47080  15.282   4.206   0.176 -0.2207 -0.5664  0.0794
30607W        W47081  11.833   6.426   2.005  0.2219  0.1514 -0.0800
30608W        W47082   7.288   0.491   0.646 -0.0046 -0.0624 -0.3057
30609W        W47083   7.747   0.813   0.659  0.1604 -0.1552 -0.1377
30610W        W47084  14.796  12.561  11.962  0.1220  0.2052  0.1988
30611W        W47085   9.397   3.211  12.292 -0.0944  0.0960  0.1542
30612W        W47086   1.684   9.564   1.074  0.4317  0.2665  0.1229
30613W        W47087   7.691   2.320   4.911 -0.0094  0.3178  0.0407
30614W        W47088  12.250   5.654   1.026 -0.0011  0.0899 -0.0534
30615W        W47089   3.763  16.115  13.607 -0.0354 -0.3196 -0.2169
30616W        W47090   8.881   9.746  14.057  0.1500 -0.1672  0.1083
30617W        W47091  14.389   0.689  14.338 -0.0865  0.1024  0.2349
30618W        W47092   3.213  14.237   2.519 -0.3036  0.3032 -0.4232
30619W        W47093   6.297  12.291  10.945 -0.1908  0.2285 -0.1384
30620W        W47094   1.326   0.064   3.328  0.0987 -0.0447  0.1403
30621W        W47095   9.831   4.595   3.303 -0.2059 -0.0970  0.3010
30622W        W47096  16.519   9.859  15.605 -0.3066  0.1300  0.0144
30623W        W47097   6.071  12.961   1.918 -0.0452 -0.2756 -0.0590
30624W        W47098   9.371   1.135  11.213 -0.2748 -0.2132 -0.0317
30625W        W47099  11.357   5.664   4.490  0.0052  0.0288 -0.0121
30626W        W47100   8.956   4.587   2.911 -0.1149  0.0401  0.1105
30627W        W47101   7.832  13.388  16.366  0.0933 -0.2379 -0.0964
30628W        W47102   7.515  10.606   5.593  0.2334  0.1451 -0.0302
30629W        W47103   0.441   4.493   5.425  0.1836 -0.1283  0.0061
30630W        W47104   4.026   0.501  14.949  0.0599  0.1657 -0.1687
30631W        W47105   3.722  14.759   2.840  0.3368 -0.0877  0.1984
30632W        W47106   9.704  17.145  12.128  0.2370  0.4455 -0.0280
30633W        W47107  16.061   4.224   3.939 -0.2452 -0.2168 -0.2192
30634W        W47108   2.876   4.397   1.818  0.4536  0.1338  0.0859
30635W        W47109   6.935  15.864  12.334 -0.0655  0.2087 -0.2028
30636W        W47110  17.809   4.589  14.370 -0.2415  0.0861  0.1278
30637W        W47111  16.419   4.651  16.252  0.2719 -0.0232 -0.0875
30638W        W47112  11.869   8.989  12.004  0.0022  0.0126  0.1015
30639W        W47113  14.044  14.128   5.538 -0.1070 -0.0038  0.0064
30640W        W47114   0.935  16.159  10.508  0.1084 -0.0888  0.0124
30641W        W47115  18.155   7.699   1.138 -0.0572 -0.2225 -0.2146
30642W        W47116   0.315   8.180   4.955 -0.0336  0.0802 -0.2636
30643W        W47117  13.510  17.350   5.579  0.1921  0.1738 -0.1403
30644W        W47118   9.330   9.755   0.901 -0.0496  0.3036  0.0254
30645W        W47119  11.144  17.785   0.393 -0.2317 -0.1347  0.0305
30646W        W47120  10.895   7.356   0.049 -0.1893 -0.2197 -0.1997
30647W        W47121   4.048  15.274   5.852  0.0683 -0.2128  0.1212
30648W        W47122  17.573   8.719   2.171  0.0630 -0.0488 -0.0369
30649W        W47123  14.727   2.760  15.555  0.0985 -0.6152  0.0926
30650W        W47124   4.191   8.041   4.556  0.0868 -0.0755  0.2477
30651W        W47125   5.085   4.709   2.370 -0.0453 -0.0466  0.1641
30652W        W47126   0.504   0.310  12.480  0.1947 -0.0865  0.1588
30653W        W47127   0.778   8.294   4.797 -0.1767 -0.2664 -0.1241
30654W        W47128   3.082  18.024   4.363  0.3646  0.3186 -0.1343
30655W        W47129   9.498  15.879   2.803 -0.1655  0.1619  0.1593
30656W        W47130   3.613  12.920   9.847 -0.0732  0.0610  0.0942
30657W        W47131  13.916   6.946   0.031 -0.3394  0.0150 -0.1596
30658W        W47132   3.499   8.258  14.975  0.0869  0.2471  0.1351
30659W        W47133  14.853   0.925  12.460  0.2227  0.1494 -0.2517
30660W        W47134  13.692  10.183   1.074 -0.0100 -0.1375  0.1236
30661W        W47135   5.650   6.468   5.337  0.4595 -0.0020  0.0283
30662W        W47136   3.816   4.153  13.963 -0.0838  0.1618 -0.2503
30663W        W47137   2.819  17.366   1.612  0.0571 -0.0513 -0.2641
30664W        W47138   0.555   8.966  15.115 -0.0727  0.2547 -0.0338
30665W        W47139   3.427  12.638   6.286  0.0908 -0.1431 -0.0019
30666W        W47140  17.724   0.504   5.015 -0.1490  0.1752 -0.2072
30667W        W47141   3.097   5.612  15.254  0.1084  0.0751  0.0640
30668W        W47142  16.087   6.485  14.913  0.0254 -0.0872  0.0192
30669W        W47143   1.092   6.488   1.015  0.2791  0.0563  0.0664
30670W        W47144   5.140  14.879   0.471 -0.1000 -0.0815 -0.0926
30671W        W47145  10.821   6.048  12.497 -0.0440 -0.1974  0.0142
30672W        W47146   6.287  14.693  14.824 -0.1661 -0.0644  0.1602
30673W        W47147   0.720   4.723  13.439 -0.0689 -0.2905 -0.1954
30674W        W47148   5.079   5.292  15.146 -0.2390 -0.0822 -0.0918
30675W        W47149   0.530  15.416   4.225 -0.1646  0.0666 -0.2397
30676W        W47150  17.238   0.379   3.595  0.1114  0.0194 -0.2200
30677W        W47151   9.962   6.699  15.999 -0.0866 -0.0008 -0.1069
30678W        W47152  12.598   2.901  13.294 -0.1436 -0.0106  0.1437
30679W        W47153   4.132  13.138   4.870 -0.1186  0.2610  0.1099
30680W        W47154   2.222   8.178  14.601 -0.0323 -0.1329  0.0593
30681W        W47155   4.013  10.989   1.211  0.2818  0.0046 -0.0984
30682W        W47156   2.210  13.914   0.073  0.1111  0.1014  0.0375
30683W        W47157  15.125   6.504  10.766 -0.2029  0.0193 -0.1338
30684W        W47158  17.860  14.936   4.625 -0.1897  0.2347  0.2506
30685W        W47159  12.977   9.547  13.783 -0.2225  0.0659 -0.0670
30686W        W47160   6.742   4.811   3.202 -0.1912 -0.0826  0.0279
30687W        W47161   4.698   6.328   5.296  0.1090  0.0463  0.1234
30688W        W47162   3.301  10.494  12.744 -0.2477  0.0129 -0.0252
30689W        W47163   6.874   8.350   3.505  0.0090 -0.1131  0.0184
30690W        W47164  15.493  16.169   5.656  0.1614 -0.0581  0.1430
30691W        W47165  16.551  13.179   0.510 -0.1129 -0.0657 -0.0009
30692W        W47166   5.277   2.648  11.545 -0.2055  0.1008  0.0922
30693W        W47167  16.094  10.026   0.320  0.4787 -0.0116  0.0384
30694W        W47168   2.606   6.642  12.822 -0.0174 -0.1909 -0.1658
30695W        W47169   8.324  17.413   2.389  0.2689 -0.0235 -0.2240
30696W        W47170   2.491  13.806  15.245  0.2843 -0.2111 -0.2898
30697W        W47171   6.811  10.794   3.740  0.0280 -0.0150 -0.1443
30698W        W47172  13.317   3.279   4.790  0.2459  0.1067  0.1027
30699W        W47173   7.559  15.254  14.644 -0.2060 -0.1166 -0.1722
30700W        W47174  12.581   9.573  15.140  0.1208  0.0858 -0.1339
30701W        W47175   5.444   1.170   2.418 -0.2446  0.1614 -0.0096
30702W        W47176  15.331  16.696  13.454  0.3517 -0.3092  0.2924
30703W        W47177   2.444   1.176  14.024  0.0654 -0.0136  0.0718
30704W        W47178  16.697  17.866   3.459 -0.2041 -0.1750 -0.3916
30705W        W47179  14.157   2.622  15.901  0.3504 -0.1943 -0.1864
30706W        W47180   8.233   6.246   1.476 -0.0720 -0.0406 -0.0037
30707W        W47181   7.486  12.143   2.587  0.0018  0.2688 -0.3238
30708W        W47182   0.002   9.426   0.546 -0.1000 -0.1440  0.1910
30709W        W47183   3.141   5.196  15.938  0.1815 -0.0656  0.2024
30710W        W47184   3.617  14.058  12.873  0.1429 -0.1566  0.1139
30711W        W47185  13.441   4.613   3.789  0.1223  0.0970 -0.0777
30712W        W47186   6.763  17.747   5.413 -0.0724  0.0913 -0.0734
30713W        W47187  16.866   7.544   4.438  0.2961 -0.1093  0.4703
30714W        W47188   4.701  12.427  14.676  0.1569 -0.3136 -0.1814
30715W        W47189  12.000  13.083  14.962 -0.1007 -0.3191  0.0135
30716W        W47190   6.078   5.638   1.071  0.1889 -0.2036 -0.2703
30717W        W47191  15.988   3.400   3.534  0.1400  0.0435  0.1036
30718W        W47192   8.075  12.867   0.126 -0.1270 -0.2261 -0.3442
30719W        W47193  13.371   5.649  15.731 -0.0713 -0.3374 -0.0824
30720W        W47194  13.342  13.794   4.609  0.0397  0.0811  0.1097
30721W        W47195   5.626  14.952   2.612  0.3891  0.1136 -0.0098
30722W        W47196  15.702  16.561   5.749 -0.2138 -0.0281  0.1507
30723W        W47197  15.838  10.300  12.845 -0.1119 -0.1307  0.1368
30724W        W47198   9.410   3.614  15.534  0.0147  0.0188  0.3621
30725W        W47199  10.421   6.019   2.158 -0.0234 -0.1597 -0.1676
30726W        W47200  12.127  16.550  13.265  0.0272  0.1092  0.1400
30727W        W47201   8.297  17.319   5.189  0.1341  0.0458  0.0196
30728W        W47202  14.211   2.292   0.952 -0.0278 -0.0866 -0.0272
30729W        W47203   4.005  15.704  15.542  0.0563  0.2489  0.2392
30730W        W47204   7.488   9.639  14.935 -0.2026  0.0168  0.0348
30731W        W47205  17.200  15.024   0.606 -0.0379 -0.0817  0.1239
30732W        W47206   7.397   9.268   5.136 -0.2463 -0.0044  0.3577
30733W        W47207   2.898   3.969  15.960 -0.1668 -0.1401 -0.0368
30734W        W47208   5.981   0.325   1.884 -0.1584  0.0263 -0.3060
30735W        W47209   4.201  16.353   5.569 -0.2034 -0.2046 -0.0395
30736W        W47210  15.961   3.442  16.312 -0.1544 -0.2102  0.2444
30737W        W47211  12.746   2.081  15.622 -0.0052  0.1548  0.1880
30738W        W47212   6.376   7.795  11.928 -0.3398 -0.0920  0.1267
30739W        W47213  16.376   5.532   2.397  0.1249  0.0903 -0.1885
30740W        W47214  11.891   4.030   4.134 -0.0335  0.0217 -0.0727
30741W        W47215  15.286   5.890   1.309 -0.3198 -0.1110 -0.0665
30742W        W47216   0.060  13.266  12.623  0.1281 -0.3615  0.1446
30743W        W47217  17.636  10.383  16.201  0.0068 -0.1743 -0.1332
30744W        W47218   3.244  12.061  12.025  0.2940 -0.3670  0.2853
30745W        W47219   0.428  14.914  12.433  0.3671 -0.0030  0.1174
30746W        W47220   4.824  10.541   3.243 -0.0622 -0.0036  0.1900
30747W        W47221  17.498   9.462  12.552  0.1087 -0.2685  0.2492
30748W        W47222  14.342   2.243   2.924 -0.0455  0.1712  0.1583
30749W        W47223   8.562   0.078   2.710  0.0900 -0.1464  0.3233
30750W        W47224   8.472   3.129   4.386  0.1309  0.2484 -0.1896
30751W        W47225   6.624  10.770   4.755 -0.0246 -0.0312  0.1350
30752W        W47226   0.659  14.073  15.527 -0.1774  0.1725 -0.0626
30753W        W47227  17.340  14.784  12.716 -0.4046  0.2461 -0.1196
30754W        W47228   7.521  13.966   4.385  0.1723 -0.1186  0.1106
30755W        W47229  17.262  14.955   3.017  0.0664  0.0574 -0.1677
30756W        W47230   3.682  13.683   1.127  0.1473  0.1247  0.0948
30757W        W47231  13.501   6.696   2.676 -0.1433 -0.1442  0.0396
30758W        W47232  13.793  11.253  15.208  0.2286 -0.2160  0.2956
30759W        W47233   4.174   8.722   0.640 -0.0823  0.0414 -0.0377
30760W        W47234   3.487  12.099   3.328  0.2408 -0.0583  0.0532
30761W        W47235   5.289   2.784  14.209  0.2076  0.2388 -0.0904
30762W        W47236  12.455   4.459  15.350 -0.0722  0.0959  0.1366
30763W        W47237  17.540   1.635   4.959 -0.0915 -0.2185  0.0361
30764W        W47238  14.188   5.738  14.083 -0.0287 -0.0750  0.0949
30765W        W47239  18.106  12.033  11.583 -0.0324 -0.1216 -0.0115
30766W        W47240   8.566   3.965   2.400  0.0207 -0.2910 -0.0206
30767W        W47241  15.943  12.501   3.845  0.0544  0.1030  0.3104
30768W        W47242  13.031  11.201   4.495  0.3254  0.0847 -0.1690
30769W        W47243   0.417  15.273  15.100 -0.2300 -0.0636  0.0037
30770W        W47244   7.833  10.904  13.092  0.1804  0.1509  0.2180
30771W        W47245   9.495  11.413   5.254 -0.3481 -0.0228  0.1295
30772W        W47246   8.793  14.900  11.401  0.0900  0.1840  0.1508
30773W        W47247   4.481   6.157   2.407 -0.0669 -0.2174  0.1906
30774W        W47248   0.351  16.254  12.409 -0.1005 -0.1252 -0.2114
30775W        W47249   9.035   7.575   4.188  0.0280  0.1874  0.3186
30776W        W47250  17.488   3.224   3.200 -0.0249  0.4388  0.0303
30777W        W47251  16.239  17.193  13.663  0.0503 -0.0065 -0.3772
30778W        W47252  17.354  13.809  13.993  0.0299 -0.0746  0.0315
30779W        W47253  14.553   6.337   1.617  0.0755  0.2417 -0.2199
30780W        W47254   4.013  10.965  13.868  0.0990 -0.0792  0.2448
30781W        W47255  11.418  18.025   2.714 -0.0913  0.2417  0.1630
30782W        W47256  11.715   6.709  14.603  0.0798 -0.5463  0.0946
30783W        W47257  17.939  11.960   3.940 -0.2293 -0.0283 -0.0123
30784W        W47258  17.743  13.804   2.494 -0.1589  0.1466 -0.0875
30785W        W47259   9.409  14.959  13.130  0.3721  0.0704  0.0145
30786W        W47260   5.241   3.071  12.071  0.1634 -0.2141  0.0486
30787W        W47261   3.947  10.981   4.933 -0.0318 -0.3767 -0.4559
30788W        W47262   2.097   8.843  12.781  0.1619  0.0498 -0.1398
30789W        W47263   1.232  12.633  14.690  0.1059 -0.0701 -0.0237
30790W        W47264   6.040   8.696  11.178  0.1011  0.1708 -0.1722
30791W        W47265   3.931   9.943   1.187 -0.0453  0.0604  0.0753
30792W        W47266  15.496   0.367  11.053  0.0053  0.1328  0.2841
30793W        W47267   7.570   8.526  12.871 -0.1963 -0.0342 -0.0148
30794W        W47268   7.146   5.910  11.868  0.0030  0.1817 -0.0972
30795W        W47269   5.306  16.771   0.393 -0.1552  0.3721  0.0986
30796W        W47270   1.077   9.908  15.194 -0.1577  0.1362 -0.1171
30797W        W47271   2.527   0.647  10.553  0.4046 -0.0240  0.1669
30798W        W47272   5.259  11.589  12.904 -0.3690 -0.2138  0.0238
30799W        W47273  15.115  11.382   2.084 -0.0625 -0.2238  0.2614
30800W        W47274   6.508  12.963   2.513 -0.3738  0.1813 -0.0910
30801W        W47275   4.941  12.055  16.076 -0.0732  0.0453  0.1356
30802W        W47276   3.212   6.819   3.377  0.4687 -0.3037 -0.0330
30803W        W47277   8.169  12.682   4.749 -0.3859  0.1744 -0.0682
30804W        W47278  11.815  12.690   3.257 -0.2841 -0.1546 -0.1458
30805W        W47279  12.815   8.943  11.474  0.0230 -0.1428  0.1115
30806W        W47280  11.320   8.720  13.805  0.0069 -0.1226 -0.0794
30807W        W47281   5.520   3.556   0.051  0.0154  0.0215 -0.1309
30808W        W47282  13.068  10.948  11.897  0.0605  0.1534  0.0190
30809W        W47283   6.119  11.032   0.102  0.3253 -0.2122  0.0328
30810W        W47284  13.442  13.644   2.399 -0.2127 -0.2348  0.0004
30811W        W47285   9.442   5.813  13.549 -0.2667 -0.2217  0.2490
30812W        W47286   8.191  14.793  12.295 -0.1432  0.0761  0.0094
30813W        W47287  10.005  16.835   1.412  0.0028 -0.1141 -0.0466
30814W        W47288   1.595   6.450   1.882 -0.1265 -0.2267  0.0331
30815W        W47289   0.682  15.704  14.121  0.4805  0.0652 -0.0702
30816W        W47290  16.031   8.318  14.531  0.1560  0.0795 -0.1999
30817W        W47291  17.653  16.310  12.741 -0.2007  0.1527  0.0108
30818W        W47292   5.878   4.032  13.807 -0.0323 -0.0699  0.0434
30819W        W47293  14.110   9.987   1.724 -0.0351 -0.0322  0.1143
30820W        W47294   4.423  15.645  14.005  0.0658 -0.1395  0.2277
30821W        W47295  10.492   4.540   2.150 -0.2417 -0.0798  0.0885
30822W        W47296   7.356   5.521  12.594 -0.3232 -0.0234 -0.4514
30823W        W47297  16.703  11.279  12.795 -0.1800  0.1922  0.0502
30824W        W47298  15.986   9.506  13.174 -0.0490  0.0698  0.0718
30825W        W47299   4.152   0.545  12.910  0.0183  0.0173 -0.0221
30826W        W47300  15.313  14.421  14.942  0.0452 -0.1322  0.1602
30827W        W47301  18.006  15.736   0.119 -0.1093 -0.0991 -0.2199
30828W        W47302   4.273  16.462   2.163  0.1360 -0.1383 -0.0877
30829W        W47303   5.722  15.847   2.756 -0.2072  0.2099 -0.0317
30830W        W47304  15.764   8.818  12.695 -0.1646 -0.4984  0.3871
30831W        W47305  15.257   3.844   1.060  0.2540  0.1164 -0.1105
30832W        W47306  14.693  13.080  13.275  0.0152  0.1024  0.0602
30833W        W47307   7.426   5.197   1.293  0.2715  0.0735  0.0950
30834W        W47308  11.227  14.720  14.109  0.3079 -0.0346 -0.1121
30835W        W47309  18.129  10.103  12.391  0.3438 -0.0534  0.1174
30836W        W47310  15.910   3.453  14.233  0.0292  0.1692  0.2102
30837W        W47311  11.327   1.629   0.767  0.2129  0.0270  0.0616
30838W        W47312  14.063  15.755   2.715 -0.0151 -0.0810  0.0909
30839W        W47313   8.211  13.617  14.007 -0.1016  0.1889 -0.0267
30840W        W47314  15.238  12.443   2.549  0.0771 -0.3117 -0.1656
30841W        W47315   0.693  13.934  12.582 -0.1392 -0.0156 -0.3978
30842W        W47316  17.055  11.512  14.995 -0.3276  0.0957  0.0487
30843W        W47317   1.216  12.222  15.055  0.2308 -0.0015 -0.1482
30844W        W47318  10.002   3.011   0.109  0.2603  0.3395  0.0504
30845W        W47319   0.139   7.661   4.339 -0.1298 -0.1273 -0.0799
30846W        W47320  14.894   5.364  12.082 -0.0744  0.2411  0.2444
30847W        W47321   7.966   0.603  15.416 -0.0070  0.0679  0.0160
30848W        W47322  14.888  14.142   0.234 -0.1424  0.1651  0.2923
30849W        W47323  11.276  17.826  15.963 -0.4644 -0.3756 -0.1040
30850W        W47324  15.362   0.872   4.013 -0.3039  0.1459 -0.2481
30851W        W47325  11.378   9.642   2.700  0.2216 -0.2677  0.0765
30852W        W47326  14.906  14.619  13.250  0.2664  0.1261 -0.1254
30853W        W47327   1.332   3.828  14.843  0.0683  0.1714  0.2244
30854W        W47328   3.468  12.038  13.516 -0.1794 -0.4098  0.1652
30855W        W47329  15.128  10.578  11.606  0.0085  0.1832 -0.1921
30856W        W47330  13.685   2.318  13.479 -0.1054 -0.0684 -0.0139
30857W        W47331  16.310  11.284   5.589 -0.0297  0.3275 -0.0794
30858W        W47332  13.830  17.161   0.265  0.3399 -0.1562  0.0772
30859W        W47333   3.436   8.561   4.977  0.2450  0.2855 -0.1345
30860W        W47334   7.096  15.245  12.568  0.2434  0.3538  0.0077
30861W        W47335  14.262  12.263  11.695 -0.1492  0.3224 -0.1092
30862W        W47336  11.699  11.437   0.046 -0.3189 -0.0071 -0.0561
30863W        W47337  17.807  12.003  15.779  0.2299 -0.3915 -0.0720
30864W        W47338   4.273   9.232   2.324 -0.0327 -0.0184  0.1035
30865W        W47339  11.823  17.556   0.442 -0.1166  0.2815  0.2687
30866W        W47340   2.856  10.579   0.847 -0.0609 -0.0693 -0.2223
30867W        W47341  12.687   7.714   5.161  0.0621 -0.0774  0.2202
30868W        W47342  10.713   3.504   3.431  0.0654 -0.0897 -0.0120
30869W        W47343  16.843  11.316  11.992 -0.2284  0.0963  0.0621
30870W        W47344   2.359   5.484   1.026 -0.2449  0.2384 -0.0462
30871W        W47345  14.694  15.429  16.008  0.1341  0.2374  0.1923
30872W        W47346   4.220  13.145  11.497 -0.3083  0.2647 -0.0028
30873W        W47347   0.667  10.794   0.333  0.0025 -0.0685  0.0293
30874W        W47348   4.231  10.195   4.079 -0.0761 -0.1220 -0.0106
30875W        W47349   6.724   5.198  12.801  0.1071  0.4376  0.0298
30876W        W47350   2.603   0.276  16.128  0.0007  0.1150 -0.2126
30877W        W47351  15.154  15.106  15.853  0.2949  0.1799  0.0539
30878W        W47352   8.413   6.461   2.694  0.1168  0.1870  0.1391
30879W        W47353  17.193   5.717   2.733 -0.0656  0.2049  0.0496
30880W        W47354   3.652   9.028  11.034 -0.1152 -0.4504  0.0553
30881W        W47355   2.531   5.978   4.754  0.1398  0.1879  0.1901
30882W        W47356   5.089   5.784  15.002 -0.0284 -0.1753 -0.0544
30883W        W47357   5.463  18.093   1.501 -0.2465  0.0031 -0.1810
30884W        W47358   2.108   3.112   5.411 -0.0561  0.0435  0.2531
30885W        W47359  14.172  13.579   3.474  0.0208 -0.1156 -0.7632
30886W        W47360  15.905  12.900   2.116  0.2861  0.0803 -0.2381
30887W        W47361   8.633   0.666  11.584  0.0496 -0.0711 -0.0936
30888W        W47362  15.957   0.141  12.794 -0.0219  0.2004 -0.0190
30889W        W47363  12.127   8.133   1.049 -0.3094 -0.2432 -0.0654
30890W        W47364   0.965  15.156   3.780 -0.0548 -0.0703  0.0869
30891W        W47365   4.636   0.231   0.186  0.0998  0.1049 -0.4741
30892W        W47366   2.640   4.743   4.299  0.1213 -0.1635  0.0117
30893W        W47367  17.989   0.720   2.631 -0.0831  0.0363  0.1806
30894W        W47368  10.857  15.428   0.196 -0.1115  0.2405  0.2606
30895W        W47369   3.244  10.729   2.023  0.0555  0.1722 -0.0093
30896W        W47370   0.623   4.441  15.734  0.0197 -0.7172 -0.0102
30897W        W47371  14.046  10.645  11.246 -0.0255 -0.2142 -0.0532
30898W        W47372  13.969  12.427   3.911 -0.0977 -0.1385  0.0528
30899W        W47373  12.040  17.595  14.687  0.1736  0.0068 -0.0113
30900W        W47374   2.528   9.850   5.334 -0.0301  0.0164 -0.1598
30901W        W47375  17.068   2.777  13.779  0.0036 -0.0930 -0.1688
30902W        W47376   6.341   2.788   3.615  0.3043  0.0756 -0.0570
30903W        W47377   8.269  15.237   2.101 -0.1164 -0.1618 -0.0995
30904W        W47378   0.971  17.155   4.025  0.1884 -0.2299  0.1556
30905W        W47379   0.357  14.637  11.554  0.0185  0.0976 -0.2277
30906W        W47380  11.947  16.513  11.751 -0.3170  0.2025  0.0585
30907W        W47381  15.428  10.642   1.865  0.2720 -0.1689 -0.3803
30908W        W47382  16.233   7.088   1.684  0.1507  0.0416 -0.2651
30909W        W47383  10.196  16.141  16.143 -0.0126 -0.2547  0.1515
30910W        W47384  10.107   6.308   5.243 -0.0907 -0.1137 -0.0113
30911W        W47385  10.225   2.594  14.124  0.0585  0.1294 -0.0143
30912W        W47386  13.805  15.701  14.848  0.3610 -0.1797  0.0599
30913W        W47387   2.727  14.964   5.025  0.2563  0.4742 -0.0162
30914W        W47388   1.104   3.521   1.255  0.1018 -0.4079 -0.0677
30915W        W47389   9.328   0.058  15.322  0.1771  0.2102 -0.2608
30916W        W47390   9.153  17.067   5.922 -0.0608  0.1799  0.0306
30917W        W47391   7.103  16.332   1.063  0.2276  0.1856  0.2632
30918W        W47392  11.492  15.008   3.467  0.2041  0.2046  0.0991
30919W        W47393  10.765   7.051   1.513 -0.0838 -0.0283  0.0487
30920W        W47394   2.226  14.284   3.817  0.0500 -0.0204 -0.1647
30921W        W47395  12.452  11.814   4.878  0.1533 -0.0482  0.1310
30922W        W47396  15.619   6.628  15.696  0.1163  0.1306 -0.0788
30923W        W47397   1.568  13.057   4.626 -0.0147 -0.0199  0.0133
30924W        W47398   8.555   6.110  12.619 -0.1610  0.0922 -0.1768
30925W        W47399   5.923   3.338   2.425 -0.1878  0.0907  0.0686
30926W        W47400  14.233  13.237   5.011  0.0626  0.2059  0.2170
30927W        W47401   2.466   1.601   2.854  0.1380 -0.4795  0.0124
30928W        W47402  14.970  15.959   3.107  0.1526  0.0730 -0.0866
30929W        W47403   8.408   3.040   2.199 -0.0345 -0.3236  0.2361
30930W        W47404   9.779  10.623  16.175 -0.1797  0.3863  0.2256
30931W        W47405  18.089   9.955   0.941  0.1555  0.0700 -0.1177
30932W        W47406  16.729   0.165   3.612 -0.3993 -0.2778 -0.2661
30933W        W47407   5.046  17.107  15.344 -0.2937 -0.1660  0.2644
30934W        W47408   9.747   7.841  11.311 -0.0290 -0.0556  0.0792
30935W        W47409   1.892   1.296  10.894  0.2092  0.2678 -0.0055
30936W        W47410   8.368   2.008  12.488 -0.0824 -0.0818 -0.0637
30937W        W47411   9.944   8.917  11.855 -0.4844  0.0521  0.0464
30938W        W47412  13.054   2.815  15.181 -0.1086 -0.0790  0.4626
30939W        W47413   3.018  12.259   1.456  0.1003  0.0142 -0.0604
30940W        W47414  11.615   2.235   4.759 -0.0388 -0.0867 -0.0388
30941W        W47415   7.292   8.585   5.757 -0.1325  0.1144 -0.1085
30942W        W47416   7.330   9.957  12.412 -0.0976  0.2303 -0.3488
30943W        W47417   2.472   3.074   2.565 -0.1446  0.1166  0.2073
30944W        W47418   0.710   3.229  14.275 -0.2435  0.0058  0.0004
30945W        W47419  12.680  14.217  14.710 -0.2043  0.1250 -0.0394
30946W        W47420   4.625   6.100  16.345 -0.0324 -0.0777  0.2072
30947W        W47421  16.303   7.963   5.022  0.0206 -0.0455 -0.1685
30948W        W47422   9.556   8.448   3.199 -0.1653 -0.2050  0.0881
30949W        W47423   6.724   0.154  14.057 -0.1213 -0.0811 -0.1141
30950W        W47424  11.344   1.338   3.863  0.1007 -0.2824  0.1172
30951W        W47425  15.421   3.997  12.165  0.1429 -0.0174 -0.0077
30952W        W47426  11.200  12.713   3.687 -0.3640 -0.2392 -0.0410
30953W        W47427  11.766   7.002  11.713  0.1395 -0.1588  0.1513
30954W        W47428  10.495   8.037  11.454  0.3642 -0.1537 -0.0611
30955W        W47429   2.581   1.070   5.144  0.3015  0.1334 -0.2231
30956W        W47430   8.511  14.997  13.738  0.1403  0.2343  0.0440
30957W        W47431   9.940   7.976  12.241 -0.3349  0.0166  0.1138
30958W        W47432   7.254   7.120  13.500 -0.4689  0.0796  0.0263
30959W        W47433  13.712  17.386  11.980  0.0806  0.2074  0.1964
30960W        W47434   8.404  15.635  12.536  0.1198 -0.2425  0.1082
30961W        W47435  12.530  13.778   2.443 -0.1609  0.0195  0.1780
30962W        W47436   8.181  11.566   2.298  0.2519  0.0952  0.2616
30963W        W47437   5.007   6.712  11.523  0.0692 -0.0314  0.0006
30964W        W47438  13.735   0.509   2.295  0.0365  0.1716  0.1633
30965W        W47439   8.092  15.362  12.269 -0.1977  0.0115  0.1072
30966W        W47440   4.515  12.449  10.068  0.3281  0.1295 -0.1847
30967W        W47441   4.922   2.024   2.255  0.0398  0.0726 -0.3964
30968W        W47442  12.640   0.397   0.898 -0.3510 -0.1063 -0.2262
30969W        W47443  11.667  17.865   0.054  0.0242 -0.2068  0.1006
30970W        W47444   8.300   5.567   1.368  0.1826 -0.1463  0.1696
30971W        W47445   6.007   2.364   3.534  0.0631 -0.1223 -0.0740
30972W        W47446  10.226   4.662   0.807  0.2049 -0.0073 -0.2571
30973W        W47447   8.310  16.296   2.302  0.0830  0.0088  0.1145
30974W        W47448  12.023  15.607   1.250  0.3335  0.3434  0.1248
30975W        W47449   5.945   5.923   2.439  0.0074  0.1787 -0.0235
30976W        W47450   7.478  11.814  15.177  0.2338 -0.0572  0.3271
30977W        W47451   6.406  11.019  11.922 -0.0853 -0.3383 -0.0215
30978W        W47452   3.718  10.029  11.934  0.1137 -0.0502 -0.0897
30979W        W47453  15.043   0.799  15.348 -0.1415 -0.0164  0.1047
30980W        W47454  14.454  17.282   1.285 -0.1273 -0.0553 -0.0382
30981W        W47455   3.109   3.513  12.576 -0.2156  0.3031  0.0360
30982W        W47456   6.123  17.838   4.031  0.0152  0.4245 -0.1010
30983W        W47457  13.974  13.901  12.633  0.1349  0.1433 -0.0802
30984W        W47458   1.350   2.414   4.314  0.0531  0.3396 -0.0334
30985W        W47459  15.827  11.155  12.878  0.2114  0.0221 -0.2030
30986W        W47460  17.400   3.052   4.808  0.1112 -0.0540  0.1318
30987W        W47461  10.098   7.346   3.274 -0.1060  0.0418 -0.5546
30988W        W47462  15.393   5.458   2.618 -0.1123 -0.0130  0.0564
30989W        W47463   3.611   4.284  11.896  0.3201 -0.0199 -0.2143
30990W        W47464   6.089   4.444   3.896 -0.1406  0.0887  0.1405
30991W        W47465  12.105  14.365  11.323 -0.0248  0.3733 -0.0054
30992W        W47466  17.446   9.007  15.555 -0.1753  0.2032  0.1045
30993W        W47467   8.704   6.254  16.137  0.2365  0.2176  0.0295
30994W        W47468  14.977   1.729  16.128  0.0535 -0.0209  0.0504
30995W        W47469  14.293   9.324  15.934 -0.0294 -0.0023  0.1880
30996W        W47470  14.202  11.234  14.931  0.0632  0.2828 -0.0310
30997W        W47471   1.927   2.270   1.118  0.0218  0.4758  0.0762
30998W        W47472  16.381   9.164  16.274 -0.3125  0.3744  0.0395
30999W        W47473  17.471  15.963   1.697 -0.1895  0.0065 -0.0499
31000W        W47474  17.255   2.072  14.557  0.1558 -0.2233  0.2493
31001W        W47475  16.756   9.768   4.810 -0.0470  0.2271 -0.0333
31002W        W47476   6.930  11.840   5.506  0.3624 -0.0767 -0.1027
31003W        W47477  11.535   3.653   3.387 -0.2172 -0.2718 -0.3071
31004W        W47478   9.787  14.592   0.261 -0.3668 -0.0769 -0.3367
31005W        W47479  11.711  11.077   4.791  0.0904  0.0319  0.2424
31006W        W47480   5.895   5.436  15.373  0.2920 -0.0647 -0.1818
31007W        W47481  10.901   7.761   0.972  0.2179  0.0081  0.1807
31008W        W47482  15.993   3.930   0.637  0.1671 -0.1745 -0.1764
31009W        W47483  14.990  15.363  12.489  0.0399  0.1160  0.0112
31010W        W47484   7.476  13.124  13.083  0.1412 -0.0535  0.1959
31011W        W47485  13.267   1.094   2.521 -0.2400 -0.0152 -0.1829
31012W        W47486   4.820   0.626   3.168 -0.0772 -0.1894  0.2642
31013W        W47487   9.684  15.993   2.358  0.0257 -0.2836  0.0563
31014W        W47488   7.441   3.741  13.821 -0.0939  0.3185  0.0065
31015W        W47489   4.374   1.126   4.495 -0.0541  0.0307  0.1695
31016W        W47490  10.521  14.054  16.162  0.1227  0.3561 -0.0845
31017W        W47491  17.955   9.479   1.069  0.1511 -0.3953 -0.0839
31018W        W47492   8.736   3.118  13.001 -0.0013 -0.0646  0.0018
31019W        W47493  12.206  11.736   1.908 -0.2890  0.0081  0.0758
31020W        W47494  14.353   6.670  13.936 -0.1662 -0.1107  0.0322
31021W        W47495  12.777   0.577  11.986  0.0514 -0.3156 -0.2491
31022W        W47496   3.284   0.517   5.654  0.2017 -0.0427 -0.0108
31023W        W47497   8.057   6.223  12.671  0.2063  0.1984  0.1051
31024W        W47498   3.149   9.243  12.082 -0.5213 -0.0711 -0.2931
31025W        W47499   3.795   7.420   0.473  0.1857  0.2966  0.2557
31026W        W47500   6.807   4.324  15.940  0.0810 -0.4752  0.5847
31027W        W47501   5.050   7.465  13.901  0.3699 -0.1165 -0.0553
31028W        W47502   7.910   6.479  14.265  0.2614  0.2207  0.1256
31029W        W47503  15.155   0.749   1.171  0.2554  0.0137  0.2154
31030W        W47504  11.113   9.127   4.704 -0.3518  0.0383 -0.1490
31031W        W47505   8.257   1.523  12.257 -0.0241 -0.0950  0.0048
31032W        W47506   6.975   4.937   1.624 -0.1173 -0.2002 -0.1062
31033W        W47507   6.325   4.160  15.061 -0.3297  0.2591 -0.0139
31034W        W47508  10.068   2.140   0.593 -0.2002  0.0834  0.1011
31035W        W47509   8.796   8.296   5.701 -0.1581 -0.0581 -0.0716
31036W        W47510  15.290  12.831  16.209  0.1523 -0.2801  0.2163
31037W        W47511  11.632   0.891   0.107 -0.0824 -0.2020  0.0953
31038W        W47512   8.249   3.375   4.749  0.1177  0.0969  0.2094
31039W        W47513  17.786   1.620   2.517  0.1098  0.0643 -0.0630
31040W        W47514   1.546   9.089  16.093  0.3286 -0.3375 -0.1411
31041W        W47515  10.949   7.170  12.095 -0.0768 -0.4423 -0.0667
31042W        W47516  13.738  17.403   3.216 -0.0498 -0.0530 -0.0376
31043W        W47517  16.438  14.778   5.756 -0.0807  0.1734 -0.1245
31044W        W47518  17.707  13.537   2.944 -0.1142  0.1711 -0.0376
31045W        W47519   7.012  15.508  15.664 -0.0755 -0.0558  0.0752
31046W        W47520   6.473  12.209   2.117  0.0923  0.0605 -0.0578
31047W        W47521   6.186  10.607  15.534 -0.1490 -0.2543 -0.2316
31048W        W47522   3.387  17.217   0.724  0.2678 -0.0449  0.0340
31049W        W47523   0.226  12.555  10.694  0.3813 -0.0186  0.0442
31050W        W47524  11.962  15.329  14.670 -0.0703  0.0473 -0.2234
31051W        W47525  17.520  14.444  11.794 -0.0013 -0.1630 -0.0307
31052W        W47526   1.401   2.822  11.540  0.2629  0.3365  0.0215
31053W        W47527  15.262   4.336  14.081  0.0228 -0.0386  0.3567
31054W        W47528   2.313  13.531   1.736 -0.2621  0.2283 -0.1290
31055W        W47529  17.777   2.994  11.948  0.0958  0.5086  0.1206
31056W        W47530   0.869   3.501   4.650 -0.0002 -0.0557  0.2521
31057W        W47531  14.664   1.577   3.062  0.0950 -0.1408 -0.1943
31058W        W47532   7.975   2.479  15.783 -0.0536 -0.0144  0.1968
31059W        W47533   2.963  12.267  12.945  0.0657  0.2058  0.2751
31060W        W47534   5.149   2.715   2.205 -0.0289 -0.1185 -0.0887
31061W        W47535   8.791  11.364  15.465 -0.1325 -0.0269 -0.3649
31062W        W47536   1.977   2.829   5.024 -0.1859 -0.1147  0.0353
31063W        W47537  16.900  13.262   0.863 -0.3894 -0.0666 -0.2014
31064W        W47538   7.672  12.469   3.385  0.1278 -0.2256 -0.1402
31065W        W47539   3.868   3.727  15.909  0.3904 -0.3292 -0.1712
31066W        W47540   4.020  16.534   2.647  0.0045  0.0305 -0.0784
31067W        W47541   9.960   9.209  15.877 -0.0187 -0.2329  0.2860
31068W        W47542   0.654   5.221   3.010 -0.0731 -0.0283  0.3935
31069W        W47543  12.532  14.050   2.003 -0.0120 -0.1109 -0.1452
31070W        W47544   2.987  11.693  15.375  0.0215 -0.3462 -0.2509
31071W        W47545  17.407  17.139  13.206  0.1517 -0.1852  0.0405
31072W        W47546  10.457  12.306   4.244 -0.1644  0.3347  0.1360
31073W        W47547   8.038  16.715   5.672 -0.0193  0.0262 -0.1406
31074W        W47548  13.169  12.145  14.394  0.0650 -0.1335  0.0058
31075W        W47549  14.989   0.252   0.274  0.3225  0.1509  0.1533
31076W        W47550  14.583  16.525  13.939  0.1568  0.0136 -0.0128
31077W        W47551   3.657  15.147   3.310 -0.2922 -0.1009 -0.1843
31078W        W47552  14.708   1.220   5.579 -0.0711 -0.1221  0.0129
31079W        W47553   8.195   2.256  11.706  0.0019  0.0966 -0.1248
31080W        W47554   3.664  11.821   0.097  0.1870  0.0646 -0.1687
31081W        W47555   1.518   4.759   2.269 -0.1787  0.0225 -0.1825
31082W        W47556   5.908   5.450   0.478 -0.4272  0.2996  0.0980
31083W        W47557   5.591   1.737   4.232  0.4903 -0.0148  0.0776
31084W        W47558  10.227   4.636  13.122 -0.0519  0.1104  0.2888
31085W        W47559   0.381   2.207   0.946  0.0153 -0.0247 -0.1011
31086W        W47560   2.299  10.460  13.564  0.3089 -0.1940  0.1584
31087W        W47561  15.880   1.357  11.202 -0.0342 -0.0395  0.0293
31088W        W47562   0.429   0.819   0.217 -0.4048  0.1293  0.1690
31089W        W47563  11.000   8.286  14.065  0.1798  0.0962  0.1741
31090W        W47564  11.630   7.104   3.599 -0.1991  0.1439  0.4404
31091W        W47565   9.552   6.518  15.806 -0.0089  0.1671  0.0175
31092W        W47566  14.871  10.023  15.533  0.0487  0.1453  0.1696
31093W        W47567  17.822   4.107  12.797 -0.2424  0.1065  0.0413
31094W        W47568   8.569   8.542   3.546  0.0900  0.2501 -0.3352
31095W        W47569  15.178  10.967   4.961  0.0342  0.0422 -0.0180
31096W        W47570  17.615   7.350   3.899  0.1913 -0.0279 -0.1065
31097W        W47571  14.817  10.351   0.780  0.1775  0.1593  0.1240
31098W        W47572   4.887   6.853   5.240  0.0234 -0.0578  0.3795
31099W        W47573   9.973  10.264   1.669 -0.0752 -0.2148  0.2661
31100W        W47574  11.932   8.171   0.438  0.1322  0.0433  0.0334
31101W        W47575   9.074  10.870   0.051  0.1463  0.1490 -0.0711
31102W        W47576   8.038   1.956  15.874  0.3797  0.3225 -0.2542
31103W        W47577  11.487  10.361   2.039  0.0476  0.0893  0.2847
31104W        W47578  12.270   1.161  15.619  0.4501  0.0424 -0.0209
31105W        W47579  16.107   7.950   0.764  0.1249 -0.1890  0.0856
31106W        W47580   7.660   5.605   3.565 -0.3169  0.0212  0.1547
31107W        W47581   2.338   2.747   2.967  0.0841 -0.3296 -0.1285
31108W        W47582   7.809   5.471   1.502  0.0174 -0.1764  0.2745
31109W        W47583   5.068   1.191   1.388 -0.1247  0.2677  0.0352
31110W        W47584   7.241   2.088  13.570  0.1949  0.0583  0.0529
31111W        W47585   6.354  11.440  11.472 -0.2195  0.0951 -0.1950
31112W        W47586  12.655  15.549  14.274  0.3867  0.1192 -0.2395
31113W        W47587   3.800  15.689   5.586  0.0931  0.2926 -0.1542
31114W        W47588  17.707  12.849  11.504 -0.0574 -0.1804 -0.1607
31115W        W47589   7.342   7.876   3.505 -0.1742 -0.0659 -0.0134
31116W        W47590   9.793  13.181  13.129 -0.0847 -0.0697  0.2215
31117W        W47591   8.513  13.825   0.327  0.1731 -0.1289  0.1719
31118W        W47592  10.277   1.038   3.673  0.1828 -0.1427  0.0103
31119W        W47593  15.313   9.714  16.061  0.0552 -0.1415 -0.0571
31120W        W47594   7.813   1.873  16.363  0.0569 -0.2647 -0.1357
31121W        W47595   7.536  10.364  12.667  0.0317  0.1063 -0.2403
31122W        W47596  14.410   4.489  14.364 -0.3272 -0.1696  0.0244
31123W        W47597   1.501  10.236   2.986 -0.2274  0.0995  0.0798
31124W        W47598  12.008  16.189   3.739 -0.2375  0.1195 -0.1721
31125W        W47599  10.968  11.061   3.396 -0.1161  0.1666 -0.2218
31126W        W47600   8.553   5.716  11.630  0.2183 -0.1408 -0.0474
31127W        W47601   5.411   6.551  15.475  0.0537 -0.2007 -0.1133
31128W        W47602  11.357   0.052  14.083 -0.0013 -0.1217 -0.1078
31129W        W47603  12.826   5.111  14.805  0.0086 -0.2116 -0.2323
31130W        W47604  14.342  10.796   0.809  0.1687  0.1473 -0.0964
31131W        W47605  11.882  12.703  13.573  0.2023  0.0608  0.0451
31132W        W47606   8.584  10.410  14.523 -0.0670 -0.0773 -0.3787
31133W        W47607   8.630   9.881   0.591 -0.0519 -0.2279  0.1256
31134W        W47608   8.059  17.887   2.427 -0.0646  0.1820 -0.0045
31135W        W47609  16.372  17.003   5.780  0.1291  0.1095  0.1503
31136W        W47610  12.039  14.039   0.966 -0.0042  0.1541 -0.0635
31137W        W47611   7.847   6.865  13.343  0.1614  0.0137 -0.0374
31138W        W47612   7.805  15.897   5.265  0.1694 -0.0565 -0.2161
31139W        W47613   1.454  11.885   3.743  0.0004  0.2379 -0.0746
31140W        W47614  12.753  12.053  10.667 -0.0046  0.2827 -0.1419
31141W        W47615   0.397   0.086  15.577  0.2248  0.0606  0.1548
31142W        W47616  13.922  16.012   0.156 -0.1577  0.0905 -0.0165
31143W        W47617   6.273  16.064   3.456 -0.0691 -0.0680  0.3494
31144W        W47618  14.710  15.617   4.059 -0.0152  0.1628 -0.1947
31145W        W47619   0.269   7.020  14.841 -0.0810  0.1442  0.0087
31146W        W47620   6.402  15.254  11.883  0.1238  0.1391  0.1357
31147W        W47621   2.308  11.750  11.667 -0.0813  0.3020 -0.0131
31148W        W47622   9.737  15.629  12.737  0.0948 -0.2495  0.3185
31149W        W47623   5.661   1.936  15.461 -0.0120 -0.0323  0.1137
31150W        W47624  15.460   4.730   3.582 -0.1743  0.1878 -0.0528
31151W        W47625   9.441   5.472  14.767  0.1309  0.1558 -0.0163
31152W        W47626   1.670   0.022  13.252  0.2228 -0.2119 -0.1251
31153W        W47627  14.699   0.927   2.373  0.1423 -0.0667 -0.0935
31154W        W47628  12.595   5.739   4.241  0.0532  0.1057 -0.2931
31155W        W47629   5.948   2.999  16.216  0.0015  0.2386  0.1949
31156W        W47630   3.428  12.989   5.775 -0.1519  0.1864  0.2354
31157W        W47631   2.468  17.405   1.281  0.2016 -0.3743 -0.0163
31158W        W47632   6.259  10.709  14.515  0.2022  0.2924 -0.1213
31159W        W47633   9.857   4.780  14.618 -0.1344 -0.0479 -0.1365
31160W        W47634  14.179   6.812  13.425  0.0031 -0.0921  0.1302
31161W        W47635  12.497   8.047  12.482  0.1208  0.1968 -0.0416
31162W        W47636  12.828  13.880   4.713  0.1266  0.2579  0.0985
31163W        W47637  16.578  11.530  15.432  0.2898 -0.0626  0.1391
31164W        W47638   7.200  11.453  12.087  0.3042  0.1026  0.3301
31165W        W47639  10.934   0.893   5.299 -0.0643  0.1360 -0.1076
31166W        W47640  16.762  12.723  13.404 -0.3123  0.1076 -0.4580
31167W        W47641   8.179   1.806  12.952  0.0296 -0.1421 -0.0863
31168W        W47642   7.224   6.362  16.338  0.1498  0.0044  0.0054
31169W        W47643   1.485   1.718   0.038  0.2681 -0.1603 -0.2275
31170W        W47644   5.981   7.082   3.033  0.3098  0.2474  0.1134
31171W        W47645   6.794  15.004  13.935  0.0128 -0.0337 -0.1133
31172W        W47646   1.132   3.280   0.834 -0.0298  0.0143 -0.1675
31173W        W47647   8.567   9.302  10.726  0.1591 -0.3653 -0.2178
31174W        W47648  16.827   9.875  14.533 -0.0253 -0.1860  0.2276
31175W        W47649   3.782   5.139   5.610  0.0457  0.1152 -0.1892
31176W        W47650   8.865   2.612  12.933 -0.2641  0.0387  0.0408
31177W        W47651  17.563  17.093  14.110  0.0821 -0.1800 -0.0418
31178W        W47652  15.653  16.586  15.442 -0.1047 -0.1217  0.0766
31179W        W47653  18.034   1.729  14.178  0.1519 -0.2409  0.1387
31180W        W47654  16.417  17.743  15.107 -0.1745  0.3055 -0.0721
31181W        W47655   4.547   3.835   2.524  0.0357  0.0161  0.1697
31182W        W47656  14.399   9.511   2.961  0.2537 -0.1785  0.0492
31183W        W47657   9.903  14.545   0.802  0.0058 -0.0232  0.0403
31184W        W47658  13.797  13.397   3.916 -0.1603  0.1614 -0.1442
31185W        W47659  11.361  17.771  13.776  0.1060 -0.3024 -0.1823
31186W        W47660  16.892   7.374   3.476  0.2001  0.0606  0.4613
31187W        W47661   5.152  14.463   0.729  0.1152 -0.2477  0.0995
31188W        W47662  14.048   1.719  10.805  0.1044  0.1404 -0.0307
31189W        W47663   2.401   5.011  15.536 -0.0312 -0.0542  0.1415
31190W        W47664  13.576   6.542  14.231 -0.1688 -0.1076 -0.1753
31191W        W47665   0.089   0.916   2.118 -0.0060 -0.0187  0.2055
31192W        W47666  13.115   7.126   3.293  0.1543 -0.2266 -0.0410
31193W        W47667  12.352   7.035   4.780  0.0950  0.1976 -0.2367
31194W        W47668  12.896  13.520  15.550 -0.0591  0.4177  0.2354
31195W        W47669  14.897   1.706  11.165 -0.2582  0.1101  0.2107
31196W        W47670  14.786   9.621   0.288 -0.0585 -0.0003  0.1279
31197W        W47671  11.036  13.678  14.116 -0.2525  0.0852  0.2062
31198W        W47672  10.756  10.544   0.323 -0.1493 -0.0424  0.3790
31199W        W47673   7.550   5.452  10.651  0.3350 -0.1864  0.1748
31200W        W47674   0.788   6.449  15.530  0.0466 -0.0748  0.1843
31201W        W47675   0.708   9.926  14.863 -0.0253 -0.2129 -0.1578
31202W        W47676  12.869   4.060   5.382 -0.2993 -0.1360 -0.0866
31203W        W47677   1.961   8.994   5.151 -0.0880  0.1725  0.0255
31204W        W47678  16.995  12.806  11.522 -0.1394 -0.0468  0.0698
31205W        W47679  11.434  13.145   5.530  0.3213 -0.3234  0.1588
31206W        W47680   6.215   1.523  14.111 -0.3351 -0.1328 -0.0550
31207W        W47681   5.697   1.700  11.732 -0.0437  0.0750  0.0271
31208W        W47682   8.837  17.953  15.319  0.1277 -0.1178 -0.4046
31209W        W47683   3.795  11.781  11.604 -0.0039 -0.1021  0.1247
31210W        W47684  16.408  12.355  15.316  0.1625 -0.2926 -0.2748
31211W        W47685   5.849   1.101   1.069 -0.2251 -0.2074  0.0809
31212W        W47686  13.830  16.976  13.030 -0.0512  0.3387 -0.0386
31213W        W47687   2.279  17.120  13.470  0.4219  0.1026  0.2361
31214W        W47688  11.400   9.773  11.350 -0.2884 -0.1333  0.2035
31215W        W47689   2.917   7.254   3.261 -0.1027  0.1725 -0.2583
31216W        W47690   0.875  10.796   1.998  0.0130  0.2079 -0.0613
31217W        W47691  13.019  15.155  11.026 -0.0855 -0.0074 -0.3100
31218W        W47692   0.318   2.623  15.585  0.2137 -0.3441 -0.4349
31219W        W47693   1.952  16.540  14.085  0.0522 -0.4592 -0.1437
31220W        W47694  12.924   3.689   2.638  0.1849  0.0197  0.0680
31221W        W47695   1.130   2.005  12.963  0.1096  0.1905 -0.0368
31222W        W47696  14.781   6.127  14.355  0.2137  0.1237  0.2598
31223W        W47697   1.718   5.704  15.152  0.3104 -0.0695 -0.0366
31224W        W47698   3.028   2.642  13.504  0.0223  0.0332  0.2497
31225W        W47699  14.911   6.190  12.527 -0.3130 -0.0965  0.2938
31226W        W47700   3.367  17.903   3.967  0.1458 -0.2610 -0.0460
31227W        W47701  11.268  11.923  13.208  0.0735  0.0966  0.2877
31228W        W47702  16.861   5.745   3.250  0.1071  0.2382  0.1195
31229W        W47703   6.731   5.510  14.393  0.0753 -0.1647  0.0955
31230W        W47704   4.221   9.002  11.273 -0.1892 -0.1478  0.0876
31231W        W47705   0.357   6.215   1.523 -0.1405 -0.1306 -0.0010
31232W        W47706   6.473  10.168   2.183 -0.0789  0.1380  0.1094
31233W        W47707  11.039   1.016   2.978  0.0760 -0.0755  0.1055
31234W        W47708   4.715  12.596  15.398 -0.1141  0.1817 -0.0673
31235W        W47709   2.675   6.715   5.207 -0.1062  0.0257  0.0235
31236W        W47710   9.769  17.297   3.572 -0.1284  0.1344 -0.2343
31237W        W47711  15.575   0.686   0.365  0.6280 -0.1810  0.0118
31238W        W47712   7.359  11.855   2.188  0.1856 -0.2798 -0.0548
31239W        W47713   2.747   5.766  13.217  0.0978  0.1262  0.0138
31240W        W47714   0.245   0.265   0.334  0.1911 -0.2380  0.2201
31241W        W47715   3.518  11.078   1.501 -0.0127 -0.0151 -0.0767
31242W        W47716  15.855   7.425  14.445  0.1699 -0.2000 -0.1863
31243W        W47717  17.134   6.693   2.889 -0.0290  0.1110 -0.3546
31244W        W47718   6.941  14.042  12.204  0.1635  0.2857  0.1573
31245W        W47719  10.234   0.267   3.186 -0.1468 -0.3629  0.0481
31246W        W47720   7.444   1.430  14.315 -0.2500  0.3574 -0.1732
31247W        W47721   1.608   4.222   3.972 -0.0343 -0.0102  0.1289
31248W        W47722   7.901   3.774  14.568  0.1444 -0.1084 -0.1062
31249W        W47723  13.113   7.757  14.039  0.0322  0.2336  0.0651
31250W        W47724  14.314  15.661   5.996 -0.1486 -0.3201  0.1948
31251W        W47725  16.201   8.065   2.412  0.4257 -0.2481  0.1529
31252W        W47726  11.144  11.767  14.911 -0.2096  0.0936 -0.0245
31253W        W47727  16.553  11.313  11.575  0.0730 -0.3283  0.1288
31254W        W47728  11.548   9.002  16.111 -0.1461 -0.2247  0.0677
31255W        W47729   9.436  14.758   0.935  0.1812 -0.3266  0.2732
31256W        W47730   3.553  15.005  13.538  0.2874  0.0602 -0.3395
31257W        W47731  17.837  17.024   4.175  0.2847 -0.0058 -0.1088
31258W        W47732  18.022  17.061   2.042 -0.1547 -0.1734  0.0602
31259W        W47733   6.348   4.187  14.538 -0.1768 -0.0100 -0.2365
31260W        W47734  16.066  14.446  11.919 -0.2638  0.1663 -0.1951
31261W        W47735   6.364   5.210   5.001 -0.1714 -0.0784 -0.4302
31262W        W47736  15.728   2.847  10.160  0.2243  0.0566  0.1872
31263W        W47737   1.458  12.320   4.815 -0.1750  0.0885 -0.2316
31264W        W47738   0.111   9.184  12.018  0.0480 -0.1056  0.2138
31265W        W47739   2.770   1.232   3.818 -0.0092  0.0598  0.2443
31266W        W47740   4.437  14.267  12.747 -0.1416 -0.3490 -0.1468
31267W        W47741  13.723  15.155  16.253 -0.1074  0.2744  0.1504
31268W        W47742   0.793  12.696   3.469 -0.3036 -0.0781  0.1255
31269W        W47743   0.749  15.093   4.981 -0.3744  0.0463  0.1503
31270W        W47744  12.537   5.523   3.496 -0.0494 -0.1582 -0.0719
31271W        W47745   4.386   6.817   0.586  0.1023  0.1181 -0.0592
31272W        W47746   9.317   5.527   0.410 -0.1032 -0.1637 -0.1004
31273W        W47747  16.495   0.028   5.244  0.1323  0.2329 -0.0347
31274W        W47748  12.938   8.563   2.644  0.0566 -0.1931  0.0157
31275W        W47749   0.502  18.058  12.195  0.0862 -0.4388 -0.3361
31276W        W47750   7.608   2.921  12.651 -0.0082 -0.3371  0.1094
31277W        W47751   6.082  14.951   2.845 -0.1667 -0.0834  0.0190
31278W        W47752   6.477  14.800  12.081  0.0079  0.1394  0.1720
31279W        W47753  10.340   3.180   3.280 -0.0856  0.1197 -0.0485
31280W        W47754   4.266   7.812   1.972  0.1821 -0.2412  0.1415
31281W        W47755   0.869   8.318  15.899 -0.2424  0.3781 -0.0274
31282W        W47756  13.744   9.708   5.293  0.0919  0.0561  0.0494
31283W        W47757  12.220   1.337   4.466 -0.1427 -0.0759  0.3220
31284W        W47758  17.652  15.034   0.941 -0.0411  0.0758  0.0919
31285W        W47759   4.118   8.829   3.152  0.4519  0.3459 -0.0540
31286W        W47760   2.711   1.967   0.814  0.0340  0.2739 -0.3085
31287W        W47761  15.768   5.983  12.921  0.1725 -0.0091  0.0167
31288W        W47762  13.279   3.930  13.729 -0.2268  0.0478 -0.0836
31289W        W47763  11.204  14.208  15.086  0.2048  0.0033 -0.3679
31290W        W47764  15.800   6.170  11.590 -0.0101  0.0682 -0.2582
31291W        W47765  16.581  14.528  12.059 -0.4540  0.2150 -0.5694
31292W        W47766   8.235  13.110  11.384  0.1992  0.0498 -0.1401
31293W        W47767   9.975   0.044  11.262  0.1641  0.0346 -0.1980
31294W        W47768   0.348   1.563   4.753 -0.2408  0.0884 -0.0968
31295W        W47769  16.435   7.188   4.735 -0.3890 -0.3348 -0.0154
31296W        W47770   5.746   0.407   5.745  0.1830 -0.3228  0.0194
31297W        W47771  11.434  17.558   3.318  0.0073  0.3063  0.0506
31298W        W47772  17.282   1.736  11.789 -0.0958  0.1471 -0.3040
31299W        W47773   6.014  12.668  12.125  0.2700 -0.0236 -0.0820
31300W        W47774   8.785   4.817  12.814  0.1021  0.1192  0.0395
31301W        W47775   3.915  17.978   5.960 -0.1060 -0.1697  0.1228
31302W        W47776  14.837  15.871   0.343  0.1735  0.1130  0.1847
31303W        W47777   1.648  17.863  16.207 -0.1660  0.0465 -0.1300
31304W        W47778  10.979   0.649  13.039  0.1497  0.1703  0.2069
31305W        W47779   4.670  13.808   3.753  0.1602  0.0095 -0.2712
31306W        W47780  14.777   5.937   5.270 -0.2030  0.0704  0.0963
31307W        W47781   2.570   6.059  14.070  0.0343 -0.1174 -0.0881
31308W        W47782   0.835  15.572  15.003 -0.1859  0.0073 -0.1955
31309W        W47783  13.431   9.387   0.797 -0.0745 -0.1001  0.1171
31310W        W47784  10.331  15.332   5.521  0.1909 -0.3873  0.1947
31311W        W47785   0.296  11.644   0.413  0.1038  0.0692 -0.1071
31312W        W47786   5.232  13.207  12.184  0.2494 -0.3102  0.0056
31313W        W47787  12.686   5.134   4.330  0.1558 -0.0231  0.2856
31314W        W47788   4.409   5.508   4.774 -0.0986  0.4771 -0.2680
31315W        W47789   3.345  17.064   4.748 -0.0865  0.1267 -0.1597
31316W        W47790   5.911   4.635   4.667 -0.0519 -0.3757 -0.1576
31317W        W47791   2.615   3.140  14.616  0.1783 -0.0511  0.2172
31318W        W47792  10.763  13.169  12.252  0.0324  0.3116 -0.0382
31319W        W47793   1.984  13.235   3.233 -0.1371  0.0786 -0.2900
31320W        W47794  14.721   8.674   2.642 -0.0038  0.0572  0.1453
31321W        W47795  15.815   5.095   3.834  0.2552 -0.0171 -0.1284
31322W        W47796  12.434   8.584  12.658  0.2749  0.1947  0.2050
31323W        W47797   3.110  17.446   2.584 -0.0864 -0.0542  0.0229
31324W        W47798   9.045  14.984  11.880  0.0101  0.0731  0.4804
31325W        W47799   0.713   4.206  12.347  0.1077 -0.1823  0.1898
31326W        W47800  10.959   0.363  12.614 -0.1319 -0.0614  0.0348
31327W        W47801   0.512  17.647   6.145  0.0733  0.0116  0.1239
31328W        W47802  12.484   9.537   4.235  0.1884 -0.0931 -0.2537
31329W        W47803   2.532  10.912  15.822  0.3629  0.0532 -0.1750
31330W        W47804   9.126  16.687   1.204  0.0446  0.0225  0.1853
31331W        W47805   9.154   0.452   1.850 -0.2128 -0.0615 -0.2939
31332W        W47806  11.472  17.096   3.087  0.3289  0.0307 -0.0784
31333W        W47807   4.989  15.817   4.048  0.0288 -0.0815 -0.1193
31334W        W47808  17.123   7.965   0.877 -0.0278 -0.0584 -0.1167
31335W        W47809   6.119   3.381  16.001 -0.1379 -0.0344 -0.0130
31336W        W47810   7.813  16.913   2.424  0.0314 -0.3037 -0.2269
31337W        W47811   8.366   8.101  14.719 -0.0756 -0.0385 -0.1561
31338W        W47812   7.276   9.131   1.982 -0.2637  0.1302  0.0595
31339W        W47813   1.447  16.701   5.003 -0.0036  0.1498  0.0812
31340W        W47814   0.216   8.010   3.066  0.1973 -0.1414  0.0623
31341W        W47815   3.789  13.509   2.847  0.2751 -0.0455  0.3022
31342W        W47816   1.611   0.119  14.846  0.1625  0.0161  0.0970
31343W        W47817   6.337  16.090  13.006 -0.0312 -0.3470 -0.0589
31344W        W47818   0.961  17.116  15.660 -0.2305  0.2368 -0.1338
31345W        W47819   0.949   9.795  12.162  0.0981  0.0388  0.1714
31346W        W47820  12.874   7.651   2.104  0.2576  0.1791  0.1492
31347W        W47821   9.039  12.258  14.601 -0.0125  0.1879 -0.1088
31348W        W47822   4.885  17.589  15.356 -0.2905 -0.0653  0.1317
31349W        W47823  11.610  10.562   0.668 -0.1992 -0.1415 -0.1207
31350W        W47824  12.611   7.582  11.681 -0.0951 -0.1280  0.0231
31351W        W47825  11.229  17.201  14.156  0.1760  0.3132  0.2089
31352W        W47826  15.043   4.811  12.055  0.0350  0.0141 -0.1720
31353W        W47827   5.763  14.261  13.610  0.1180 -0.0234 -0.0452
31354W        W47828   7.768  12.570   1.501  0.0171 -0.1911 -0.2565
31355W        W47829  15.313  16.366   4.828  0.6123 -0.1902  0.0585
31356W        W47830   5.814  16.849  12.267 -0.0181  0.1441 -0.2274
31357W        W47831  11.643  16.133  10.819  0.1121  0.3147  0.0487
31358W        W47832   0.225   9.750   1.286  0.1580  0.2294 -0.0083
31359W        W47833  12.510   0.534   2.874  0.1843  0.1718  0.2832
31360W        W47834   4.935   5.226   4.688 -0.2390  0.5426 -0.0147
31361W        W47835  11.513   5.166  14.928  0.0500  0.2439  0.1774
31362W        W47836   7.238   3.212  14.276 -0.2485 -0.0757 -0.0216
31363W        W47837  17.127  11.235  12.483  0.2076  0.1444 -0.2196
31364W        W47838   1.591  16.144   6.085 -0.1909 -0.1679  0.1373
31365W        W47839   0.254   8.341   2.680 -0.1327  0.0767  0.0284
31366W        W47840  13.408  16.827  13.343 -0.1210 -0.1474 -0.1579
31367W        W47841   8.507  14.189   0.712  0.1586 -0.1861 -0.0577
31368W        W47842   8.144  10.546  13.259  0.0242 -0.0484  0.0745
31369W        W47843  11.067   8.855  16.181  0.1069  0.2853  0.1115
31370W        W47844   4.530  13.865   4.507 -0.1745 -0.0735 -0.0320
31371W        W47845  12.488  12.495   3.695  0.0076 -0.1085  0.0368
31372W        W47846  14.069   7.682   5.526  0.0540  0.1886 -0.3527
31373W        W47847   0.416  15.954   4.425 -0.0681  0.0556  0.1075
31374W        W47848   3.341   0.637   4.919 -0.1136 -0.3164 -0.0149
31375W        W47849  15.266  13.826  12.968 -0.0978  0.3606  0.3607
31376W        W47850  17.000   0.590   1.583  0.1482  0.0163 -0.0527
31377W        W47851   2.849  12.941  10.541  0.0627  0.1055  0.2649
31378W        W47852  12.428   0.243  14.730 -0.1726 -0.0428 -0.4480
31379W        W47853  11.974  13.376  14.390  0.1226  0.0031  0.2361
31380W        W47854  16.199  11.920  12.951  0.1673  0.0693  0.1324
31381W        W47855   8.653   4.758   3.651 -0.1440 -0.0889 -0.0159
31382W        W47856   7.151  10.728   4.081  0.0790 -0.2297  0.1465
31383W        W47857  14.496   9.649   1.484 -0.0528  0.0242 -0.1218
31384W        W47858   7.291  10.482   3.488  0.4133 -0.0426  0.2571
31385W        W47859   7.893  12.583  15.183  0.1206  0.1498  0.0252
31386W        W47860   2.168  10.234   1.757  0.1048 -0.0565 -0.0400
31387W        W47861   6.077  15.643   5.260 -0.2750 -0.2260  0.1432
31388W        W47862  11.854  16.295  13.611  0.2417  0.0116 -0.0733
31389W        W47863   3.499   1.448   3.207 -0.1736  0.1467 -0.1652
31390W        W47864   0.595  12.573   4.744  0.0581 -0.2743  0.0341
31391W        W47865   7.267  17.252   5.357 -0.0729 -0.0704  0.0340
31392W        W47866  12.217   8.664   3.800 -0.3153 -0.4456  0.0234
31393W        W47867  11.466  12.262   2.929  0.1277 -0.0643  0.2318
31394W        W47868   0.028  11.497   4.561 -0.0513  0.1916 -0.1035
31395W        W47869   5.506   6.079  16.356 -0.1112  0.0942 -0.4762
31396W        W47870  17.668  10.871  13.022  0.1485 -0.0876 -0.0490
31397W        W47871   0.616  14.705  11.978 -0.1369 -0.1944 -0.1747
31398W        W47872   3.797  17.143   1.418  0.1581  0.0994  0.1020
31399W        W47873   8.719   2.665   2.400  0.0132  0.2683  0.0436
31400W        W47874   0.568   5.565  15.822  0.0291  0.2437  0.3295
31401W        W47875  15.012  17.727  11.995 -0.0760 -0.1080 -0.0761
31402W        W47876   4.599   0.747  14.288 -0.1761  0.0322  0.1624
31403W        W47877   9.907   9.292  14.515  0.1658  0.0078 -0.2816
31404W        W47878   7.327   0.717   1.772  0.1736 -0.0170  0.1710
31405W        W47879   4.176  13.084   4.368  0.0165  0.0791 -0.3637
31406W        W47880   5.386   7.254  15.426  0.2473 -0.3094 -0.3112
31407W        W47881  15.585   3.150   2.653 -0.0986 -0.1309 -0.0351
31408W        W47882   1.369  14.489   4.150 -0.2182  0.1281 -0.2260
31409W        W47883  11.262   6.531  16.112 -0.1278 -0.1977 -0.3306
31410W        W47884   6.431  16.533  14.429 -0.1993 -0.1742 -0.3650
31411W        W47885   4.836  11.461   2.737 -0.1180  0.0887  0.1706
31412W        W47886   2.549   4.156   3.944 -0.1503 -0.0700  0.0164
31413W        W47887   2.226   6.636  11.933 -0.3143  0.4052  0.0500
31414W        W47888   7.347   8.449  11.938 -0.2379  0.1121  0.3583
31415W        W47889   3.316   7.330   4.896  0.0517  0.0756 -0.2075
31416W        W47890   0.941  11.910  13.277 -0.0916 -0.1775  0.0678
31417W        W47891  12.541  17.367  12.125 -0.0752  0.2550  0.2622
31418W        W47892  16.324  17.211  12.231  0.2212 -0.3636  0.3960
31419W        W47893   0.107  15.961   3.421  0.0616 -0.0981 -0.0972
31420W        W47894   2.006   1.461   5.166  0.2058 -0.0685  0.4623
31421W        W47895  17.926   7.474  13.514 -0.0045  0.2360  0.0045
31422W        W47896   3.176  15.639   3.029 -0.1552 -0.1001  0.1275
31423W        W47897  16.886  11.134   1.143 -0.0220  0.1136  0.2613
31424W        W47898  14.987  13.348   4.397 -0.0870 -0.1091 -0.4265
31425W        W47899   1.461  17.143   4.169  0.1207 -0.0633 -0.0877
31426W        W47900   2.981   4.397   3.130 -0.2006 -0.2754 -0.2880
31427W        W47901   8.673  10.868   2.529  0.0904  0.0053  0.0104
31428W        W47902   3.591   5.869   0.614 -0.1137  0.3302  0.2037
31429W        W47903   4.722   7.093   3.806 -0.3047 -0.0070  0.2112
31430W        W47904  10.538   0.438  13.006  0.0716  0.0662 -0.2483
31431W        W47905  13.931   4.883  12.938  0.0064  0.2586  0.1007
31432W        W47906  16.777   9.090   3.914  0.1830 -0.3042 -0.2741
31433W        W47907  13.424   1.866   5.520 -0.1564 -0.2924 -0.1442
31434W        W47908   9.390  15.722   1.300  0.1410  0.0729 -0.0395
31435W        W47909  13.411  18.124   5.607 -0.0832 -0.0654  0.1022
31436W        W47910  12.933   2.827  15.910  0.1715 -0.1602  0.3655
31437W        W47911  14.570   0.999   3.858 -0.0951 -0.1557  0.0430
31438W        W47912   5.527  14.042  12.638  0.0560 -0.1469 -0.1484
31439W        W47913  11.537   4.275   0.747 -0.0959 -0.0056 -0.1583
31440W        W47914   2.377  11.611  12.171  0.1198 -0.1765 -0.0326
31441W        W47915   2.399  12.828   4.050  0.0200  0.1871 -0.2951
31442W        W47916   0.101  17.407   0.755 -0.1474 -0.2155 -0.3022
31443W        W47917  14.347   0.560   2.318 -0.1616  0.1774 -0.2030
31444W        W47918   5.458  13.529   4.466 -0.2401 -0.0139 -0.0504
31445W        W47919  12.044  11.613  15.455 -0.1597  0.0437  0.0165
31446W        W47920   2.059   1.441  14.181 -0.2279  0.1173  0.2896
31447W        W47921  16.209   7.927  13.555  0.3560 -0.0403 -0.0474
31448W        W47922  12.901   7.303   1.530 -0.0016  0.1717 -0.1132
31449W        W47923   9.602  13.813   2.292 -0.1062  0.2620 -0.0796
31450W        W47924   5.427  10.439  15.083 -0.0688  0.2343  0.0320
31451W        W47925   8.855  15.361   2.964  0.1396  0.3036 -0.1990
31452W        W47926  17.749  17.038   2.470 -0.0370  0.1374  0.2812
31453W        W47927   7.518   3.700   4.468  0.0248 -0.0436  0.2324
31454W        W47928  12.917   2.081   4.963 -0.1310  0.0464 -0.1743
31455W        W47929   3.859  13.333  12.740 -0.3419  0.0709  0.0392
31456W        W47930   9.810  15.909   1.002 -0.0431  0.0725 -0.0716
31457W        W47931   8.334   6.230  13.495  0.1957  0.0134  0.0028
31458W        W47932   7.466  14.015   1.263  0.0267 -0.0778  0.1752
31459W        W47933  11.045   4.936  14.029 -0.0283 -0.4185 -0.0553
31460W        W47934  10.958  16.484  11.520  0.0809  0.1803  0.2603
31461W        W47935   3.260   5.593  11.660 -0.0932  0.1972  0.1215
31462W        W47936   4.725  14.744   0.736  0.1750 -0.0257  0.0504
31463W        W47937   3.991  10.123  12.492 -0.0048 -0.2078  0.1008
31464W        W47938   6.656   1.793   1.067  0.1199  0.2443 -0.0300
31465W        W47939  13.194   8.460   3.563 -0.0466  0.1057  0.0964
31466W        W47940   8.873  12.198   3.697  0.0071 -0.0164 -0.1411
31467W        W47941  15.567   8.463   4.767 -0.2450 -0.1547 -0.1851
31468W        W47942  13.420   4.236  12.490  0.0936  0.1870  0.1799
31469W        W47943   5.583   4.338   3.799  0.1111  0.2368  0.0842
31470W        W47944   0.546   2.790  15.154  0.4586  0.1202  0.2116
31471W        W47945   9.203  12.539  14.107  0.1574  0.0906  0.0343
31472W        W47946  13.903  14.818   3.054 -0.1988  0.0388  0.1716
31473W        W47947   8.529   3.242  11.418  0.1674 -0.0451  0.0529
31474W        W47948   1.538  10.233  15.525 -0.2460 -0.0956  0.1366
31475W        W47949   3.385   3.738   5.783  0.3258  0.1171  0.0249
31476W        W47950   3.671   1.039   1.137  0.2426 -0.2712 -0.0302
31477W        W47951   9.816  13.492  14.891 -0.0215  0.1259 -0.1542
31478W        W47952   8.649   5.675  14.804  0.1699 -0.3364  0.2315
31479W        W47953   6.437   8.425  13.328  0.1400 -0.1627 -0.1621
31480W        W47954  13.143  11.536  12.739  0.2842 -0.3458 -0.0297
31481W        W47955  11.470  12.279   3.490  0.0228  0.0210  0.0237
31482W        W47956   3.386   6.615   0.972  0.3123  0.0934 -0.2181
31483W        W47957   4.010   9.783   3.483 -0.0947 -0.0633 -0.1060
31484W        W47958  15.998   3.554   3.043  0.1044  0.1977 -0.0034
31485W        W47959  17.986   8.938   1.198 -0.0276 -0.1889  0.0193
31486W        W47960   5.470   5.718   1.321  0.0881 -0.1544 -0.2018
31487W        W47961   3.701  11.214   3.746 -0.0595 -0.2520  0.1172
31488W        W47962   6.401   8.240  14.810 -0.1778 -0.0546  0.0389
31489W        W47963  11.521   4.697  13.879  0.2019  0.1835 -0.0133
31490W        W47964   2.746   2.171  15.507  0.3145  0.1134  0.2761
31491W        W47965  15.557   8.645  15.404  0.1467 -0.1097  0.1015
31492W        W47966  14.483  17.470   4.170 -0.1089 -0.2886 -0.0041
31493W        W47967  10.265   3.232   1.528 -0.2030 -0.0237  0.3833
31494W        W47968   0.199  12.994   0.481  0.0067 -0.0491  0.0770
31495W        W47969   9.157   0.629  12.392 -0.0551  0.1578  0.2731
31496W        W47970   9.735  10.487   2.107  0.0095 -0.0104 -0.0278
31497W        W47971   3.288   9.308   4.412 -0.0583  0.0417  0.1697
31498W        W47972   5.471   7.487  12.925 -0.1149 -0.1601  0.0947
31499W        W47973   8.980   2.981  12.519  0.1308  0.1101  0.2140
31500W        W47974   1.138  16.961  14.491  0.0388 -0.0523  0.1444
31501W        W47975   9.443   3.520   4.663 -0.0357  0.0221  0.1060
31502W        W47976  12.281   9.810   2.233  0.1045 -0.1206 -0.2578
31503W        W47977  11.337   9.200   1.114 -0.0100  0.2251  0.1126
31504W        W47978   7.545  17.050   4.847 -0.0230  0.1784 -0.2915
31505W        W47979  10.938  17.303  15.926  0.1044  0.0836  0.3802
31506W        W47980  14.850  16.974   5.449  0.0973  0.0443 -0.0814
31507W        W47981  14.701  10.986   5.095 -0.2948 -0.4909  0.0397
31508W        W47982  13.327   3.762   2.973 -0.1736  0.2385  0.1765
31509W        W47983  15.037  11.833   2.677  0.3849  0.1189  0.0472
31510W        W47984  15.113  11.992   5.862  0.2641  0.0717  0.2097
31511W        W47985   0.685  15.033   4.511 -0.3052  0.0481 -0.1796
31512W        W47986   5.092   8.088  12.003  0.2852  0.0047  0.1025
31513W        W47987   4.495  14.923   5.298 -0.0580 -0.0089  0.0024
31514W        W47988  13.795   1.756  13.289  0.0753  0.0120  0.1150
31515W        W47989   1.043   4.721  12.631  0.1680  0.1408  0.1919
31516W        W47990  15.516   1.046   2.468 -0.0274  0.1399 -0.2948
31517W        W47991  15.707  11.497  11.549  0.3957  0.0703  0.0596
31518W        W47992  17.755  15.245  11.942  0.2123 -0.1066 -0.0784
31519W        W47993   3.236  13.700   2.136 -0.1088  0.0143 -0.1119
31520W        W47994   4.903   6.240   3.172 -0.1852  0.0199  0.1585
31521W        W47995  14.018   8.887  11.390 -0.2451 -0.1231  0.0603
31522W        W47996  14.305   1.654  14.064  0.1282  0.1212 -0.0735
31523W        W47997   2.915   4.038   4.879 -0.3326  0.2201  0.1197
31524W        W47998  12.258  17.561   3.564  0.1458 -0.1560 -0.0665
31525W        W47999   1.561  17.108   4.689  0.0342  0.2600  0.0421
31526W        W48000  17.862   1.403  13.319  0.2682 -0.0182 -0.0768
31527W        W48001  17.270   2.254  10.334 -0.0674 -0.1801  0.0507
31528W        W48002   8.222  14.288  13.298  0.2153  0.1177  0.1564
31529W        W48003  11.992  16.159  12.669  0.0304 -0.1687 -0.0021
31530W        W48004  17.935   5.436   3.443 -0.0172 -0.1051 -0.1698
31531W        W48005   0.137  12.436  13.313  0.1433 -0.2353  0.1147
31532W        W48006  14.920   0.335  15.617  0.2624 -0.1640 -0.3030
31533W        W48007   6.890   7.903   0.865 -0.1982  0.0462 -0.0792
31534W        W48008  14.369   5.279  14.317  0.2268 -0.1697  0.1330
31535W        W48009  13.217  14.295   4.764 -0.1354 -0.1165 -0.1375
31536W        W48010  10.525   8.078  15.367 -0.0877 -0.0868 -0.0012
31537W        W48011  11.750  17.336   3.656  0.2302  0.0827  0.1103
31538W        W48012  12.720   6.835  11.924 -0.1858 -0.4161 -0.0042
31539W        W48013   1.542  13.718  14.154 -0.1719  0.1145 -0.0086
31540W        W48014   7.675  17.109   4.257  0.3097  0.0310  0.0587
31541W        W48015   1.821   2.742   0.444 -0.1171 -0.3588 -0.2816
31542W        W48016   6.523  10.067  11.460 -0.1057 -0.3725 -0.1913
31543W        W48017   2.469   1.059   1.008 -0.1187  0.0714 -0.2255
31544W        W48018  10.074  11.645   0.514  0.1477 -0.3885  0.1374
31545W        W48019  17.907   6.842  11.257 -0.4048 -0.2813  0.2290
31546W        W48020   9.814   2.070   5.011  0.0340  0.0536 -0.1955
31547W        W48021   5.181  17.571  13.179 -0.1018 -0.0615  0.0155
31548W        W48022   6.947   5.059   0.127  0.0308 -0.0172  0.1164
31549W        W48023  12.853   6.075   4.512 -0.3122  0.0618  0.1552
31550W        W48024   8.909   8.046   0.050 -0.1311  0.1767  0.3086
31551W        W48025   3.277   4.193   0.455  0.4502  0.2150 -0.0033
31552W        W48026   6.639  16.094  15.450 -0.0916  0.1966 -0.3392
31553W        W48027   9.963   8.563   2.909 -0.1502  0.1607 -0.4718
31554W        W48028   3.019   3.512   4.980  0.1168 -0.3688 -0.0026
31555W        W48029  10.807  13.848   0.150  0.2192 -0.2271  0.2323
31556W        W48030  14.767  13.062  12.653 -0.1048 -0.0542 -0.1760
31557W        W48031  13.617  14.562   4.737  0.0272 -0.0792 -0.3906
31558W        W48032   6.143   1.655   2.122 -0.1332 -0.1223 -0.2057
31559W        W48033   8.842   9.733  10.888  0.3746 -0.0955  0.3794
31560W        W48034  11.621   1.123   3.176  0.0435 -0.3091  0.0139
31561W        W48035  10.652  10.438  15.372  0.0599 -0.0004 -0.3524
31562W        W48036   4.853   6.412  11.905  0.2573 -0.1778 -0.0174
31563W        W48037  16.360   2.019  11.453 -0.1611 -0.0725  0.0684
31564W        W48038   8.840   3.093   1.806  0.0062  0.0341  0.0733
31565W        W48039   1.791  17.050  15.253 -0.0648 -0.1554  0.2101
31566W        W48040   1.702  14.210  16.169  0.0275  0.3644 -0.1936
31567W        W48041  12.099   9.191   0.530  0.1923  0.0059 -0.1095
31568W        W48042   5.909  15.131   4.840  0.0346  0.2892  0.2753
31569W        W48043   2.751   8.762   4.942 -0.0992  0.3440  0.0023
31570W        W48044   0.142   0.864  13.894 -0.3623  0.1071  0.1778
31571W        W48045   6.227  10.059  15.639  0.1225 -0.0435  0.1644
31572W        W48046  15.542  10.027   5.099 -0.0064 -0.1544 -0.0561
31573W        W48047   5.872   1.516   3.084  0.0852  0.1891  0.3811
31574W        W48048  17.111  11.795  13.307  0.1707 -0.1524 -0.4341
31575W        W48049  14.228  16.656   3.823 -0.0242  0.1864  0.1315
31576W        W48050  14.845  12.793  14.216  0.2388 -0.0898 -0.0719
31577W        W48051  16.331  10.507  12.946  0.0301 -0.1159  0.1089
31578W        W48052   7.142  17.103   2.008 -0.0140  0.1839 -0.2718
31579W        W48053  18.168   6.732  16.308  0.0371 -0.0774  0.2251
31580W        W48054   9.392  11.576   3.369 -0.1442 -0.0865  0.0792
31581W        W48055  10.153   8.575  14.006 -0.0229  0.0173 -0.0379
31582W        W48056   1.366   8.729   3.766 -0.0874 -0.0603  0.0298
31583W        W48057   4.158  10.196  15.911 -0.2536 -0.1011 -0.4547
31584W        W48058   5.645   0.509   2.271 -0.1975  0.1266  0.0091
31585W        W48059  15.014  11.929   3.668 -0.0573 -0.0166 -0.2586
31586W        W48060  17.759  11.364  11.040  0.2032 -0.2367  0.1754
31587W        W48061   7.901  10.912  11.219 -0.0195  0.1425  0.1235
31588W        W48062   2.997   7.038  16.105  0.0211 -0.0528 -0.1614
31589W        W48063   5.497  12.349  11.682 -0.0920 -0.1426 -0.0379
31590W        W48064  12.771  14.913  13.420  0.0305  0.1851 -0.1939
31591W        W48065   6.760  17.882  14.332 -0.1374  0.0807 -0.4808
31592W        W48066   8.696  15.587  15.696 -0.0368  0.0587  0.3428
31593W        W48067   5.287  14.620  14.641 -0.2787  0.1523  0.0571
31594W        W48068  15.929   1.743  12.937 -0.0167  0.0404 -0.1362
31595W        W48069   4.872   6.793  13.205  0.2021 -0.0262 -0.1557
31596W        W48070  16.975   1.101   1.621  0.0974 -0.1030  0.1068
31597W        W48071   6.504   6.533  12.380  0.2199 -0.0018  0.2858
31598W        W48072   4.384   3.482   4.562  0.1971  0.2796 -0.0303
31599W        W48073   0.146   5.876   1.990 -0.2153  0.2227  0.2198
31600W        W48074  15.640   9.659  12.840  0.2935 -0.1572 -0.1215
31601W        W48075   0.155  12.700   5.011 -0.0194  0.3330  0.0283
31602W        W48076   5.481   0.479  11.831 -0.1222  0.1060  0.2298
31603W        W48077  15.818  17.307  15.673  0.2658 -0.2473  0.0320
31604W        W48078   7.692   1.530   3.584  0.4508  0.1935  0.1101
31605W        W48079  10.600   0.141   2.877 -0.0455 -0.4945 -0.0071
31606W        W48080  14.063   5.513   0.200  0.3247  0.5004  0.0252
31607W        W48081  10.674  12.240   1.281 -0.0002 -0.3260 -0.0139
31608W        W48082   6.204  13.834  12.287  0.3227  0.2030 -0.0341
31609W        W48083  11.749  10.134   2.774 -0.0900 -0.0588  0.0123
31610W        W48084   8.800  17.832   0.964  0.2208  0.2627  0.2003
31611W        W48085  16.590  12.196   0.106  0.2560 -0.1472 -0.0646
31612W        W48086   8.928  16.216   3.086  0.1033 -0.1991  0.1238
31613W        W48087  16.886   6.034  15.567  0.1155  0.0574  0.1293
31614W        W48088   2.791   1.855  15.957  0.0051 -0.1217 -0.0098
31615W        W48089  12.485   8.299  13.399 -0.0711 -0.0431 -0.0770
31616W        W48090   9.395  10.825  15.946 -0.1693  0.1927  0.0257
31617W        W48091  11.048   9.693   2.277 -0.2407 -0.0844 -0.0092
31618W        W48092  15.893  14.935  14.375 -0.2857 -0.0876  0.0812
31619W        W48093   3.766   2.492   1.844 -0.3050  0.0099  0.0593
31620W        W48094  16.856   8.816  13.411 -0.0421 -0.2768 -0.0749
31621W        W48095   0.429  11.808  15.317  0.2440  0.2585 -0.1318
31622W        W48096   9.528   0.679  11.056  0.3541  0.0889 -0.0435
31623W        W48097   9.397   7.648   0.675 -0.0603 -0.3175  0.2095
31624W        W48098  11.016   7.974   4.401  0.0856  0.0535 -0.1475
31625W        W48099   2.143   8.375  12.557  0.0343  0.1887  0.0485
31626W        W48100   5.146  11.823   5.184 -0.0280  0.3191 -0.2155
31627W        W48101   5.924  15.167   5.520  0.1025  0.1516  0.0894
31628W        W48102   4.446   5.497  12.082 -0.0585  0.0214  0.0417
31629W        W48103   0.810  10.785  13.181  0.2610 -0.0189 -0.0770
31630W        W48104  11.232  15.231  12.237  0.1507 -0.0651  0.3392
31631W        W48105  10.084   4.121   3.428  0.3160  0.0706  0.2149
31632W        W48106   0.711  14.473  15.231  0.3164  0.1057 -0.3076
31633W        W48107  11.994   7.550  11.916  0.0498  0.1281 -0.0073
31634W        W48108   1.121  16.781  14.965 -0.1184  0.1632  0.2426
31635W        W48109  12.349   6.695   5.653 -0.0192  0.0837  0.2488
31636W        W48110   9.240  12.915  13.764 -0.3721 -0.0987  0.3367
31637W        W48111   3.860  13.799  13.257  0.0707  0.0272 -0.0433
31638W        W48112   8.963   0.423   2.723  0.0671  0.3455  0.0272
31639W        W48113   8.303   5.940   2.385  0.1277 -0.0645  0.3733
31640W        W48114  14.729   2.243   1.068  0.1976  0.2041 -0.1288
31641W        W48115   9.613   9.623   0.204 -0.1955 -0.1740  0.0506
31642W        W48116   0.559   5.178  13.395  0.0356 -0.2558  0.0358
31643W        W48117   0.131  17.630  14.039  0.2419  0.0940 -0.1510
31644W        W48118   7.722  13.774   2.818 -0.0153  0.2034 -0.0997
31645W        W48119   0.742   0.724  13.861 -0.0560 -0.2399  0.0732
31646W        W48120  10.576  17.300  11.227  0.1717 -0.2708  0.1395
31647W        W48121   7.508   4.190  14.155  0.1008  0.0312  0.1500
31648W        W48122   3.952   8.941   1.227 -0.1823 -0.0663 -0.0848
31649W        W48123  15.433   0.144  11.544  0.1869  0.0169 -0.1714
31650W        W48124   3.984  10.469   2.687 -0.0520  0.0232 -0.2621
31651W        W48125   3.191   0.347  13.366 -0.0846  0.0826  0.0036
31652W        W48126   4.360   3.549   0.966 -0.0217  0.1969 -0.0469
31653W        W48127  11.893  17.596   2.445  0.0133  0.3518 -0.3274
31654W        W48128   4.301   8.578  13.634  0.1113 -0.2379  0.1347
31655W        W48129   7.549   2.037   3.547 -0.1606  0.1778 -0.3763
31656W        W48130  14.917   1.115  13.685  0.0261  0.0845 -0.1292
31657W        W48131  13.121  15.020   2.786 -0.0854  0.1336 -0.1444
31658W        W48132  11.708  16.544  12.797  0.1343 -0.1726  0.2385
31659W        W48133   7.486   4.593  14.713 -0.0437  0.0141  0.0389
31660W        W48134   1.044   9.026   4.020 -0.1849 -0.2010  0.3650
31661W        W48135  17.194   3.023  14.872  0.0673 -0.3114 -0.3582
31662W        W48136  16.087  12.039  13.500 -0.1847  0.3572  0.3047
31663W        W48137   8.596  13.242  12.209 -0.1002 -0.0286  0.1036
31664W        W48138   3.431  13.982  15.468 -0.1166  0.0697 -0.4438
31665W        W48139  16.332  14.292   1.358  0.1947 -0.3511  0.2492
31666W        W48140  17.013   8.954  10.910  0.2338 -0.0889 -0.0160
31667W        W48141   5.071   8.598  11.110  0.0642 -0.1352 -0.0436
31668W        W48142  15.691  15.122  14.796 -0.0609  0.1289 -0.3630
31669W        W48143   5.378   4.360  11.662 -0.0566  0.3810 -0.0758
31670W        W48144   2.842  10.175   0.517  0.2526  0.1222 -0.0800
31671W        W48145   3.415   2.962  14.443  0.0887 -0.0405 -0.0683
31672W        W48146  12.600  17.545  12.626 -0.0810 -0.1683  0.1449
31673W        W48147   1.856  10.552  13.316  0.0816  0.1638 -0.0617
31674W        W48148   3.180  15.608   4.948  0.2416 -0.2374 -0.0649
31675W        W48149   7.184   4.057   4.595  0.1628  0.2769 -0.1393
31676W        W48150   1.491  14.384  12.334 -0.2436  0.3387  0.2841
31677W        W48151   2.405   8.757  14.881  0.1029  0.0288 -0.0194
31678W        W48152  17.381  13.077   0.707 -0.1887 -0.1527  0.0639
31679W        W48153  17.166   6.269   5.686  0.0291  0.0619  0.1292
31680W        W48154  17.871  14.099   0.705 -0.0203 -0.0912  0.2374
31681W        W48155   7.913   7.340  14.798 -0.1093 -0.1355 -0.0691
31682W        W48156   9.533  11.988   1.223 -0.1538  0.2553 -0.2346
31683W        W48157   6.379   1.513  14.567  0.2068 -0.0662 -0.0801
31684W        W48158   8.729   6.249   5.067 -0.1919  0.1555 -0.0533
31685W        W48159  13.769   7.931   4.061  0.0868  0.1949  0.1116
31686W        W48160   0.924   0.414  15.568 -0.1201 -0.2637 -0.2772
31687W        W48161   7.498   4.144  12.161 -0.2161  0.1205 -0.1235
31688W        W48162   5.012   2.256  11.854  0.2260  0.0589 -0.0428
31689W        W48163  11.556  14.797  15.338 -0.0677  0.1091 -0.0035
31690W        W48164   0.878  10.821  13.647 -0.1051 -0.1101 -0.1461
31691W        W48165  14.608   1.108   4.569  0.0381  0.2606 -0.2002
31692W        W48166   1.304   8.376   5.242  0.2502 -0.1755  0.0170
31693W        W48167   4.482  16.333   5.160 -0.1011  0.2918 -0.2683
31694W        W48168   8.331   1.386  15.860 -0.2027 -0.2842 -0.0697
31695W        W48169   1.916   2.531   3.173  0.2113  0.0498 -0.0111
31696W        W48170  11.421   5.810   0.044 -0.4406 -0.0635 -0.1187
31697W        W48171  15.136  11.449  14.370  0.0071  0.2815  0.2269
31698W        W48172  12.665   6.611  13.673 -0.4162 -0.1562  0.2027
31699W        W48173  18.155   4.520   2.942  0.3927 -0.0506  0.0119
31700W        W48174  15.430  12.217   3.810  0.1521 -0.0294  0.2119
31701W        W48175   8.508  17.973   3.729  0.2049  0.0695  0.2241
31702W        W48176   6.391   0.025   1.508  0.0472  0.1369  0.0936
31703W        W48177  11.169   9.585   3.680 -0.1548  0.0001  0.0248
31704W        W48178   8.827  17.480  15.710  0.0899 -0.0773  0.0787
31705W        W48179  16.842   0.167  13.071  0.1082  0.1456  0.1629
31706W        W48180  17.218   5.548  12.082  0.0738 -0.0928  0.0397
31707W        W48181  18.143  15.113  15.029  0.0146  0.0665  0.0601
31708W        W48182  16.594  12.813  14.572 -0.1237 -0.2270 -0.0630
31709W        W48183   6.085   9.055  14.134  0.4164  0.2327 -0.0368
31710W        W48184   8.905  17.031  12.081  0.2003 -0.0516  0.0471
31711W        W48185  15.907  17.553   4.847 -0.3871 -0.3135 -0.0377
31712W        W48186  14.539  10.150  14.585 -0.0491 -0.0034  0.3275
31713W        W48187  14.069   2.663  15.446 -0.2702 -0.1068 -0.1351
31714W        W48188   6.798  18.042   5.913  0.1471 -0.2316  0.1182
31715W        W48189   3.698   5.558   5.912  0.0091  0.0360 -0.2449
31716W        W48190   5.694  16.085   4.479  0.0049 -0.1374 -0.1184
31717W        W48191  17.106   4.143  14.791 -0.0121 -0.2549 -0.0620
31718W        W48192   1.141   5.565  14.332  0.1297 -0.0243  0.1049
31719W        W48193  14.933   3.149  14.715 -0.0102 -0.3741 -0.1388
31720W        W48194  15.712   4.139   2.403  0.0837  0.0823  0.2783
31721W        W48195   0.460   2.967   2.864  0.2997  0.3321  0.3575
31722W        W48196   7.618  10.754  14.406  0.0994 -0.2687 -0.1832
31723W        W48197  17.161   1.483   1.242 -0.0885  0.0088  0.1035
31724W        W48198   4.964   9.439  11.174  0.3384  0.1651 -0.0964
31725W        W48199  11.935   8.238   4.154 -0.0823 -0.0374  0.0844
31726W        W48200  13.586   7.220   0.354 -0.1794  0.0259 -0.1708
31727W        W48201   7.140   4.520  12.450  0.0105  0.3859  0.0866
31728W        W48202   1.927  10.540   4.516 -0.2358  0.1765  0.1460
31729W        W48203   3.158   6.878  11.542 -0.0823  0.2877 -0.0739
31730W        W48204   4.640  13.165  15.252  0.0659  0.0799 -0.0035
31731W        W48205   9.015   9.954  16.246  0.2245  0.0609  0.1981
31732W        W48206   7.892  13.781   0.369  0.3106  0.0577 -0.0061
31733W        W48207   6.873  12.694   2.205  0.0359  0.1706  0.1420
31734W        W48208   6.751  13.598   1.826 -0.1637  0.1460 -0.0951
31735W        W48209  10.020   8.449  16.192  0.0457  0.4025 -0.0475
31736W        W48210   7.559   5.374  11.247 -0.1982  0.1314  0.1248
31737W        W48211  17.869  17.056  14.468 -0.1360 -0.3510 -0.3746
31738W        W48212  12.463  17.954  11.829 -0.2926  0.1121  0.1189
31739W        W48213  15.861  12.274  15.228  0.1046  0.3610  0.2853
31740W        W48214  13.246  17.648  12.123  0.1335  0.0553 -0.0337
31741W        W48215  16.285  18.045   4.706  0.2667 -0.1073  0.2002
31742W        W48216  15.636  17.603  14.742 -0.1424  0.0589  0.1245
31743W        W48217   5.358  11.236  10.954 -0.1834 -0.3809  0.1138
31744W        W48218   5.835  10.688  13.155 -0.0340 -0.1704  0.2883
31745W        W48219  17.526   6.933   3.157 -0.0117 -0.1703  0.2338
31746W        W48220   2.456  14.063   4.849  0.0956 -0.0448  0.1057
31747W        W48221   4.558   1.909  15.889  0.1092 -0.1297  0.2105
31748W        W48222  13.519   8.792   2.447 -0.1259 -0.0683  0.3777
31749W        W48223  13.513  12.248   5.474  0.0308  0.1401  0.0280
31750W        W48224  10.311  15.364   2.477  0.0657 -0.2381 -0.1557
31751W        W48225  15.325   3.618  11.523 -0.0143 -0.4843 -0.0498
31752W        W48226  18.149   5.051  11.982 -0.0746 -0.1887  0.1176
31753W        W48227   1.280  17.615   1.529 -0.1311  0.1045  0.1939
31754W        W48228   4.360  10.987  15.309 -0.0589 -0.0661 -0.3451
31755W        W48229  15.686  15.965  12.783  0.2270 -0.1442 -0.1440
31756W        W48230   0.431  13.055  15.713  0.2153  0.1202 -0.3537
31757W        W48231  14.935   8.636  12.417 -0.1491 -0.3105  0.0242
31758W        W48232   2.134   0.458  15.556  0.1795  0.0336 -0.0737
31759W        W48233  11.957   4.671  15.322 -0.1382 -0.0007 -0.2915
31760W        W48234  15.747   0.799  14.641  0.1008  0.0709  0.1869
31761W        W48235  17.028   3.334  16.003 -0.1650 -0.1133 -0.1260
31762W        W48236  11.086  15.950  12.678 -0.0453  0.3200 -0.0489
31763W        W48237   0.570  14.401  12.436 -0.0365 -0.2068  0.1434
31764W        W48238  10.806   8.544  10.387  0.0859  0.0223  0.1241
31765W        W48239   5.490   3.142  16.047 -0.2357  0.0673  0.0592
31766W        W48240  13.462   8.680  12.620 -0.1486 -0.0689  0.0073
31767W        W48241  13.271   1.175   2.011  0.2555  0.0401  0.5630
31768W        W48242   2.770  12.356   3.854  0.0597 -0.1604 -0.1166
31769W        W48243   4.654  14.102   1.428  0.1593  0.0120 -0.0709
31770W        W48244   9.323  16.521  13.766 -0.3943 -0.3086  0.3497
31771W        W48245  10.555   0.470   5.334  0.0090  0.2447 -0.2873
31772W        W48246  14.195  14.136   3.579 -0.2799 -0.3877 -0.0522
31773W        W48247   3.742  15.513  11.953  0.0327 -0.0760  0.2286
31774W        W48248  13.559  10.984   6.233 -0.0460  0.1936 -0.5212
31775W        W48249   5.217  14.772  11.867  0.1533  0.3075  0.0269
31776W        W48250   3.667   3.658   1.701  0.3378  0.0533 -0.3037
31777W        W48251  12.762  14.182   5.118  0.2205 -0.1395 -0.1892
31778W        W48252  10.418  16.559   1.563 -0.2269 -0.0187  0.1464
31779W        W48253   5.635  14.494  16.190 -0.0502 -0.3754  0.1274
31780W        W48254  14.721  12.019   4.935 -0.1791  0.1797 -0.0699
31781W        W48255   9.260  11.300  12.365 -0.3151 -0.1075 -0.3963
31782W        W48256  13.749  13.252   2.228  0.0770  0.0442  0.1919
31783W        W48257  15.183   5.240  16.059 -0.0920  0.1192 -0.1010
31784W        W48258   3.035   8.563  14.230 -0.1051 -0.0025  0.2276
31785W        W48259   3.957   3.744  14.261 -0.2365  0.1149 -0.1127
31786W        W48260   7.044  15.492   1.580 -0.1154 -0.0291 -0.0797
31787W        W48261   2.116   3.168  13.812  0.0054 -0.1883  0.0318
31788W        W48262   5.921   3.030  13.439  0.0471 -0.4351  0.1049
31789W        W48263   7.390   7.012  12.176 -0.2898  0.0576 -0.1928
31790W        W48264   1.372   2.158  12.499  0.1573 -0.1639  0.1064
31791W        W48265   7.522   4.878   2.361 -0.2616 -0.1826  0.0148
31792W        W48266  12.829  16.465   0.502 -0.1108  0.2608  0.0367
31793W        W48267  12.117   8.193   1.717 -0.0380 -0.0621  0.0294
31794W        W48268  13.440   9.788   4.894  0.3074 -0.1127 -0.1393
31795W        W48269   5.908   4.179  14.253  0.0684  0.2871 -0.0111
31796W        W48270  15.808   9.876  11.656  0.1169  0.0153  0.0533
31797W        W48271  17.649   4.798  11.194  0.2232  0.1105  0.0581
31798W        W48272   9.367  13.932  16.160 -0.2188  0.1525 -0.1338
31799W        W48273  16.586   3.928  15.490  0.0154  0.3305  0.1132
31800W        W48274   7.518   6.548  12.320 -0.3416 -0.0416 -0.0780
31801W        W48275  17.155   4.363   2.989  0.1406  0.1455 -0.1578
31802W        W48276   4.575  16.827  15.922 -0.0016 -0.0118  0.0333
31803W        W48277   8.353   2.465   2.693  0.0455  0.1842  0.2662
31804W        W48278  12.385   8.068  11.813 -0.0781  0.0933  0.1149
31805W        W48279  15.981   0.557   0.770  0.0506 -0.2044 -0.1593
31806W        W48280  10.692  13.203   2.446 -0.2007  0.0735  0.0228
31807W        W48281  12.912  16.161   3.509  0.0487 -0.0488  0.1387
31808W        W48282   8.484  12.268  12.497  0.3361  0.0900 -0.3139
31809W        W48283   1.270   8.673  11.698  0.1313 -0.3744  0.0786
31810W        W48284  13.792  16.119   0.700  0.0199  0.1266  0.1583
31811W        W48285  13.439  13.138  16.266 -0.1154  0.1144 -0.0540
31812W        W48286   4.705   4.765  12.587  0.1860  0.0225 -0.0803
31813W        W48287   0.911  18.000  11.627 -0.2044 -0.0537 -0.1401
31814W        W48288   5.343   9.428  13.902  0.1168 -0.2064 -0.0014
31815W        W48289   3.232  17.619  13.021 -0.1370  0.0680  0.0122
31816W        W48290   7.765   3.135  14.158  0.1084 -0.1618 -0.0470
31817W        W48291  17.391  16.616  13.962 -0.1175 -0.1346 -0.0390
31818W        W48292   8.306  12.757  15.645  0.2041 -0.0863 -0.0710
31819W        W48293  14.288   1.065  11.727 -0.2272 -0.0121 -0.0718
31820W        W48294   9.935  11.932   4.775  0.1528 -0.2288 -0.3250
31821W        W48295  17.822  13.235  14.606  0.0078 -0.0815 -0.0032
31822W        W48296  13.557  13.506  14.421 -0.1999 -0.1203 -0.0690
31823W        W48297   6.401  16.647   5.503 -0.1369 -0.3196 -0.3279
31824W        W48298   8.543  13.497  15.350  0.1575  0.1066 -0.1752
31825W        W48299  16.432   6.286   0.818 -0.0003 -0.0352 -0.0633
31826W        W48300  10.251   0.339   0.381 -0.1340  0.2961  0.0316
31827W        W48301   1.171   4.244  12.762 -0.0312  0.0806 -0.0144
31828W        W48302  17.922  16.597  16.222  0.0178 -0.0238 -0.3264
31829W        W48303   5.030   0.560  15.389 -0.0571 -0.0274  0.1120
31830W        W48304   5.100  17.782  15.820 -0.3166  0.2939  0.4768
31831W        W48305   1.892  18.036  12.212  0.1345 -0.1072  0.0362
31832W        W48306  15.269  15.970   4.388  0.1873 -0.1690 -0.1753
31833W        W48307   3.120  12.622   1.725 -0.1528  0.1883  0.1262
31834W        W48308   1.207  13.661   3.072 -0.1014  0.1878 -0.0163
31835W        W48309   8.443   5.963   0.212  0.0349 -0.2253  0.2241
31836W        W48310  11.559   4.463   4.927 -0.1430  0.1237  0.2847
31837W        W48311   3.913  15.244   4.723  0.0248  0.0278  0.1582
31838W        W48312   9.310   0.170  14.552  0.1333 -0.0898 -0.2876
31839W        W48313  16.164   9.069   4.445 -0.2544 -0.0049 -0.0610
31840W        W48314  17.178  16.420  12.511 -0.1235  0.1603 -0.0361
31841W        W48315   9.771  15.734   3.261 -0.0003  0.0612 -0.0557
31842W        W48316   3.024   4.666   2.249 -0.3665  0.3250  0.0737
31843W        W48317  17.542  17.418  13.631  0.0756  0.0593 -0.1962
31844W        W48318   8.625   9.521   2.734  0.0698 -0.0205 -0.1496
31845W        W48319  11.242   0.927  15.512  0.3614  0.2094 -0.2907
31846W        W48320   1.700   9.425  12.241  0.3622  0.2435 -0.0827
31847W        W48321  11.098  16.130   4.533  0.0803 -0.0972  0.0611
31848W        W48322  16.894   8.013  12.294 -0.0464 -0.1922 -0.1274
31849W        W48323   9.253   9.662   4.986 -0.1351  0.3060  0.0251
31850W        W48324  13.605   2.227  15.016 -0.3169  0.0895 -0.0435
31851W        W48325   1.652  14.975   4.876 -0.0469 -0.0860  0.0045
31852W        W48326   6.070  13.934  13.447  0.0683 -0.1340 -0.1754
31853W        W48327   9.300  16.427  14.266 -0.3212  0.0513  0.0059
31854W        W48328   7.029  10.895   3.163 -0.0282 -0.1829 -0.0665
31855W        W48329   7.549   9.161   1.061  0.5452  0.1532 -0.0225
31856W        W48330  12.635  16.832   3.196  0.0404  0.0469  0.1161
31857W        W48331  10.587   7.403  13.416 -0.2432 -0.0352  0.1403
31858W        W48332  16.589   1.241   0.363 -0.0078 -0.1032 -0.0948
31859W        W48333   4.633   1.941  15.253 -0.0377 -0.4370  0.1651
31860W        W48334   5.184  14.127   0.322 -0.2270 -0.1176  0.4559
31861W        W48335   4.054   5.135   1.665 -0.1315 -0.1794  0.0790
31862W        W48336   3.573  15.190   1.054 -0.2018  0.0108 -0.0562
31863W        W48337   5.518  15.654   3.658 -0.0318  0.2135 -0.0620
31864W        W48338   5.339  16.112  12.026 -0.0890 -0.0371 -0.2892
31865W        W48339  11.489   9.504  14.809  0.3821 -0.0937 -0.1654
31866W        W48340   6.501   5.808   0.146 -0.1590 -0.0174 -0.0050
31867W        W48341   7.639   0.274   1.766 -0.0623 -0.0383 -0.1635
31868W        W48342   4.397  13.309   1.378  0.0422  0.1932  0.0541
31869W        W48343   2.649  12.186   3.413 -0.1720 -0.2742  0.0536
31870W        W48344   5.853  16.952   5.844  0.0272 -0.2271 -0.1702
31871W        W48345   2.788   0.185  12.046  0.2200  0.0194  0.0758
31872W        W48346  15.549   1.954  11.649  0.3412 -0.0154  0.1230
31873W        W48347   0.196  14.276   0.746 -0.0412 -0.1050 -0.1914
31874W        W48348   6.459  11.418   3.461 -0.2913  0.0520  0.1323
31875W        W48349   5.429  10.748   4.337  0.1903 -0.0337 -0.2882
31876W        W48350   6.590   1.949  14.549 -0.0402 -0.1406 -0.2467
31877W        W48351   7.431  16.683   5.273  0.1267  0.0449 -0.0043
31878W        W48352   8.017   7.565  14.016 -0.0379  0.2277  0.0785
31879W        W48353  16.590  17.584  12.067  0.0405  0.0118  0.2469
31880W        W48354   0.480  14.550   1.499  0.0938 -0.0688 -0.1727
31881W        W48355  15.054   1.169   2.630 -0.1115  0.2259  0.0879
31882W        W48356   1.992  13.676  11.196 -0.0313  0.0330 -0.1805
31883W        W48357  17.099   0.781  15.652  0.1561  0.1383 -0.1249
31884W        W48358   3.702  16.436   3.990  0.2354  0.2356  0.2085
31885W        W48359   3.318   5.313  14.545  0.1841 -0.1276 -0.0304
31886W        W48360  17.938   0.628  11.601 -0.1086 -0.1172 -0.0454
31887W        W48361  17.476   5.425   1.565 -0.0821  0.2547 -0.0242
31888W        W48362  12.897   2.575   2.371  0.0520 -0.0338 -0.3189
31889W        W48363   1.094   4.614  15.601 -0.1512 -0.0683 -0.2131
31890W        W48364  16.521   8.318   4.111 -0.4178  0.2326 -0.2051
31891W        W48365   5.474   4.336   3.239  0.3300  0.1373  0.0199
31892W        W48366   8.717   6.857   2.806 -0.0207 -0.1302 -0.1079
31893W        W48367   0.797   5.346  16.201  0.0766  0.2612  0.0903
31894W        W48368   0.898  17.512  16.051  0.1862 -0.0186 -0.1296
31895W        W48369  13.003   1.032  13.608  0.1932 -0.0411 -0.1587
31896W        W48370   6.405   2.017   2.383 -0.0642  0.0086  0.1952
31897W        W48371   4.761   7.138   0.397 -0.0742  0.0668  0.0142
31898W        W48372   2.651  15.443   3.621 -0.3905  0.1062 -0.0958
31899W        W48373   3.975   3.244   0.120  0.0648 -0.0715  0.1452
31900W        W48374  14.686  11.726  13.574  0.2163 -0.0987 -0.1057
31901W        W48375  16.016  15.913   4.152  0.0088 -0.4868 -0.1333
31902W        W48376  13.369  16.737  14.208 -0.0204 -0.1336  0.0029
31903W        W48377  10.795   3.732   1.979  0.4459 -0.1763 -0.1233
31904W        W48378   6.743  14.761   5.683  0.2081 -0.2338  0.0239
31905W        W48379  10.490  14.639  14.358 -0.0463  0.3120 -0.1110
31906W        W48380   8.715   5.155   1.503  0.0045 -0.1961  0.1382
31907W        W48381  11.049  17.610  12.842 -0.1912  0.0659  0.0807
31908W        W48382   6.184   7.959   3.608  0.0371  0.0453  0.2125
31909W        W48383   2.044   5.047  14.063 -0.0734  0.0541 -0.1493
31910W        W48384  17.582  10.925  12.258 -0.2993  0.0091  0.0879
31911W        W48385   3.406  17.731   2.193  0.2822  0.0337 -0.0362
31912W        W48386   9.243   8.709  15.399  0.0034  0.2289 -0.1239
31913W        W48387   3.140  17.122  12.968 -0.2150  0.1062  0.0740
31914W        W48388   6.954  17.553   0.753 -0.0208  0.0705  0.4690
31915W        W48389   9.691   7.652  15.013  0.0789  0.2651  0.1088
31916W        W48390   6.852   3.919   3.215  0.0707  0.0810 -0.0751
31917W        W48391  13.356  18.140   5.065  0.1497  0.3728  0.1385
31918W        W48392  11.844  11.981   1.634  0.0272 -0.0773 -0.3643
31919W        W48393  16.319   3.489  12.531 -0.0012 -0.0981 -0.0486
31920W        W48394   7.195  10.392  13.622 -0.1882 -0.2419  0.1708
31921W        W48395  10.614   3.167  12.821  0.0198  0.1705 -0.1087
31922W        W48396   0.103   7.192   0.286 -0.2378 -0.0889 -0.2140
31923W        W48397   4.830  13.859   2.686  0.1659 -0.1430 -0.2754
31924W        W48398  15.563  10.427   2.322 -0.1010 -0.0895 -0.0639
31925W        W48399  13.483  10.303   0.575 -0.2417 -0.3047 -0.1142
31926W        W48400  13.095   7.347  12.594 -0.0606  0.1010  0.0815
31927W        W48401  10.152   5.139  14.856 -0.0886 -0.1083 -0.0479
31928W        W48402   0.459  13.753   5.097  0.2276  0.0596 -0.2709
31929W        W48403   3.128  15.968  13.826 -0.1891 -0.0248 -0.0762
31930W        W48404   8.935  16.923   3.872  0.2398  0.2469 -0.2556
31931W        W48405  14.069   0.404   5.648  0.2425  0.2556 -0.0003
31932W        W48406  11.949   2.692  15.885 -0.2109  0.0644 -0.0510
31933W        W48407   3.632   3.688  11.894 -0.2449  0.3249  0.1512
31934W        W48408   3.587   5.983  11.913 -0.0054 -0.0582 -0.0625
31935W        W48409   0.194   4.307   5.811 -0.0004 -0.0823  0.2419
31936W        W48410   8.424  13.817  12.983 -0.0103  0.0940 -0.1486
31937W        W48411   2.644   4.986   1.306 -0.1727  0.0939  0.0521
31938W        W48412  15.104  17.062   4.459  0.0203 -0.1037  0.0505
31939W        W48413  16.948   6.090  11.009  0.0932 -0.2075  0.0300
31940W        W48414  17.918   7.001  14.616  0.0449  0.1171 -0.2585
31941W        W48415   9.453   9.629  14.873  0.2245  0.1092 -0.2244
31942W        W48416   9.940  14.139   0.457  0.3104  0.1657  0.0896
31943W        W48417   2.916   2.138  14.336  0.0228  0.0283  0.3729
31944W        W48418   3.954   7.444   2.099 -0.1172 -0.2616 -0.0668
31945W        W48419  14.880  16.069   5.127 -0.3356 -0.1420 -0.2780
31946W        W48420   6.651   2.623  15.969 -0.0006  0.2613 -0.0535
31947W        W48421   5.127   1.915   4.267 -0.1366 -0.0162  0.0621
31948W        W48422   5.938  16.483   5.597  0.1786 -0.2092  0.1393
31949W        W48423  10.778   1.500   0.667  0.2594 -0.0184  0.0480
31950W        W48424  12.279  10.233  11.691 -0.2017 -0.0697 -0.3361
31951W        W48425   0.910   5.515   2.565  0.2091 -0.0974  0.0737
31952W        W48426   2.077   3.757  16.046 -0.0512 -0.0030  0.0846
31953W        W48427   9.576   7.868   5.402 -0.3155 -0.2630 -0.0945
31954W        W48428  16.052  11.419   1.757  0.3055  0.0023 -0.2342
31955W        W48429   2.136  13.501  14.456  0.3019  0.0501  0.2827
31956W        W48430   3.691  15.737   4.553 -0.3644  0.2729 -0.0984
31957W        W48431  17.145  17.727   2.707  0.3971 -0.2057  0.2095
31958W        W48432  12.269   0.406  15.257  0.0856  0.1459 -0.0983
31959W        W48433   5.693   5.132  12.066  0.0814  0.1302  0.1534
31960W        W48434   0.739  14.676   2.668  0.0687 -0.3019  0.2210
31961W        W48435  10.051  13.559  15.618 -0.0364 -0.0365  0.0874
31962W        W48436   1.017  11.926  10.703  0.1520 -0.0020 -0.2283
31963W        W48437   4.476  17.657  11.876  0.0573  0.0953 -0.1925
31964W        W48438  10.829  11.366  15.086 -0.2427  0.1937 -0.1715
31965W        W48439   7.373   1.352  14.771  0.1599 -0.0418 -0.0908
31966W        W48440   4.171   1.158   0.962 -0.2200  0.0721 -0.1349
31967W        W48441   7.117   8.881   1.493  0.2368  0.1485 -0.3271
31968W        W48442  18.076  10.047   3.991  0.2658  0.2863 -0.1362
31969W        W48443   0.739   0.304   1.921  0.1199 -0.2105  0.1727
31970W        W48444   0.418   1.737  14.985 -0.0554  0.1318  0.3993
31971W        W48445  10.942  12.610  11.462  0.0676  0.0308  0.0977
31972W        W48446  11.172   3.724   1.677  0.1858  0.1482  0.0235
31973W        W48447  12.291   6.553  15.436  0.1455  0.0622  0.1094
31974W        W48448   7.647  13.311   2.125 -0.3698 -0.0336 -0.3009
31975W        W48449  15.530  16.223  11.588  0.1062  0.0476  0.0294
31976W        W48450  10.339  12.612  10.441 -0.0638  0.0169  0.0201
31977W        W48451  17.487   3.426  15.764  0.0452  0.0746 -0.2026
31978W        W48452  16.476  10.936  16.083  0.4157  0.4500 -0.1654
31979W        W48453   6.771   7.374   0.743 -0.3317 -0.0991  0.0737
31980W        W48454   7.712   3.842  15.278 -0.4421 -0.3907 -0.2284
31981W        W48455  15.186  13.590   4.856 -0.0107  0.2068  0.4400
31982W        W48456   5.210   1.091   0.827 -0.0367 -0.2522 -0.2324
31983W        W48457  15.415   2.685  11.301 -0.1208 -0.2724  0.1683
31984W        W48458   8.800   8.017  14.354 -0.0960 -0.0726 -0.3253
31985W        W48459   5.336   6.980   5.135  0.0136 -0.2608  0.1074
31986W        W48460   6.880   1.843   3.851  0.0023  0.2325  0.2109
31987W        W48461   6.425   3.916  15.920 -0.1665 -0.2223  0.0079
31988W        W48462   6.745   9.581  14.380  0.0499  0.1009  0.2633
31989W        W48463  10.014   6.567   4.838 -0.0026 -0.3028  0.0666
31990W        W48464  15.148  13.462  15.073 -0.2782 -0.1946 -0.4353
31991W        W48465  13.639   9.035   5.204 -0.1321 -0.0401  0.1536
31992W        W48466   8.166  16.870   3.328 -0.2448  0.1733 -0.1925
31993W        W48467   4.112   5.296   2.575  0.0766 -0.1672 -0.2915
31994W        W48468   4.624   1.869  11.653  0.1902  0.1339  0.3051
31995W        W48469   7.324   6.025   3.822 -0.0961  0.2865  0.2305
31996W        W48470  14.090   0.397  12.076 -0.0645 -0.1061 -0.0770
31997W        W48471  12.777   9.573   1.505  0.1842  0.0946 -0.0872
31998W        W48472   1.785   5.734  12.108  0.1052 -0.1309  0.0142
31999W        W48473   1.451  17.217  11.929  0.2166 -0.2071  0.0611
32000W        W48474   1.121   7.000   1.102  0.2464  0.0574 -0.4137
32001W        W48475  17.158   7.175  10.920 -0.1471 -0.0407 -0.0759
32002W        W48476   9.984  14.086  15.437 -0.1029  0.1368  0.0654
32003W        W48477  10.849   9.137  12.920 -0.2331  0.0513  0.3821
32004W        W48478   8.424  14.027  13.724  0.0244 -0.1137 -0.0319
32005W        W48479  15.174  12.913   1.036  0.2322 -0.1497  0.1123
32006W        W48480   3.931  13.340   0.026 -0.1016  0.2703 -0.0733
32007W        W48481   3.372   2.154   1.623  0.2505 -0.0466 -0.0438
32008W        W48482   8.321   5.794  14.354  0.0628 -0.0115 -0.1502
32009W        W48483  12.788   3.611  12.575  0.1867  0.3191  0.0564
32010W        W48484   4.356   8.063  14.345 -0.2400 -0.0752  0.2076
32011W        W48485  14.044   6.373  15.644 -0.2351  0.0655 -0.0130
32012W        W48486   5.723   2.027   1.278  0.1076 -0.0471  0.3201
32013W        W48487   8.867  15.136  14.138  0.2184  0.2949 -0.0625
32014W        W48488   7.153  10.698  13.064  0.0672 -0.0353 -0.2327
32015W        W48489  15.626  17.864   2.896  0.0151  0.2494  0.0253
32016W        W48490  16.973   5.353   5.288  0.2057  0.0311  0.0290
32017W        W48491   2.705   2.747   1.932 -0.2360 -0.3339 -0.1161
32018W        W48492   0.481   7.368   1.701 -0.0339 -0.3003  0.2419
32019W        W48493   0.412   8.417  11.685 -0.4516  0.1560 -0.1116
32020W        W48494   3.180  11.445   1.466 -0.0394  0.1084 -0.5008
32021W        W48495  10.183   7.544   1.167 -0.0825 -0.2566 -0.0787
32022W        W48496  17.795  14.931  13.687  0.0760  0.1892 -0.0939
32023W        W48497   9.605  15.647  16.188 -0.1382  0.1084 -0.2943
32024W        W48498  13.275  12.949   3.444 -0.1776 -0.0363 -0.2681
32025W        W48499  14.795  10.484  11.945  0.1992 -0.2432  0.2107
32026W        W48500   4.457  15.236   3.646 -0.0868 -0.2955 -0.1234
32027W        W48501   5.787  13.017  15.717 -0.1824 -0.0636 -0.0449
32028W        W48502  15.238   7.724  13.661 -0.1486 -0.1357 -0.0834
32029W        W48503  11.688   8.983   0.706 -0.4057  0.0708  0.1053
32030W        W48504  17.561   0.496   0.328  0.0317 -0.0396 -0.0160
32031W        W48505  15.111  18.162   2.444 -0.0175  0.0194  0.3164
32032W        W48506  14.090   0.914   5.339  0.1075 -0.0374 -0.2674
32033W        W48507  11.717  16.869  12.008 -0.3638 -0.1227 -0.1108
32034W        W48508   2.558  12.897  13.979  0.2389  0.0987 -0.2516
32035W        W48509   3.333   8.901  14.514 -0.3235  0.1358  0.3678
32036W        W48510   3.781   8.437  10.197 -0.2076 -0.3812 -0.1010
32037W        W48511   8.789   6.014  11.985  0.2274  0.1753  0.1962
32038W        W48512   0.022  16.247  14.852 -0.1185 -0.0571  0.0852
32039W        W48513  17.743   5.080   1.332 -0.4083 -0.1090  0.0753
32040W        W48514   9.102   9.577   3.680  0.1746 -0.1153  0.1296
32041W        W48515   4.474   6.056   4.415 -0.0553  0.2514  0.0745
32042W        W48516  10.652   3.244  15.055 -0.0114  0.2834  0.1177
32043W        W48517   0.635   3.124  15.511 -0.2177 -0.0387  0.2212
32044W        W48518  11.689   4.063  13.284  0.1303  0.0045 -0.0948
32045W        W48519   2.220   9.750  11.950  0.3378  0.1787  0.2006
32046W        W48520   7.242   3.550   5.479 -0.2524 -0.0346  0.1171
32047W        W48521   9.769   9.017   4.494 -0.0578  0.0604 -0.0016
32048W        W48522   9.081   7.597  16.194 -0.1388  0.3628 -0.2025
32049W        W48523  16.294  12.334   4.727  0.0445  0.0017  0.0028
32050W        W48524  14.007   6.962   0.568 -0.2272  0.1010 -0.1197
32051W        W48525  17.884  10.050  15.686  0.0201 -0.0145  0.0413
32052W        W48526   6.614   8.386  14.383  0.4355 -0.0286  0.1597
32053W        W48527   7.024   1.133   1.940 -0.0027  0.2459  0.1147
32054W        W48528   4.177  18.134   4.377 -0.1280  0.0132 -0.0242
32055W        W48529   2.594  17.012   1.924  0.3280 -0.1813 -0.1449
32056W        W48530   1.645   9.443   1.547 -0.1004 -0.0263 -0.0671
32057W        W48531   2.680  15.350  11.489  0.1943 -0.5168  0.2542
32058W        W48532  12.320   8.962   3.363 -0.1548  0.3516  0.1505
32059W        W48533  14.785   3.103  14.167  0.1378  0.1793  0.2631
32060W        W48534   2.845  10.194   4.527 -0.0662  0.1270 -0.1319
32061W        W48535  16.410   5.217   2.997 -0.0042 -0.1861 -0.0647
32062W        W48536  10.496  17.875   4.798 -0.0632 -0.1588 -0.1656
32063W        W48537  10.653   4.417  15.835  0.0964  0.1849  0.2436
32064W        W48538   0.450   1.768   5.341  0.0287  0.0298 -0.2781
32065W        W48539   2.274   2.353   3.414 -0.0647  0.0710 -0.1086
32066W        W48540  11.541  17.887  15.551  0.0897 -0.1740 -0.2844
32067W        W48541  14.296   8.087  10.957  0.3924  0.0884 -0.0970
32068W        W48542  16.170   5.025  14.177  0.0117 -0.2340  0.0713
32069W        W48543   9.240   8.785  13.846  0.0697 -0.0673 -0.2711
32070W        W48544  13.850  10.495   3.149  0.0709 -0.1481 -0.0119
32071W        W48545  14.415   1.123   1.766 -0.2409  0.3686  0.0022
32072W        W48546   8.660   3.631  13.163  0.2696  0.0035 -0.0615
32073W        W48547   3.423  10.253  11.103  0.0098  0.3928 -0.2282
32074W        W48548   2.039  17.136   3.393 -0.2200 -0.3545 -0.1776
32075W        W48549  12.795   5.701   2.485 -0.2129  0.3239 -0.0025
32076W        W48550   9.061  15.621   2.524  0.1560 -0.4573 -0.0254
32077W        W48551  11.380   1.826   1.523  0.0033 -0.0361  0.0606
32078W        W48552  13.467   3.714   0.545  0.2060 -0.0164  0.0554
32079W        W48553  10.736   8.437   1.321  0.1049  0.1322 -0.0096
32080W        W48554   1.824   0.857  15.493 -0.2191 -0.4657  0.2170
32081W        W48555   2.571   8.563   2.108 -0.2091  0.1519  0.0055
32082W        W48556  10.823   8.308  13.525  0.1825 -0.0378  0.2143
32083W        W48557  12.141  13.225  16.152 -0.1767 -0.0371 -0.1030
32084W        W48558   3.940   0.926   3.389 -0.1611 -0.1233 -0.1075
32085W        W48559   7.340   2.754  11.753 -0.5783  0.1061 -0.1488
32086W        W48560  15.095   0.085   3.850  0.4367  0.0289  0.0993
32087W        W48561   8.967  17.193  14.899  0.1030  0.0072  0.2693
32088W        W48562   6.488  13.662  13.641  0.2540  0.1163 -0.1284
32089W        W48563   3.176   1.817  14.021 -0.0771 -0.1807 -0.2699
32090W        W48564   3.730   1.902   0.234  0.0464  0.3317 -0.0677
32091W        W48565   8.496   5.446   2.433  0.1869  0.0267 -0.0862
32092W        W48566   2.525  17.971  14.405 -0.1070  0.0553 -0.0123
32093W        W48567   1.591  13.687   4.031  0.0568 -0.0056 -0.1502
32094W        W48568  11.526   8.871   1.539 -0.0101 -0.3129 -0.1518
32095W        W48569   5.564   2.019   1.832 -0.0387  0.3482 -0.0826
32096W        W48570   0.572   7.245  15.859  0.1207  0.2675 -0.5569
32097W        W48571   0.005   2.401   1.241  0.1610  0.0961  0.0904
32098W        W48572   7.729   6.121   1.646  0.0758 -0.1475 -0.0855
32099W        W48573  11.493  16.182  12.499  0.0702  0.0723 -0.0174
32100W        W48574   8.693   4.799   0.695  0.1839 -0.0002  0.0817
32101W        W48575   5.724  17.008   4.834  0.2120 -0.3045 -0.1775
32102W        W48576  16.374   7.324   0.736  0.0260  0.1877  0.1273
32103W        W48577   3.156   6.110  16.003  0.2243  0.2855 -0.0959
32104W        W48578   4.417   8.140   0.212 -0.0228  0.0827  0.3970
32105W        W48579  13.944  14.345  14.748  0.1972  0.0578  0.3722
32106W        W48580   6.495   2.306  12.868  0.1683  0.0928 -0.1248
32107W        W48581  18.077  10.115  11.834  0.1204  0.0347 -0.4711
32108W        W48582   5.065   7.664  12.728 -0.1998  0.1508  0.3676
32109W        W48583  15.568  12.330  13.722 -0.1094 -0.0064 -0.0668
32110W        W48584   0.319  17.246   2.120 -0.2454 -0.0829  0.1132
32111W        W48585   7.513  14.558   1.749 -0.1753 -0.0271  0.2851
32112W        W48586  13.302   7.642  13.122 -0.1759 -0.0605 -0.3198
32113W        W48587  14.170   5.017  15.842  0.3809  0.6575  0.0535
32114W        W48588   1.882  11.809   2.657 -0.1371 -0.1519 -0.2190
32115W        W48589   8.867   1.626   1.438  0.0507 -0.2083  0.1594
32116W        W48590  17.679  12.271  15.316 -0.3346 -0.1338 -0.1008
32117W        W48591   1.963  12.378  15.234 -0.2648  0.1249 -0.1420
32118W        W48592   4.321  11.205  12.030  0.1798  0.3522  0.1545
32119W        W48593  15.966   3.062  13.888 -0.4788  0.3350 -0.2030
32120W        W48594  13.017  16.137  14.799 -0.0709  0.1691  0.0085
32121W        W48595   4.501  15.134   3.049 -0.1277  0.1453 -0.0442
32122W        W48596   0.688   6.659  15.062 -0.0337  0.0846  0.1155
32123W        W48597   6.481   8.544   1.560  0.3466  0.3347 -0.0563
32124W        W48598   5.219  12.289   5.223 -0.2187 -0.3684  0.0790
32125W        W48599   7.018   9.836   2.987 -0.1331  0.0547  0.1222
32126W        W48600   7.114   3.247  14.824  0.2132  0.1194  0.0082
32127W        W48601   0.926  15.504   5.324 -0.0964  0.1388  0.2886
32128W        W48602  17.477   5.998  13.748  0.0852  0.2855 -0.1307
32129W        W48603  11.574  16.239   1.493  0.3524 -0.3276 -0.4050
32130W        W48604   2.347  14.347   1.311 -0.1082 -0.0209  0.1019
32131W        W48605  14.690  14.358   5.005 -0.1620  0.1991  0.2700
32132W        W48606   5.285  15.653  12.924 -0.0905  0.0042 -0.1229
32133W        W48607  12.054  14.569   4.822  0.3956 -0.2170  0.0408
32134W        W48608   4.316  17.720  10.453  0.1254  0.0362 -0.0552
32135W        W48609  13.438  16.043  14.530 -0.0718 -0.0721  0.0489
32136W        W48610   7.289  15.257   5.047  0.1460 -0.0859 -0.1947
32137W        W48611   3.958  14.662   3.638  0.0738  0.4040  0.0738
32138W        W48612   4.865  15.055   6.179 -0.2315 -0.0706 -0.2868
32139W        W48613   0.937   4.439  16.072 -0.0602  0.1724 -0.2061
32140W        W48614   7.796   3.991   6.105  0.0383 -0.2097 -0.0334
32141W        W48615  16.603   7.917   0.646  0.0764 -0.0213 -0.3782
32142W        W48616   1.402  15.741   4.486  0.1833 -0.0445 -0.0598
32143W        W48617   3.100  11.809  12.695 -0.0354  0.1009 -0.0705
32144W        W48618  17.937   9.510  12.861  0.1486  0.0084  0.2928
32145W        W48619   0.135  10.912  14.176  0.3614 -0.0937  0.2669
32146W        W48620   4.446   2.937  13.935  0.2787  0.2826 -0.0867
32147W        W48621  13.072   1.728  12.215  0.0383  0.0802 -0.2247
32148W        W48622  14.264   0.012  12.303  0.0650  0.0352 -0.2629
32149W        W48623   9.443   8.888   2.950  0.0612  0.0436  0.2095
32150W        W48624  14.195  13.283   2.040 -0.0611 -0.2995 -0.0797
32151W        W48625   8.056   8.976  11.064  0.1694  0.0430  0.2374
32152W        W48626   2.850  13.275   3.439  0.0705 -0.1665 -0.2125
32153W        W48627   4.746   5.154  14.730  0.0852  0.1152 -0.1744
32154W        W48628  12.494   3.462   2.370 -0.2835 -0.3129  0.0974
32155W        W48629   7.026   5.970   4.814  0.0005  0.0002 -0.3032
32156W        W48630   4.028  11.221   4.457  0.1906  0.2331  0.0549
32157W        W48631   1.411  11.914   3.243 -0.0985 -0.0079 -0.2433
32158W        W48632   0.185  13.971  14.150  0.2698  0.1721 -0.1316
32159W        W48633  15.901   8.885   3.519  0.0739 -0.0377 -0.1202
32160W        W48634   9.765   0.009   5.263  0.0064 -0.0349  0.0272
32161W        W48635  15.978  16.968   2.069  0.2695 -0.2125  0.0358
32162W        W48636   8.582  16.639   4.317 -0.2166 -0.1493 -0.2349
32163W        W48637  18.176   1.610  14.729 -0.1823 -0.2356  0.1679
32164W        W48638   2.974  11.176  13.389 -0.0047  0.1433  0.0394
32165W        W48639  15.814  15.581   2.419 -0.0885 -0.1310 -0.0393
32166W        W48640  12.337  15.339   3.936 -0.3496 -0.1983  0.3013
32167W        W48641   2.756   1.544  13.778 -0.0575  0.0747 -0.1730
32168W        W48642  17.068  10.364  16.045  0.0511  0.4037  0.1585
32169W        W48643   5.605   6.844   4.186  0.0164  0.0058 -0.1322
32170W        W48644  11.905   3.554   0.412 -0.1319  0.1546  0.1222
32171W        W48645  13.504  16.520  12.984  0.1189  0.1029 -0.0648
32172W        W48646   6.519  13.859   4.514  0.1720  0.1227 -0.1165
32173W        W48647   9.384   9.822   2.882  0.1438 -0.2366  0.1051
32174W        W48648  18.162  10.401   0.699 -0.3652 -0.0035  0.1397
32175W        W48649   5.806   8.795  12.622  0.1598 -0.0496 -0.1648
32176W        W48650   5.637  12.048   2.603  0.0576  0.0520  0.1489
32177W        W48651   2.344   1.880  16.213 -0.1142  0.0882 -0.1837
32178W        W48652  14.762  14.936   0.560  0.0741 -0.1079 -0.1337
32179W        W48653   0.024  15.583  16.015  0.3093 -0.0835  0.0764
32180W        W48654  14.939  10.541  15.837 -0.1401 -0.0775  0.0274
32181W        W48655   4.122   6.202  12.711  0.0862  0.1513 -0.2454
32182W        W48656   0.992   3.695   2.845  0.0884 -0.0500 -0.1867
32183W        W48657   4.748  12.997  12.623  0.0774  0.1128 -0.0759
32184W        W48658   2.196   0.621  14.809 -0.0783  0.0258  0.1611
32185W        W48659  16.255   6.422  11.319 -0.0858  0.0001  0.1401
32186W        W48660  10.069   6.426  15.446 -0.0622 -0.0812  0.3471
32187W        W48661  15.818   3.389  12.677 -0.2980 -0.2102 -0.3747
32188W        W48662   1.990   4.453   4.962  0.1885  0.1641 -0.4978
32189W        W48663  17.908   0.447   3.072  0.0630 -0.1332 -0.2375
32190W        W48664   0.700   4.465  11.804  0.0757  0.2914  0.1257
32191W        W48665  17.647  16.103   3.619  0.0334  0.0241 -0.1012
32192W        W48666  14.352  18.133  13.272 -0.1983  0.0365 -0.0550
32193W        W48667  15.886   2.718  16.021 -0.1802  0.0715 -0.3564
32194W        W48668  13.587   4.405   2.369  0.1261  0.2369 -0.1586
32195W        W48669  16.459   6.793  14.565  0.1113 -0.1283  0.3991
32196W        W48670  11.798   4.763  14.849 -0.3073 -0.2060 -0.1655
32197W        W48671  10.082  11.057   4.851  0.1039 -0.0099 -0.2124
32198W        W48672   8.576   9.637  15.166  0.2019 -0.0364  0.1528
32199W        W48673   3.989  12.512   2.858  0.2280  0.2559  0.2872
32200W        W48674  12.673   7.990  11.405  0.1610 -0.1230  0.1109
32201W        W48675  11.386   1.970  10.533  0.1113 -0.2413 -0.2594
32202W        W48676   9.693   1.732   3.539 -0.3967  0.0493 -0.1473
32203W        W48677  14.232  10.925  15.381  0.1691 -0.1195  0.2147
32204W        W48678  13.635  10.315   2.497 -0.0331  0.1191 -0.0074
32205W        W48679  10.690   2.871  15.446  0.2041 -0.1857  0.0432
32206W        W48680  15.543   5.735   4.387 -0.1354 -0.0962 -0.0355
32207W        W48681  11.327   4.294   3.850  0.2393 -0.2094 -0.0756
32208W        W48682   9.762   1.642  13.673 -0.0944 -0.0812 -0.1992
32209W        W48683  16.882   3.723   1.005 -0.1280  0.2571 -0.2819
32210W        W48684   7.192  11.743  14.766  0.0040  0.2762  0.1904
32211W        W48685  11.403  15.247  11.221 -0.1910 -0.0554 -0.1189
32212W        W48686  15.182   0.361  15.065 -0.1650  0.1953  0.0121
32213W        W48687   6.413  16.534  13.917 -0.0474 -0.3271  0.3479
32214W        W48688  13.811   1.845  15.448  0.0695 -0.1230 -0.0130
32215W        W48689   7.208  17.457   4.884  0.2556 -0.0732  0.1171
32216W        W48690   5.020  15.915   1.326  0.1692 -0.1653 -0.2346
32217W        W48691  15.028  13.460  13.987 -0.0814 -0.1835  0.0485
32218W        W48692   4.529   9.435  13.280 -0.0359  0.1748 -0.2624
32219W        W48693  14.762   3.737  13.503  0.1477  0.0595 -0.1283
32220W        W48694  13.225   7.582   3.091  0.1800  0.0835  0.3369
32221W        W48695   4.812   1.959   0.378 -0.1100 -0.1158 -0.0434
32222W        W48696   7.709  17.886  14.458  0.0832 -0.0086 -0.0382
32223W        W48697   3.794  11.222   0.801  0.0117 -0.0025 -0.0526
32224W        W48698   7.334   8.014   0.001  0.0901  0.0756 -0.0183
32225W        W48699   3.853   0.693   1.826  0.1580  0.0971 -0.0527
32226W        W48700   9.628  13.765  15.300  0.1234 -0.2038  0.0356
32227W        W48701   7.765  12.870  11.326 -0.1997 -0.1984  0.1697
32228W        W48702   6.598  15.220  15.726 -0.0539 -0.2569 -0.1482
32229W        W48703   1.096  17.943  16.082 -0.1150 -0.0667  0.0709
32230W        W48704  13.487   4.393   1.326  0.0753  0.2842  0.1784
32231W        W48705   9.898   9.857  15.613  0.1177  0.1419  0.0623
32232W        W48706  16.951  18.144   2.158  0.0030 -0.0567 -0.3298
32233W        W48707  11.698  17.915   4.265 -0.1742 -0.0118 -0.0479
32234W        W48708  11.701   8.596   3.919  0.2016  0.1053  0.0012
32235W        W48709   5.825  11.168  12.422 -0.2160  0.3714  0.3045
32236W        W48710  12.306  10.760  13.306 -0.0972  0.2568 -0.1850
32237W        W48711  11.706  16.903   3.482 -0.1598  0.0407  0.2125
32238W        W48712   5.523  15.135   5.162  0.1076 -0.0852 -0.4645
32239W        W48713   0.399   2.324   4.654 -0.2095 -0.1469  0.0513
32240W        W48714   0.993   9.507  14.839  0.1362  0.1125 -0.0949
32241W        W48715  12.406   4.420   5.405  0.3415  0.0438  0.0141
32242W        W48716  13.532  15.709  14.090 -0.0170 -0.2132  0.3714
32243W        W48717  11.275  15.721   4.856 -0.1303  0.0461  0.0715
32244W        W48718  14.914   0.289   2.958  0.2608  0.0040  0.0954
32245W        W48719  10.382   3.341   2.024  0.0376  0.2233  0.1816
32246W        W48720  10.135   1.148   5.854  0.1550  0.2010  0.1807
32247W        W48721  13.376  11.565   1.948  0.0977  0.2093  0.3207
32248W        W48722  17.969  16.341  11.871 -0.2874  0.0445 -0.0497
32249W        W48723   1.992  15.574   2.944  0.4149 -0.2185  0.0644
32250W        W48724   9.032  15.800   5.584  0.2610 -0.0316 -0.0883
32251W        W48725  12.151   2.429  14.519  0.2032  0.0087  0.1165
32252W        W48726  11.133  13.064  11.816 -0.1179  0.0656 -0.4401
32253W        W48727   7.300   0.478  12.760 -0.0205  0.2339 -0.0072
32254W        W48728  13.825   4.789  13.756 -0.0930 -0.3281 -0.2027
32255W        W48729   8.413  16.330   0.704  0.0468  0.3164 -0.0177
32256W        W48730   9.220   8.289   1.946 -0.0610 -0.2268 -0.2434
32257W        W48731   5.843   3.962  12.411  0.0200  0.2586 -0.3195
32258W        W48732  12.929   9.633   4.470 -0.3734  0.3980  0.1602
32259W        W48733  15.374  17.360   5.249  0.0320  0.1027  0.2510
32260W        W48734   4.975   0.489  14.735 -0.1910  0.0787 -0.2783
32261W        W48735  13.136   5.942   0.918  0.2884 -0.3133 -0.0053
32262W        W48736  15.915  10.577   4.396 -0.0738  0.1190 -0.0939
32263W        W48737  12.435  10.671   0.761  0.0840  0.0705 -0.0261
32264W        W48738   8.758   0.047   0.007  0.2417 -0.2552 -0.0882
32265W        W48739   3.395  12.998  10.824 -0.0455  0.0936  0.2206
32266W        W48740   8.058   4.810  10.514  0.0210 -0.0616 -0.0911
32267W        W48741   4.467  12.525  14.189 -0.2100 -0.1307  0.2739
32268W        W48742  12.669  16.326   1.807 -0.0429 -0.2130  0.1793
32269W        W48743  15.524  12.122  12.420 -0.1610  0.0462  0.1077
32270W        W48744  13.787  16.956   3.313 -0.0583  0.0842 -0.1280
32271W        W48745  16.783   6.795   0.191 -0.0177 -0.0396 -0.0674
32272W        W48746   1.525  12.777  13.070  0.2429 -0.0337 -0.0339
32273W        W48747  10.594   7.278  12.851 -0.1203 -0.1037 -0.0746
32274W        W48748   9.823   3.871  12.634 -0.1106  0.3181  0.2043
32275W        W48749  14.659   9.621  16.193  0.1552  0.0578  0.5158
32276W        W48750   7.161  14.411  15.060 -0.2607 -0.0711  0.3837
32277W        W48751   7.775   3.715  13.422 -0.0935  0.3536 -0.0283
32278W        W48752  16.645   5.190   3.449 -0.2948  0.0176 -0.2295
32279W        W48753   2.593   6.087   2.703  0.0471 -0.1050 -0.0675
32280W        W48754  11.035   7.514  15.976 -0.0762 -0.1979  0.2691
32281W        W48755   3.511   1.205  12.968 -0.2863 -0.2730 -0.2363
32282W        W48756  13.278  16.529  11.275 -0.0800  0.2611 -0.2831
32283W        W48757   3.989  14.126   5.423  0.1059 -0.0749  0.1639
32284W        W48758  11.259   4.524   3.230  0.1112 -0.0849  0.0409
32285W        W48759   7.597  12.471  11.840  0.2167 -0.1364 -0.0558
32286W        W48760   1.306   0.417   2.083  0.1526  0.3130 -0.1438
32287W        W48761  14.875  16.161   1.748 -0.1088  0.4004 -0.0915
32288W        W48762   5.299  10.721  11.848  0.3298 -0.1145  0.0511
32289W        W48763  15.849   9.994   2.633  0.1841  0.1218  0.1479
32290W        W48764  10.983   3.801   3.834  0.0102 -0.1558  0.2510
32291W        W48765  13.766   3.955   3.782 -0.2858 -0.4206  0.0098
32292W        W48766   4.255  13.115  12.473 -0.3146 -0.2861 -0.3135
32293W        W48767   6.142  12.124  10.051 -0.0120 -0.1112  0.1462
32294W        W48768  16.814   7.508   0.434 -0.2407 -0.0488 -0.2245
32295W        W48769   5.904  16.832   2.897 -0.0488  0.1092 -0.0113
32296W        W48770   8.661  16.301   2.645  0.0782  0.0217  0.1707
32297W        W48771   1.965  11.874  15.288  0.1237  0.2239 -0.4127
32298W        W48772  11.477  16.631   0.433  0.1468 -0.0783  0.1075
32299W        W48773   8.816  15.955  12.197 -0.2144 -0.0819  0.1195
32300W        W48774   3.990  12.940  15.035 -0.2115 -0.0684  0.2505
32301W        W48775  13.689  13.607  13.354 -0.1300  0.3005  0.2062
32302W        W48776  14.708  15.482   3.527 -0.0632  0.3316 -0.0099
32303W        W48777   9.941   1.513  10.099 -0.1493  0.2655  0.1921
32304W        W48778   7.208  11.608  11.521 -0.1708 -0.4026 -0.2582
32305W        W48779  14.336  12.724   3.732 -0.0074  0.3370  0.1399
32306W        W48780  11.986   0.173   5.163 -0.5234 -0.0028 -0.1289
32307W        W48781  16.144  15.209  14.024 -0.1799 -0.1556 -0.0793
32308W        W48782   5.116  15.941  14.805  0.0398 -0.1054  0.0418
32309W        W48783   6.388  12.992  16.083  0.1834  0.3137  0.2612
32310W        W48784  17.326  13.598   4.761 -0.4320  0.3746 -0.0909
32311W        W48785   0.353   7.746   0.325  0.0238 -0.0166  0.1235
32312W        W48786  12.830  13.388   5.831  0.1619 -0.1046 -0.0488
32313W        W48787   1.794  10.185   5.703 -0.1951 -0.2382 -0.1236
32314W        W48788   1.418   0.967  10.689  0.2414  0.0672 -0.0314
32315W        W48789  14.875  12.104  11.715  0.1298  0.2539 -0.0489
32316W        W48790   7.356   2.710   0.570 -0.0626 -0.1390  0.1122
32317W        W48791   8.781  10.554   5.243  0.1228 -0.1226 -0.0769
32318W        W48792  15.251  13.139  14.394  0.3058  0.2082  0.1933
32319W        W48793  10.106   2.303   2.928 -0.1353 -0.4721 -0.0911
32320W        W48794   8.714   7.149  14.358  0.1146 -0.4075  0.0245
32321W        W48795   4.567   6.292  12.383 -0.0147 -0.1870  0.1737
32322W        W48796   0.455   7.220   2.154  0.1200  0.0366 -0.2787
32323W        W48797  12.313  12.770  13.848  0.2448 -0.0423 -0.1038
32324W        W48798   4.670   0.029  11.577 -0.0684 -0.1628  0.3188
32325W        W48799   1.310  13.464   4.382 -0.1502  0.0303 -0.2881
32326ION     NA48800  13.372   1.324   5.557 -0.1565 -0.3049  0.1770
32327ION     NA48801   1.515   4.230  15.685 -0.0620  0.0375  0.0346
32328ION     NA48802   9.042  11.323  14.965  0.2827  0.0519 -0.1867
32329ION     NA48803  11.189  12.655   3.209  0.1360 -0.0179 -0.3141
32330ION     NA48804   2.098   3.338   3.792  0.1583  0.0850 -0.0135
32331ION     NA48805   0.061  13.408  15.897 -0.2411 -0.2567 -0.0193
32332ION     NA48806  14.890  15.226  15.412 -0.0775 -0.2554  0.0969
32333ION     NA48807   9.556   6.265  12.357  0.1602 -0.0026 -0.2121
32334ION     NA48808   3.657  10.897   5.703 -0.0576 -0.1179 -0.2448
32335ION     NA48809   6.887   7.389   4.501 -0.1151 -0.0902 -0.0723
32336ION     NA48810  18.156   0.329  15.835 -0.0614 -0.0417  0.2279
32337ION     NA48811  16.516  10.541  12.195 -0.0759 -0.4797  0.0227
32338ION     NA48812   1.600  11.588   0.963  0.0047  0.0273  0.0326
32339ION     NA48813   1.428  15.280   5.243 -0.1526  0.0456 -0.0750
32340ION     NA48814  14.089   9.472   4.960 -0.2704 -0.2241 -0.0924
32341ION     NA48815   9.376   8.577  10.289  0.0412  0.1412 -0.1571
32342ION     NA48816   8.984  10.871   5.647  0.0691 -0.1251  0.3861
32343ION     NA48817   9.101  11.153   3.188 -0.0967 -0.0008  0.1110
32344ION     NA48818   7.883  12.243   2.940 -0.2514  0.1520  0.3354
32345ION     NA48819  15.007  17.410   2.710  0.0840  0.2196  0.0930
32346ION     NA48820   2.989  10.121   3.943 -0.2832 -0.0990 -0.0763
32347ION     NA48821   5.605   5.532   0.859 -0.1161 -0.1431  0.1540
32348ION     NA48822   9.317   1.466   1.543  0.0066  0.0388 -0.0693
32349ION     NA48823  14.978   9.290   4.934 -0.3148  0.2178 -0.0229
32350ION     NA48824   7.397   0.753  15.365  0.1027 -0.1102 -0.1741
32351ION     NA48825   9.687   2.428  13.272 -0.1679  0.0115 -0.0439
32352ION     NA48826   3.965  14.261  10.611  0.1186  0.1116  0.0693
32353ION     NA48827   3.773   2.410   1.274  0.4005 -0.0642  0.1616
32354ION     NA48828  10.914   5.783   5.740  0.1215  0.1326  0.1334
32355ION     NA48829   7.165   5.582   0.006  0.0672 -0.2203  0.4075
32356ION     NA48830   1.606  13.500   2.642 -0.0352 -0.0505  0.0977
32357ION     NA48831   4.250  14.090   5.914  0.1891  0.0694 -0.0502
32358ION     NA48832   1.673   4.196  10.647  0.0722  0.1007 -0.1255
32359ION     NA48833  16.415   4.064  10.232  0.3161 -0.5274 -0.1583
32360ION     NA48834  17.090  10.781   5.743 -0.1536 -0.0964 -0.2152
32361ION     NA48835   9.578   1.836   2.366 -0.1976 -0.3138 -0.1244
32362ION     NA48836   7.766  11.945   5.605  0.1061 -0.1321 -0.2755
32363ION     NA48837   0.537   6.378   1.064  0.2065  0.0050  0.1804
32364ION     NA48838  17.907  13.929  10.908  0.1174  0.3324  0.0943
32365ION     NA48839   5.734  13.344  10.634  0.1382 -0.3635  0.2944
32366ION     NA48840  10.143   6.380   1.893  0.1485 -0.0403  0.0281
32367ION     NA48841   6.047  17.045   5.237 -0.0687 -0.0540 -0.0120
32368ION     NA48842   1.836  15.297  10.705  0.5543  0.1226 -0.1711
32369ION     NA48843   6.822  10.719  11.407  0.0745  0.0775 -0.1464
32370ION     NA48844  10.138  13.572  13.023  0.4691  0.0315 -0.0673
32371ION     NA48845  14.316  10.543  14.860 -0.0621  0.1845 -0.2395
32372ION     NA48846   3.882   5.203  12.933 -0.2879  0.2817 -0.1558
32373ION     NA48847  13.685   6.797  13.328 -0.0829 -0.2965  0.0807
32374ION     NA48848  11.669   7.610   6.024 -0.0598 -0.0980 -0.0252
32375ION     NA48849  16.250   1.394   1.901 -0.1432  0.0133 -0.1612
32376ION     NA48850   0.950   2.025   5.314 -0.0377  0.2402 -0.1369
32377ION     NA48851  12.750  16.190   0.918 -0.2590  0.0123 -0.0393
32378ION     NA48852   4.658  17.213  10.593  0.1197 -0.2590  0.0401
32379ION     NA48853  16.229   6.982  14.966  0.0146 -0.0838  0.0179
32380ION     NA48854   5.039   4.269   5.053  0.2122 -0.2155  0.2009
32381ION     NA48855   1.602   6.996   5.084 -0.2102 -0.1051  0.0651
32382ION     NA48856  10.111   6.684  13.936 -0.1522 -0.2008 -0.3449
32383ION     NA48857   9.642  12.719   5.891  0.1887 -0.0032 -0.2239
32384ION     NA48858  11.517  13.523  13.585 -0.3180  0.1098  0.1723
32385ION     NA48859   8.878   4.067  10.615  0.4470 -0.2673  0.0906
32386ION     NA48860   3.501   1.928  12.448 -0.0761 -0.1763  0.0191
32387ION     NA48861   3.269  17.459   6.105 -0.0746  0.2289 -0.0331
32388ION     NA48862  10.307   2.149   0.165  0.2522  0.1220  0.1021
32389ION     NA48863   6.918  12.311   0.718 -0.1354 -0.0278 -0.0302
32390ION     NA48864  14.665   8.160  12.276 -0.0757 -0.2213  0.0486
32391ION     NA48865   9.799   6.936   5.712  0.0759 -0.2699 -0.0587
32392ION     NA48866  10.750   0.543   0.313 -0.1359 -0.2289  0.0833
32393ION     NA48867   3.627  11.725   2.390 -0.0327  0.0442 -0.2652
32394ION     NA48868   2.937  16.720  13.304 -0.1128 -0.1871  0.1362
32395ION     NA48869  15.439  13.245   2.814 -0.0152 -0.0123 -0.1571
32396ION     NA48870  16.101   6.789   1.356 -0.1882  0.2107 -0.0457
32397ION     NA48871  14.467   5.513  10.295 -0.2541  0.1291  0.4141
32398ION     NA48872   0.161   1.800   5.774  0.0317 -0.1802 -0.1349
32399ION     NA48873  14.046  17.440   1.061  0.1530 -0.0419 -0.1621
32400ION     NA48874   2.439   6.078  15.344 -0.0068  0.1017  0.1434
32401ION     NA48875  12.468   4.782   4.616 -0.2246 -0.1083  0.0357
32402ION     NA48876   1.803  15.263  11.921  0.1083 -0.0674 -0.0728
32403ION     NA48877   5.094   1.265   2.831  0.2512 -0.0777 -0.0550
32404ION     NA48878  17.510   3.085  10.202 -0.5012  0.0775  0.0202
32405ION     NA48879  14.093  12.257  10.782 -0.0931 -0.0349 -0.0377
32406ION     NA48880  10.924  12.693  15.117 -0.1171  0.1059  0.2913
32407ION     NA48881   2.464  13.574  10.894  0.1607  0.0824 -0.3568
32408ION     NA48882   4.753  17.118   5.748  0.0752  0.1286  0.1031
32409ION     NA48883   6.513  17.053  13.500 -0.2126 -0.0382 -0.2891
32410ION     NA48884   4.735  11.054  16.164  0.0465 -0.0989  0.1622
32411ION     NA48885  15.466   4.947   2.555  0.0807  0.1487 -0.0571
32412ION     NA48886  17.254  10.707  10.659 -0.0277 -0.0452  0.3444
32413ION     NA48887  13.213  12.130   3.962 -0.1055  0.0764 -0.0396
32414ION     NA48888   7.653   9.908  10.285 -0.2726 -0.0115  0.1945
32415ION     NA48889  13.921  17.164  11.583  0.1512 -0.0309 -0.2073
32416ION     NA48890  16.139   7.318   6.230 -0.1054  0.2404 -0.2114
32417ION     NA48891   8.452   1.182   6.030  0.0945 -0.0161  0.2865
32418ION     NA48892   3.656   1.849   5.968  0.3732  0.1735 -0.1297
32419ION     NA48893  14.450  13.901   3.222 -0.0385  0.1289  0.1440
32420ION     NA48894  18.117   0.385   2.151 -0.0652 -0.1434 -0.0661
32421ION     NA48895   9.867   5.125  10.705 -0.0007  0.0256  0.1737
32422ION     NA48896  15.823   1.143  12.411 -0.0458  0.0210  0.1344
32423ION     NA48897   3.455  16.202   4.387 -0.1799  0.0861 -0.1605
32424ION     NA48898   8.756   8.317   3.048 -0.2815  0.0254  0.0328
32425ION     NA48899  10.398   6.775   5.121  0.1451 -0.1072 -0.0926
32426ION     NA48900   9.430   4.587   4.656 -0.2231  0.0887  0.2158
32427ION     NA48901   1.228   7.764  13.632  0.0369  0.1390 -0.1327
32428ION     NA48902   4.609   3.975   5.774 -0.0141  0.0233  0.1660
32429ION     NA48903  15.931   8.632   2.254  0.1054  0.2988 -0.0372
32430ION     NA48904   4.884   9.321  13.627 -0.1671 -0.0219 -0.1964
32431ION     NA48905   4.914   9.639   3.176 -0.0376  0.1373  0.1842
32432ION     NA48906   9.759  10.768   1.680 -0.2816 -0.0397  0.2304
32433ION     NA48907   5.496   4.682   5.604  0.0067  0.1684  0.0394
32434ION     NA48908  11.967  14.794   5.317  0.0872  0.2724 -0.2054
32435ION     NA48909   9.541   0.613  10.550  0.0693 -0.0738  0.0872
32436ION     NA48910  16.315   8.201   5.995  0.2111  0.0133  0.3132
32437ION     NA48911   0.021  16.023   6.133  0.0625  0.2048 -0.0475
32438ION     NA48912  13.545   9.805   0.536 -0.0484  0.2006 -0.2421
32439ION     NA48913  15.344  10.295   6.160 -0.1877  0.2186 -0.2151
32440ION     NA48914  16.975   8.262   0.484 -0.0925 -0.0239  0.2554
32441ION     NA48915   6.152  12.703  10.254 -0.0810  0.2347 -0.0918
32442ION     NA48916   1.170   4.380  12.306  0.4412  0.0115  0.1324
32443ION     NA48917  11.882   5.694  15.365  0.0956  0.3387  0.3845
32444ION     NA48918   0.561   3.856   3.880 -0.4528  0.2128  0.1668
32445ION     NA48919  11.956  16.224  10.268  0.0638 -0.0167  0.3546
32446ION     NA48920  15.961  17.202  14.292 -0.0737  0.0227  0.0152
32447ION     NA48921  10.993   2.198   5.874  0.0906  0.1070  0.1302
32448ION     NA48922  10.140   4.254   5.977  0.1553  0.0088 -0.2275
32449ION     NA48923  17.391  15.407  10.647  0.0705  0.2771 -0.4961
32450ION     NA48924  15.802  18.077  14.627 -0.0996 -0.2474  0.2027
32451ION     NA48925  17.315   1.193  15.741  0.0968  0.1328 -0.2151
32452ION     NA48926  14.772   5.497  14.781  0.0316  0.1279  0.2536
32453ION     NA48927   0.277  17.405   3.664 -0.0807  0.0205 -0.0946
32454ION     NA48928  16.600  17.056  10.496 -0.1722 -0.0139 -0.0966
32455ION     NA48929  17.016   4.863  15.494 -0.1043 -0.2165  0.0066
32456ION     NA48930   6.829  13.346   2.751  0.0541  0.1490  0.0025
32457ION     NA48931  14.137   8.971   3.856 -0.0292 -0.0749  0.0214
32458ION     NA48932  16.055  15.241   1.178 -0.3140  0.0985 -0.0009
32459ION     NA48933  14.730  15.774  10.701 -0.1988  0.3501 -0.0887
32460ION     NA48934   3.801  17.181   3.139 -0.0724  0.1012 -0.1294
32461ION     NA48935   9.354  15.277   6.137  0.2562 -0.1720  0.2015
32462ION     NA48936   9.293   4.221  11.392  0.0998  0.1595  0.2274
32463ION     NA48937   9.397   1.174   3.178  0.4314 -0.1733 -0.4552
32464ION     NA48938   4.281   2.424  14.060  0.1381 -0.0387 -0.0217
32465ION     NA48939  11.408  11.815   0.872 -0.3389 -0.0706 -0.0230
32466ION     NA48940  11.098  14.178   0.493  0.0186 -0.1105  0.0124
32467ION     NA48941  15.444  15.071   3.081 -0.1433 -0.1304  0.0356
32468ION     NA48942  11.653   2.236   1.950  0.1169  0.0703  0.0278
32469ION     NA48943  11.498   7.938   4.266 -0.1826  0.2916 -0.3738
32470ION     NA48944   9.026   2.002  10.716 -0.1877 -0.1131 -0.2045
32471ION     NA48945  13.471   3.823  15.881  0.1153 -0.2432 -0.0028
32472ION     NA48946  15.447   5.483   5.062  0.3259 -0.0955  0.1160
32473ION     NA48947   0.386  15.483   3.622 -0.0051 -0.2183  0.0366
32474ION     NA48948   0.286  12.099  16.189  0.1198 -0.1939  0.1072
32475ION     NA48949   7.335  12.549  14.411  0.0987 -0.0889 -0.1206
32476ION     NA48950   5.209  15.067  14.846 -0.1327 -0.0973  0.0918
32477ION     NA48951   1.193   3.587  10.435  0.2314 -0.0599  0.3198
32478ION     NA48952  12.903   8.378   0.085  0.0308 -0.0825  0.2070
32479ION     NA48953   3.967   9.923   5.948  0.1230 -0.0606 -0.2015
32480ION     NA48954  10.689  14.568   5.129 -0.1824  0.0584  0.1241
32481ION     NA48955   9.960  11.381   3.526 -0.0216 -0.0809  0.1408
32482ION     NA48956   8.930  17.012   0.796  0.1799 -0.2351 -0.0493
32483ION     NA48957  12.388  10.309   2.029  0.3455 -0.1932  0.1592
32484ION     NA48958  13.221   3.027  11.401  0.1180 -0.0072 -0.2814
32485ION     NA48959   8.662  11.400  10.038 -0.2124  0.2407  0.2314
32486ION     NA48960   9.836  13.081  15.849  0.2298 -0.0539 -0.0212
32487ION     NA48961   8.750   7.670   0.377 -0.0763  0.1209  0.0492
32488ION     NA48962   1.087   0.745   4.622 -0.2723 -0.1922  0.1431
32489ION     NA48963   5.573   8.516   0.050  0.0253 -0.1810  0.2151
32490ION     NA48964   7.883   9.992  12.817 -0.1470  0.0292  0.2968
32491ION     NA48965  12.876   7.513  14.477  0.2291 -0.1028  0.1747
32492ION     NA48966   6.795  14.969   0.970 -0.0253 -0.3721 -0.0768
32493ION     NA48967  17.087  17.427   1.275 -0.1488 -0.1288  0.2160
32494ION     NA48968  10.362   4.575  12.153  0.1692 -0.4659  0.0907
32495ION     NA48969  17.577   6.791  14.913 -0.1087 -0.0248 -0.2317
32496ION     NA48970   8.716   6.103  13.162  0.0525  0.2836 -0.1104
32497ION     NA48971   1.260  13.739  10.620 -0.2489 -0.0788  0.0694
32498ION     NA48972  11.689  17.366   5.537 -0.0249  0.0553 -0.0841
32499ION     NA48973  10.099   8.502   2.263  0.0879  0.2706 -0.0823
32500ION     NA48974   6.965   8.316  16.055  0.1610  0.0550 -0.3084
32501ION     NA48975  15.274  16.640  10.814  0.0458  0.2124 -0.1863
32502ION     NA48976   3.942  13.951   2.865 -0.0718  0.2992 -0.0003
32503ION     NA48977   0.130  16.933   6.042  0.1843 -0.0330  0.0574
32504ION     NA48978   4.983  17.210  14.741  0.5024  0.2150  0.0872
32505ION     NA48979  13.680   9.091   3.198 -0.0286 -0.0949  0.1214
32506ION     NA48980  13.867  10.681   6.005 -0.1005 -0.1547  0.1964
32507ION     NA48981  14.071  15.209   5.866 -0.1786  0.0620  0.0031
32508ION     NA48982  18.064   5.830  10.409  0.1415  0.0610 -0.0543
32509ION     NA48983   8.465   3.156   3.298 -0.1693 -0.0178 -0.0583
32510ION     NA48984   8.080  12.308  10.182 -0.3348  0.2202  0.0068
32511ION     NA48985  16.519   1.424   5.822 -0.0945 -0.2063  0.1190
32512ION     NA48986  13.560  18.086   1.670 -0.5514 -0.1131 -0.0320
32513ION     NA48987   6.956   1.308   3.262 -0.1122 -0.1546  0.1499
32514ION     NA48988   7.186   2.221   0.410  0.1179  0.0639 -0.1403
32515ION     NA48989  12.978  10.942  11.065 -0.0346  0.0907  0.0323
32516ION     NA48990  15.030   9.497   3.098 -0.0872  0.0128  0.2455
32517ION     NA48991  12.368   4.289  11.064 -0.0185 -0.0811  0.1190
32518ION     NA48992   0.433   1.052  16.164  0.1643  0.1247  0.0177
32519ION     NA48993   5.168  18.175  11.555  0.0523 -0.1313 -0.0176
32520ION     NA48994   7.649   4.857  11.413 -0.2186 -0.0104 -0.0713
32521ION     NA48995   5.480  12.020  12.952  0.4394  0.0447  0.2121
32522ION     NA48996   7.931   1.973   1.331 -0.3019 -0.0250 -0.0278
32523ION     NA48997  13.530   0.331   5.945  0.1753 -0.1277 -0.2681
32524ION     NA48998   9.258   4.512   5.842  0.1736 -0.1070  0.4095
32525ION     NA48999   4.011   8.921   3.625 -0.0852 -0.0415  0.2654
32526ION     NA49000   4.275  15.633  10.638 -0.1565  0.1000 -0.2930
32527ION     NA49001   2.209   9.101   2.225  0.2495  0.2255 -0.2269
32528ION     NA49002   3.941   8.334  13.881 -0.0748 -0.2458  0.0307
32529ION     NA49003  11.628  16.666  13.276 -0.2520  0.1853  0.0420
32530ION     NA49004  12.867  13.485   3.774  0.1945  0.1307  0.0960
32531ION     NA49005  17.872   9.947  10.825 -0.1668  0.0647  0.0546
32532ION     NA49006   4.657   5.281   4.176  0.2466  0.0117  0.4354
32533ION     NA49007   4.279   8.284   5.561 -0.0722 -0.3706 -0.4308
32534ION     NA49008   1.862  11.599  16.287  0.2498  0.1567  0.1840
32535ION     NA49009   0.853   5.927  10.625  0.0872  0.1327 -0.0454
32536ION     NA49010   7.841  14.574  12.742 -0.0803 -0.3064  0.1905
32537ION     NA49011   6.702   7.054   1.150  0.0745 -0.0803 -0.2101
32538ION     NA49012  14.398   2.581  13.091  0.3305 -0.0134 -0.0952
32539ION     NA49013   9.513  12.407   0.535  0.0043 -0.1446  0.0295
32540ION     NA49014   4.542   0.918   3.610 -0.1624 -0.0557  0.1194
32541ION     NA49015  12.331   3.914  15.539 -0.0993 -0.1307  0.1463
32542ION     NA49016  14.911   3.279  15.613 -0.0370  0.0535  0.2688
32543ION     NA49017  11.435   4.132   6.002 -0.0767  0.2257 -0.2396
32544ION     NA49018  16.333   2.016   5.103  0.1711  0.0786 -0.2078
32545ION     NA49019   5.597   2.833  12.536  0.1559  0.0294  0.4341
32546ION     NA49020  15.505   3.799   1.520 -0.1693 -0.1322 -0.0233
32547ION     NA49021   7.400  11.689   1.341 -0.0586 -0.0158  0.2046
32548ION     NA49022  11.963   2.396  10.425  0.0089  0.2625  0.1092
32549ION     NA49023   3.193  10.095   5.912  0.0652 -0.2155 -0.1212
32550ION     NA49024  15.556  17.629   0.711 -0.0238 -0.1533 -0.1950
32551ION     NA49025  10.388   4.419   4.541 -0.0907 -0.0308  0.1762
32552ION     NA49026  16.933   3.632  13.788 -0.0162  0.2630  0.1810
32553ION     NA49027   5.713   8.529  15.455  0.1042 -0.0359 -0.2901
32554ION     NA49028  10.774  14.915  14.780 -0.1190  0.0195 -0.2802
32555ION     NA49029   8.453  11.117   0.721  0.0395 -0.0507 -0.1663
32556ION     NA49030   0.267  10.381   4.125  0.2319 -0.1081  0.1456
32557ION     NA49031   7.858  11.000   2.506 -0.0812  0.0045 -0.0808
32558ION     NA49032  12.360   5.435   2.407 -0.1957  0.1132 -0.0751
32559ION     NA49033   4.655   1.151   0.791 -0.1009 -0.0632  0.0930
32560ION     NA49034  10.426   5.673  12.434 -0.1117  0.0119  0.0204
32561ION     NA49035   7.103   0.101  10.647 -0.4311  0.0738 -0.2031
32562ION     NA49036   4.746  17.650  13.985 -0.0358 -0.0040  0.1773
32563ION     NA49037   5.679   2.041   5.097  0.2068 -0.1725 -0.1438
32564ION     NA49038   8.308  15.747  13.424 -0.0595  0.2389 -0.0279
32565ION     NA49039   8.962   2.568  11.500 -0.0042 -0.1299 -0.3694
32566ION     NA49040  15.111   9.933  10.840  0.3303  0.0044 -0.1564
32567ION     NA49041  12.657   5.017   5.739 -0.2335 -0.1078 -0.1391
32568ION     NA49042  12.030  10.327  14.187 -0.0309 -0.1190  0.0060
32569ION     NA49043   7.525   7.721   5.635  0.3641 -0.0274  0.3178
32570ION     NA49044   5.211   2.954   2.951  0.2084  0.0793 -0.0161
32571ION     NA49045  10.143   5.049  14.246 -0.1512 -0.0690  0.1404
32572ION     NA49046   1.941  13.371   5.762 -0.1263 -0.3433 -0.1473
32573ION     NA49047  17.814  11.743  13.957 -0.2320  0.2195  0.3270
32574ION     NA49048   2.012  11.702  10.658  0.1685 -0.2617  0.3001
32575ION     NA49049   8.680   8.898  10.423 -0.1786  0.0194  0.0463
32576ION     NA49050   1.053   5.538   0.601 -0.0820  0.1044 -0.2883
32577ION     NA49051   1.113  11.778   5.592  0.1288  0.3655 -0.1305
32578ION     NA49052  12.249   6.872  10.552  0.0966 -0.0766  0.2448
32579ION     NA49053  10.753   7.322   3.880  0.0624 -0.1556 -0.1363
32580ION     NA49054   0.041  15.934   5.397 -0.1854 -0.0466  0.2199
32581ION     NA49055   1.932   1.641  10.476  0.0439  0.0144 -0.0175
32582ION     NA49056  12.105  11.492   3.784 -0.0541  0.1964  0.2534
32583ION     NA49057   7.008  12.244  16.297 -0.0249  0.1451 -0.1774
32584ION     NA49058   8.322  17.209  14.882 -0.0448  0.0526  0.3306
32585ION     NA49059   3.892   7.506  10.665  0.2926  0.0579 -0.1759
32586ION     NA49060   6.223  10.562   5.504  0.0652 -0.2712  0.0657
32587ION     NA49061  16.634   7.609   2.271  0.1626  0.2129  0.0222
32588ION     NA49062   0.186   9.019  10.486 -0.0655 -0.0394 -0.0397
32589ION     NA49063   9.913  15.615   1.520 -0.0064  0.2678  0.2260
32590ION     NA49064  12.351   2.825   5.204 -0.1248  0.2949  0.1297
32591ION     NA49065  16.731  14.800   6.267 -0.2624  0.1234  0.1502
32592ION     NA49066   2.655  10.738  13.924 -0.0401 -0.0028  0.3367
32593ION     NA49067  10.667   4.723   0.977  0.1273  0.2539  0.1182
32594ION     NA49068   6.500   0.468   1.246 -0.2248  0.1336  0.1391
32595ION     NA49069   4.961  12.700  13.971  0.3804 -0.2246 -0.0154
32596ION     NA49070  14.250  10.889  12.920  0.0438 -0.1203 -0.1865
32597ION     NA49071  13.354   5.713   2.778  0.2124  0.1035  0.0158
32598ION     NA49072   6.813   2.973  10.829 -0.1379  0.1793 -0.0050
32599ION     NA49073   9.664   8.296   0.518  0.3294 -0.1708 -0.2223
32600ION     NA49074  12.863  15.258  12.534 -0.0727  0.0527  0.0800
32601ION     NA49075  13.157  14.230   5.731  0.0537  0.4004  0.0311
32602ION     NA49076  10.354   1.763  14.491 -0.2432 -0.0856  0.1703
32603ION     NA49077   4.207  13.330  15.376 -0.0576 -0.1748 -0.1275
32604ION     NA49078  11.982   2.233  16.081  0.2606 -0.0582  0.1168
32605ION     NA49079  14.581  15.977   0.875  0.2412 -0.0082 -0.4088
32606ION     NA49080   6.787   4.532   1.219  0.1114  0.0959  0.1103
32607ION     NA49081  10.596   9.172   3.210 -0.0197  0.2359  0.0074
32608ION     NA49082   6.364   3.457   1.126 -0.1733 -0.0788 -0.0129
32609ION     NA49083   2.715   6.690  14.219  0.0132 -0.0648  0.2129
32610ION     NA49084  16.064   0.739   5.756  0.0139  0.1117 -0.0899
32611ION     NA49085  13.470  15.760   0.346 -0.2610 -0.0670  0.0520
32612ION     NA49086   0.119   1.962   1.501 -0.0114  0.0557 -0.0545
32613ION     NA49087  15.538  10.684  10.669 -0.0702  0.3001 -0.1245
32614ION     NA49088  12.611   1.041   3.500 -0.1169  0.0969 -0.3413
32615ION     NA49089   0.987   6.708   6.152  0.1177  0.0452 -0.0267
32616ION     NA49090  18.023  14.497   2.817 -0.1542 -0.0479  0.1001
32617ION     NA49091   9.973   3.393   4.714  0.0261 -0.1958  0.1882
32618ION     NA49092  13.552  11.509   6.017 -0.1796  0.1379 -0.0731
32619ION     NA49093   5.034  12.297   2.787  0.0114 -0.1860  0.1731
32620ION     NA49094   3.667  10.841  10.433  0.2626  0.1978  0.0840
32621ION     NA49095  15.249  17.624   6.155  0.3276 -0.0772 -0.2220
32622ION     NA49096   1.184   0.470  16.021  0.1831 -0.3248  0.0257
32623ION     NA49097  14.894   7.447  13.914  0.0119  0.0615  0.1718
32624ION     NA49098   1.940   1.044  13.869  0.0564 -0.0911  0.1513
32625ION     NA49099   2.641   9.460   6.052  0.0639 -0.1122 -0.0566
32626ION     NA49100   2.638  13.319   3.924 -0.1956 -0.0650  0.0276
32627ION     NA49101  13.782   8.887  14.618  0.1984 -0.2725  0.2317
32628ION     NA49102   0.175   1.008   1.636  0.1623  0.0578  0.1519
32629ION     NA49103  11.768   2.009   5.397 -0.1585 -0.1877  0.1642
32630ION     NA49104   3.878   4.978  10.634 -0.0505  0.0498  0.0202
32631ION     NA49105  11.861   8.623   3.451  0.0562  0.2180  0.0693
32632ION     NA49106  11.139  13.648   4.761  0.0244 -0.0652  0.0260
32633ION     NA49107   2.338  16.699   5.667 -0.4483  0.1627  0.2258
32634ION     NA49108   9.467  11.463  11.918  0.3980  0.0361 -0.0245
32635ION     NA49109   0.690   0.403   5.868 -0.3273  0.1240  0.0206
32636ION     NA49110   8.240   3.967   0.908 -0.3986  0.2091  0.3227
32637ION     NA49111  13.923   3.361   2.096  0.1246  0.1357 -0.3255
32638ION     NA49112  15.522  11.762   2.702 -0.1645 -0.2530  0.0710
32639ION     NA49113   7.925  13.669   2.349 -0.1029 -0.1632  0.1787
32640ION     NA49114  11.988   1.069   2.843  0.0516  0.0409  0.0642
32641ION     NA49115   2.841  17.296  15.540  0.0233 -0.1417  0.0487
32642ION     NA49116  11.344  10.963   3.975 -0.1858  0.2866  0.2826
32643ION     NA49117  15.826   4.790   0.116  0.1136  0.0475 -0.1743
32644ION     NA49118   3.351  16.383   0.385 -0.2984  0.0373 -0.0865
32645ION     NA49119   4.972  17.466   3.247 -0.1305  0.3227  0.4668
32646ION     NA49120  10.619  14.174   1.609  0.3115 -0.1584  0.0316
32647ION     NA49121   4.916  17.273   4.384 -0.0146  0.0207  0.0203
32648ION     NA49122   2.386   7.422  10.409  0.5054 -0.2141 -0.1213
32649ION     NA49123   4.159  11.713  10.425  0.2206  0.4054  0.0350
32650ION     NA49124   0.539  18.101   1.714 -0.0354  0.0866  0.0776
32651ION     NA49125  11.781   9.630  10.565 -0.0157 -0.0205 -0.2147
32652ION     NA49126  14.795  13.586   1.463 -0.1023  0.2685  0.0872
32653ION     NA49127   7.851  12.986  15.471  0.2061 -0.1723 -0.1857
32654ION     NA49128  17.343   3.417   4.192  0.3146  0.0442  0.1386
32655ION     NA49129   1.764  12.003  13.643  0.3152  0.0250 -0.2761
32656ION     NA49130   9.300   4.226   0.947  0.1207  0.2531 -0.0830
32657ION     NA49131   8.062   0.404  15.929  0.2762  0.2152  0.1744
32658ION     NA49132  11.494   0.940   3.631 -0.0168  0.3050 -0.2730
32659ION     NA49133   5.136  16.892  13.813 -0.0211 -0.0468  0.0054
32660ION     NA49134   2.310   2.491  10.704 -0.1063  0.0257 -0.1255
32661ION     NA49135  14.755   3.889   4.614  0.2363 -0.4072 -0.0870
32662ION     NA49136  17.357  17.997  12.096 -0.1107  0.1158 -0.1591
32663ION     NA49137   2.655   3.996   1.145  0.1810 -0.0072 -0.0816
32664ION     NA49138  16.104  11.251   3.263  0.0632 -0.1739 -0.0052
32665ION     NA49139   7.746  15.342   4.459 -0.1698 -0.1858  0.1824
32666ION     NA49140   1.463  15.352   3.667  0.2322 -0.1477  0.1737
32667ION     NA49141  10.255   5.182   3.776  0.1581  0.3625  0.0563
32668ION     NA49142  16.603   0.924   3.042 -0.0615  0.0090 -0.0725
32669ION     NA49143  17.936  14.148  12.711  0.1887 -0.1919 -0.2726
32670ION     NA49144  15.842   8.123  15.287  0.2579  0.0087 -0.2130
32671ION     NA49145  12.961   1.103   5.855  0.0960 -0.2786  0.0355
32672ION     NA49146   8.345  10.696  10.261  0.1125  0.0308  0.1268
32673ION     NA49147   5.413  10.739  14.376  0.1853 -0.1573  0.2276
32674ION     NA49148  10.198   0.062   6.032 -0.0812  0.4527 -0.0491
32675ION     NA49149   1.133  15.953   0.484 -0.0445 -0.0114  0.0509
32676ION     NA49150  15.709   5.774   0.002 -0.3595  0.0178  0.1409
32677ION     NA49151   7.353  10.135   5.436 -0.0227  0.1090  0.0503
32678ION     NA49152  18.078   4.744   6.005 -0.0189  0.2924  0.1068
32679ION     NA49153  15.120   5.966   0.818  0.1084 -0.1245 -0.0931
32680ION     NA49154   1.188   3.577  11.998  0.2592  0.0853  0.0413
32681ION     NA49155  16.883   5.953  12.231 -0.1335  0.4172 -0.0016
32682ION     NA49156   1.216  10.839  15.499  0.0128  0.0632 -0.0403
32683ION     NA49157   1.599   7.809  10.290  0.1451 -0.2112 -0.1687
32684ION     NA49158   0.536  15.268   0.718  0.3185  0.2531 -0.2322
32685ION     NA49159  11.475  16.441   6.067  0.0801 -0.0410  0.0626
32686ION     NA49160   2.243  14.371   1.810  0.0947  0.1341  0.2869
32687ION     NA49161  12.858  11.353   2.657  0.4394  0.1228 -0.3012
32688ION     NA49162  15.910  15.607  15.387 -0.0896 -0.3120 -0.2916
32689ION     NA49163   6.466  13.796  13.145 -0.0701 -0.0400  0.1806
32690ION     NA49164   2.334  13.069   5.799 -0.1935  0.0084 -0.1403
32691ION     NA49165   1.939  10.107   6.205  0.0590 -0.0214 -0.0983
32692ION     NA49166   2.661  15.173   5.824 -0.4839 -0.0227 -0.0496
32693ION     NA49167   9.135   5.387   3.229  0.2091  0.3018  0.0628
32694ION     NA49168   4.122  15.907   5.258  0.1315 -0.1610  0.1559
32695ION     NA49169   5.284  12.085   1.283  0.0322  0.0411  0.2624
32696ION     NA49170   6.779   8.226  15.178 -0.0653  0.1276 -0.1434
32697ION     NA49171  11.758  10.702  10.460 -0.0840 -0.1703  0.0091
32698ION     NA49172  12.087   8.255  12.759  0.2976 -0.2373 -0.2374
32699ION     NA49173  11.640   3.964   0.195  0.0917 -0.1450 -0.0413
32700ION     NA49174   4.970  14.353   2.997  0.1008 -0.2342 -0.0975
32701ION     NA49175  10.547   0.989   6.076 -0.1747  0.1882  0.1209
32702ION     NA49176  18.063  15.834   1.689  0.1463  0.1761 -0.1124
32703ION     NA49177  12.568  10.703  15.452  0.0772  0.3339  0.0810
32704ION     NA49178  16.355   5.045  10.422  0.1189  0.1756  0.0760
32705ION     NA49179   7.549   3.501  10.692  0.2826  0.0045  0.1094
32706ION     NA49180   0.981  14.766  10.688 -0.0448  0.2102 -0.0630
32707ION     NA49181  10.422   1.906  13.636  0.0634  0.0230 -0.1554
32708ION     NA49182   5.517  16.386   5.916 -0.4471  0.2524  0.2000
32709ION     NA49183  11.639  12.769   6.189  0.0641 -0.1979  0.1408
32710ION     NA49184  13.124   4.521   4.205  0.1308  0.0542  0.0136
32711ION     NA49185   2.659   2.262   2.148  0.0642  0.0061 -0.2941
32712ION     NA49186   4.659   4.513   2.195  0.2161  0.3273  0.1601
32713ION     NA49187   7.871  14.153  10.631  0.0991 -0.1797  0.3679
32714ION     NA49188  10.770   7.675  14.240  0.0920 -0.1364  0.0979
32715ION     NA49189  16.396   8.349  16.197  0.2649  0.2039 -0.0520
32716ION     NA49190   9.687  15.141   0.098 -0.1394 -0.1989 -0.0866
32717ION     NA49191   5.747  11.183  13.244 -0.0426  0.0497  0.2495
32718ION     NA49192   5.306   9.981  15.288  0.0663 -0.0014  0.0318
32719ION     NA49193   7.964  16.452  10.925 -0.2128  0.3284  0.0419
32720ION     NA49194  13.333  12.031  15.899  0.3775  0.0401 -0.1882
32721ION     NA49195   5.483   4.259   1.671  0.1179  0.3582 -0.0304
32722ION     NA49196   2.282  17.678   5.884  0.1578  0.0503 -0.0411
32723ION     NA49197   1.044  11.897   1.596 -0.0550  0.0606  0.0925
32724ION     NA49198  16.995  11.595   0.368 -0.0240  0.1775  0.3296
32725ION     NA49199   3.406  12.005   1.306  0.0931 -0.1601 -0.1479
32726ION     NA49200   8.338  11.414  15.598  0.4009  0.2083 -0.3299
32727ION     NA49201   0.353   1.881  15.712 -0.0220  0.0104 -0.1027
32728ION     NA49202  13.029   7.570   1.142 -0.0435  0.1918  0.2876
32729ION     NA49203   4.725  10.823   0.728 -0.0897 -0.0251 -0.2176
32730ION     NA49204   7.198   6.759  10.673  0.0771  0.0820 -0.3705
32731ION     NA49205   0.861  11.417   4.655  0.0557  0.0842  0.0300
32732ION     NA49206   3.965   2.446  10.532 -0.0510  0.1363 -0.2300
32733ION     NA49207   5.826   9.328   5.730  0.0386  0.0840  0.5179
32734ION     NA49208  12.526  13.532   0.384 -0.0772  0.1815 -0.0032
32735ION     NA49209   5.315   3.979   4.051 -0.2304 -0.0092 -0.2613
32736ION     NA49210   6.296  18.053   6.019  0.1340  0.1152  0.0631
32737ION     NA49211  10.884  14.466   6.108  0.2006  0.1662 -0.1970
32738ION     NA49212  12.590   3.249   5.870 -0.0928 -0.1118  0.1980
32739ION     NA49213   8.956  15.892   1.906 -0.0547  0.2997 -0.3410
32740ION     NA49214   8.864   6.039   0.481  0.1344 -0.1466 -0.1574
32741ION     NA49215  11.085  11.444   2.951  0.0272 -0.0075  0.2044
32742ION     NA49216   2.000  12.138   1.599 -0.0671  0.2007 -0.3538
32743ION     NA49217  12.814  11.080   1.442 -0.0681 -0.1517 -0.1324
32744ION     NA49218  13.366   7.443   2.149 -0.0224 -0.0172  0.0841
32745ION     NA49219  16.342  11.960  11.890  0.0863  0.2338 -0.0140
32746ION     NA49220   5.254   7.764   1.786 -0.4458  0.0527 -0.0434
32747ION     NA49221  16.593   6.013  10.234  0.0636  0.2877  0.1613
32748ION     NA49222  10.455  16.200   5.071  0.2387  0.0490 -0.0618
32749ION     NA49223  12.159   9.168  14.037  0.3460 -0.0987 -0.1334
32750ION     NA49224  11.646   3.639   4.293  0.1922 -0.0276 -0.1270
32751ION     NA49225   6.584  10.145   4.242  0.1663  0.0584 -0.2207
32752ION     NA49226  15.683   2.190   4.162  0.0726  0.1380 -0.0673
32753ION     NA49227   2.526   5.663   2.200 -0.0390 -0.1917  0.0643
32754ION     NA49228   0.805   4.813  10.420  0.0599 -0.0139 -0.3272
32755ION     NA49229   9.207   9.824   1.665 -0.1303 -0.3342 -0.2092
32756ION     NA49230  12.146  10.279  12.526 -0.2003 -0.0974 -0.0094
32757ION     NA49231   7.627  14.018   5.698  0.0144  0.1019  0.2402
32758ION     NA49232  15.927   3.352   2.290  0.0410 -0.0855 -0.0282
32759ION     NA49233   0.450  14.128   0.129  0.3433 -0.0474  0.0869
32760ION     NA49234   3.819  10.465   4.298  0.2795  0.0901 -0.1806
32761ION     NA49235   6.469   9.857  11.885 -0.2641 -0.1546  0.2264
32762ION     NA49236  17.681   7.315   5.960 -0.2201  0.1942 -0.2115
32763ION     NA49237  15.712  12.068  12.924  0.1455  0.0397  0.2089
32764ION     NA49238   6.518   8.993  13.577  0.1472  0.0041  0.0253
32765ION     NA49239   1.155  17.655   2.255  0.0890  0.2420  0.0969
32766ION     NA49240   2.800   5.588   0.171  0.2085  0.1517 -0.1336
32767ION     NA49241  15.370   7.219  10.154 -0.0049  0.0673  0.1559
32768ION     NA49242  13.696  10.285  11.377 -0.0448  0.2483  0.2270
32769ION     NA49243  15.418   4.117   2.814  0.0342  0.0457  0.2893
32770ION     NA49244   3.390   1.828   2.381 -0.0257 -0.0053 -0.2138
32771ION     NA49245   2.864  17.145  10.749  0.0905  0.1037  0.2540
32772ION     NA49246   0.430   8.320  12.246  0.3610 -0.2417  0.1763
32773ION     NA49247  17.632  16.948  13.647  0.0517 -0.1494 -0.0801
32774ION     NA49248  12.577  14.350   0.270  0.1274 -0.1383 -0.2771
32775ION     NA49249   8.923  17.984  11.886 -0.1449 -0.0461  0.1757
32776ION     NA49250   3.496   4.008  10.641 -0.0587  0.2170 -0.1283
32777ION     NA49251   2.013   0.932   0.032 -0.0200 -0.1028 -0.2722
32778ION     NA49252   7.792   0.917   6.326  0.0356  0.1399 -0.0247
32779ION     NA49253   0.293  12.129   5.706 -0.0995  0.0385  0.0184
32780ION     NA49254  17.399   0.375   5.410  0.0657  0.0137  0.0262
32781ION     NA49255  13.727   7.882  12.950 -0.0301 -0.1071  0.1209
32782ION     NA49256   9.386   1.424  10.453  0.0360 -0.0152 -0.2068
32783ION     NA49257  14.478   3.167   3.481  0.1322  0.2730 -0.0482
32784ION     NA49258  15.210   3.104   4.762  0.2688 -0.0111  0.0282
32785ION     NA49259   3.794  12.276   4.332 -0.2802  0.0111 -0.2789
32786ION     NA49260  10.140   9.785  13.866  0.0377 -0.0490  0.0883
32787ION     NA49261  16.705   0.663  10.460 -0.1268 -0.0133  0.0712
32788ION     NA49262  17.510  17.304  10.409 -0.0797  0.0513 -0.1229
32789ION     NA49263  10.790  10.604  10.427  0.1208 -0.2360 -0.2316
32790ION     NA49264   5.653   4.556  15.689 -0.2531  0.2923  0.2131
32791ION     NA49265   1.011   1.723  10.772  0.2409  0.0872  0.0544
32792ION     NA49266   1.614   0.868  12.768  0.0145  0.1591 -0.0202
32793ION     NA49267   1.840   5.067  10.887 -0.1591  0.1656  0.1487
32794ION     NA49268   3.974  15.171   1.979 -0.1342  0.0384  0.0177
32795ION     NA49269   5.331   2.296  14.840 -0.0681  0.0112  0.0906
32796ION     NA49270   6.341   1.427  10.312  0.1289  0.1572 -0.2072
32797ION     NA49271  16.548   9.102   1.466 -0.2735  0.1540  0.1299
32798ION     NA49272   8.267  12.830   5.761 -0.1234 -0.1652 -0.1087
32799ION     NA49273  10.632   1.916  15.949 -0.0256  0.0406  0.0123
32800ION     NA49274  10.373  11.353   2.622 -0.2631  0.2079  0.0481
32801ION     NA49275   7.767  14.774   3.096  0.0578  0.0339  0.2740
32802ION     NA49276   6.178  11.860   0.331  0.0031 -0.2779 -0.0175
32803ION     NA49277  10.556   4.233   0.764 -0.0421  0.0294 -0.1718
32804ION     NA49278   1.353  13.319  14.494 -0.2088 -0.1611 -0.0115
32805ION     NA49279  11.787  15.782   0.342  0.0770  0.3157 -0.0610
32806ION     NA49280   6.242   1.025  11.452  0.2345  0.0991 -0.2055
32807ION     NA49281   9.468  17.217   3.149 -0.2732 -0.1259 -0.1908
32808ION     NA49282  11.164   9.487   1.527 -0.0625 -0.0698  0.0320
32809ION     NA49283  12.400   4.096   5.969 -0.1589 -0.1012  0.2346
32810ION     NA49284  16.438   3.023   5.526 -0.2182  0.0189  0.0729
32811ION     NA49285   0.776   9.113   0.084  0.0510  0.3566 -0.1957
32812ION     NA49286  12.435   8.982   4.523 -0.0943  0.0527  0.4027
32813ION     NA49287   8.710  15.218  16.018  0.1095  0.0280 -0.0099
32814ION     NA49288   2.477   1.755  14.191 -0.2141  0.0299 -0.4988
32815ION     NA49289   8.342  16.953  14.155  0.0073 -0.2009  0.0494
32816ION     NA49290  11.801   7.814   1.835 -0.1863  0.0380  0.2798
32817ION     NA49291   4.985   0.163  13.607 -0.2593  0.0491  0.2606
32818ION     NA49292  13.406  13.448   2.842  0.2061  0.1468 -0.3927
32819ION     NA49293  10.452   4.250  10.616 -0.1295 -0.3407  0.1802
32820ION     NA49294   2.332   6.007   5.614  0.1115  0.1053  0.0135
32821ION     NA49295  12.335  17.222  15.447  0.1119 -0.1133  0.0917
32822ION     NA49296   8.176  11.949   0.797  0.0158  0.0284 -0.1593
32823ION     NA49297   9.931  14.919  13.103  0.2168 -0.1291 -0.0242
32824ION     NA49298   7.649  17.265  16.330  0.1001 -0.1835  0.0939
32825ION     NA49299  16.864   9.476   5.970  0.0174  0.0637  0.1078
32826ION     NA49300   0.111  15.101   0.458 -0.0560 -0.0694 -0.4327
32827ION     NA49301   5.781   0.723  10.456  0.0653  0.2422  0.0853
32828ION     NA49302  11.351   6.337  12.998 -0.0724  0.0285  0.0349
32829ION     NA49303   8.135   0.524  13.378  0.0966  0.2147 -0.1200
32830ION     NA49304  12.784  16.713  14.559  0.4025  0.0336  0.3059
32831ION     NA49305  17.702  15.748  15.952  0.0397  0.2032  0.0916
32832ION     NA49306  12.765   8.938   5.576  0.0208  0.1227 -0.1125
32833ION     NA49307   4.670  10.505  10.438  0.1225 -0.0507  0.4197
32834ION     NA49308  13.390   9.988   6.112  0.3119 -0.0394  0.1441
32835ION     NA49309   5.019   2.920   5.279  0.2040  0.0936 -0.0824
32836ION     NA49310  12.657   6.636   4.563 -0.0462  0.0230 -0.1043
32837ION     NA49311   0.572   3.948   5.471 -0.1546 -0.1739  0.3611
32838ION     NA49312  13.234   1.832   4.660  0.0450  0.0572  0.0741
32839ION     NA49313  15.895  16.963   5.934 -0.0043  0.0024  0.0320
32840ION     NA49314   3.655  12.410  13.856  0.1475 -0.0359  0.1307
32841ION     NA49315  18.000   0.922  13.425 -0.5404  0.1815  0.0858
32842ION     NA49316   5.866   5.679   5.565  0.1016  0.1406  0.1967
32843ION     NA49317  12.570  17.205   3.821  0.0309  0.1404  0.0278
32844ION     NA49318  15.565   6.090  13.512 -0.0906 -0.0354  0.1699
32845ION     NA49319  14.655   5.167  15.869  0.1263 -0.0055  0.1157
32846ION     NA49320   8.754  13.685   4.277 -0.3408 -0.0424  0.1897
32847ION     NA49321   4.344   7.320   5.347 -0.0161  0.2861  0.0761
32848ION     NA49322  12.841  12.797  10.770 -0.1480 -0.2336  0.0363
32849ION     NA49323   1.604   5.185   2.084  0.4288 -0.3179 -0.0786
32850ION     NA49324  10.608   8.637   5.937  0.0601  0.0009 -0.2146
32851ION     NA49325   2.360   9.931  10.480 -0.1534  0.1917  0.2376
32852ION     NA49326   8.556  13.007   0.213  0.1280 -0.1948  0.0519
32853ION     NA49327   2.604  17.411   0.094 -0.0117  0.2002 -0.0786
32854ION     NA49328  13.784  11.511  10.970  0.2728 -0.0318 -0.2138
32855ION     NA49329   9.585  12.784  14.234 -0.0474 -0.1382  0.1071
32856ION     NA49330  10.302  17.166  14.775  0.0008  0.1479 -0.2389
32857ION     NA49331   5.192   2.689   6.156 -0.3067  0.1584  0.1055
32858ION     NA49332   0.032   3.206   1.680  0.3402 -0.0244 -0.2060
32859ION     NA49333   6.119   3.670  12.738 -0.0496 -0.1354  0.1510
32860ION     NA49334  15.114   9.239  14.320 -0.0571  0.0431 -0.0903
32861ION     NA49335  14.954   3.283   5.462  0.1388  0.0311 -0.0253
32862ION     NA49336   7.877   6.957  14.387 -0.0840  0.4665 -0.2716
32863ION     NA49337   2.778  12.495  13.775 -0.0827  0.0328  0.1461
32864ION     NA49338   3.233   7.195   5.760 -0.2117  0.0590 -0.0250
32865ION     NA49339  15.430  17.390   4.747  0.2538 -0.0563  0.1073
32866ION     NA49340  11.337   2.925  10.702  0.0047 -0.0768  0.0304
32867ION     NA49341  15.049  13.517  14.606  0.1444  0.1220  0.2050
32868ION     NA49342  10.216  11.666  15.960  0.4119  0.0642  0.0586
32869ION     NA49343  10.031   6.176  13.616  0.1684 -0.1454 -0.0138
32870ION     NA49344  11.860   9.801   5.222 -0.2777 -0.2335 -0.1081
32871ION     NA49345  11.125  16.151  10.471  0.2396 -0.0389  0.0900
32872ION     NA49346  16.356  10.752  10.874 -0.0588  0.0462  0.2342
32873ION     NA49347  14.134   2.127   0.131  0.3442 -0.1442  0.2267
32874ION     NA49348   4.881   6.746   2.967  0.1446  0.0864  0.0145
32875ION     NA49349   8.668   1.947   6.070 -0.0631 -0.1266 -0.0659
32876ION     NA49350   2.048  18.010   2.447 -0.2365  0.1212  0.2901
32877ION     NA49351   6.863  15.879  14.513 -0.2025  0.2511  0.0682
32878ION     NA49352  12.967  17.684   5.459  0.2961 -0.1320 -0.0659
32879ION     NA49353   8.518   2.975  12.115 -0.2004 -0.2418 -0.1053
32880ION     NA49354  14.959   3.860  16.332  0.0893  0.1686 -0.1811
32881ION     NA49355   1.376  14.198   5.949  0.0469  0.3161  0.1544
32882ION     NA49356   0.237   1.723   0.779 -0.0104 -0.3298  0.4518
32883ION     NA49357   2.573   8.248  13.333  0.1510  0.0015 -0.1508
32884ION     NA49358   8.704  10.669   2.039 -0.0349  0.0752 -0.0828
32885ION     NA49359  13.267   4.372  10.678  0.1722 -0.0354 -0.0914
32886ION     NA49360   9.144   0.618   6.235  0.0947 -0.3175  0.2044
32887ION     NA49361   0.137  14.638  10.517 -0.0821 -0.2184 -0.0754
32888ION     NA49362  11.293   3.329   2.631 -0.0210 -0.0987 -0.2360
32889ION     NA49363   0.738  14.249  13.049 -0.1038 -0.1548  0.2106
32890ION     NA49364  16.903   8.722   2.475 -0.1614 -0.3496  0.2900
32891ION     NA49365  14.817  18.009  13.164 -0.2270  0.1065  0.2612
32892ION     NA49366  14.393   6.558   5.970 -0.1080 -0.0675  0.1624
32893ION     NA49367  17.754   3.986  10.256  0.3448  0.2379 -0.0248
32894ION     NA49368  16.113  17.395   5.858  0.1121  0.0625  0.3332
32895ION     NA49369  11.271   8.203  13.159  0.1725 -0.0604 -0.0338
32896ION     NA49370   0.336   7.545   0.815  0.0500  0.0465 -0.0456
32897ION     NA49371  15.582  14.556  14.067 -0.0430  0.0296  0.0387
32898ION     NA49372   3.352   7.019  10.471  0.2048  0.0779  0.2104
32899ION     NA49373   4.374   2.987   6.018 -0.1377 -0.0454 -0.0432
32900ION     NA49374  12.579  17.048   6.163  0.0307  0.0680  0.0168
32901ION     NA49375  11.529  16.694   2.452  0.1896 -0.0445 -0.0685
32902ION     NA49376  12.976   5.217  10.591  0.2467 -0.0903 -0.1044
32903ION     NA49377  13.139  10.621   4.712  0.3798 -0.0373 -0.3103
32904ION     NA49378  14.877   6.318  10.379  0.0881 -0.0761  0.1358
32905ION     NA49379   0.627  16.881  10.873  0.0860  0.1934 -0.1523
32906ION     NA49380  17.315  16.393   3.886  0.1715  0.3581 -0.2055
32907ION     NA49381   4.741  14.415  15.465  0.1317 -0.1281  0.1386
32908ION     NA49382  14.614  11.798   5.877 -0.1572 -0.1022 -0.0420
32909ION     NA49383  13.508  12.563  14.641 -0.2951  0.2773  0.2001
32910ION     NA49384   5.861  12.830   3.810 -0.1062  0.0558 -0.0273
32911ION     NA49385   2.703   4.773  15.839 -0.2000  0.0831 -0.2247
32912ION     NA49386  14.505   6.974   3.388  0.1279 -0.0850  0.0377
32913ION     NA49387  13.039  12.829  13.079  0.1303 -0.3299 -0.1011
32914ION     NA49388  16.498  12.370  14.787  0.0071 -0.2574  0.1470
32915ION     NA49389  14.493   1.375   2.218 -0.1171 -0.0556 -0.2607
32916ION     NA49390  17.729  14.371   5.940  0.0241 -0.3671 -0.2073
32917ION     NA49391   3.916   6.989  14.268 -0.1153 -0.2292  0.0025
32918ION     NA49392  17.371  13.244  11.263  0.3956  0.3283 -0.0957
32919ION     NA49393   9.953   3.458   0.663  0.0422  0.3250 -0.0967
32920ION     NA49394   7.519   4.106  10.797 -0.0260 -0.5352 -0.1185
32921ION     NA49395   9.878  16.254   4.003 -0.0370  0.0100  0.0483
32922ION     NA49396   3.397  13.526  10.641 -0.2957 -0.2583 -0.3228
32923ION     NA49397  14.424  17.265   6.132  0.1914  0.1403 -0.1164
32924ION     NA49398  11.469   0.065  15.147 -0.0088 -0.0143 -0.0817
32925ION     NA49399   1.579   0.876   2.332  0.2039  0.0371 -0.1535
32926ION     NA49400   1.365  13.514   5.156 -0.0342 -0.0117  0.0795
32927ION     NA49401   7.753  15.095  12.500  0.0845  0.0723  0.0681
32928ION     NA49402   2.560   6.462  10.554 -0.2243 -0.1726 -0.1180
32929ION     NA49403  15.306  12.280   0.257  0.0006 -0.1403 -0.2711
32930ION     NA49404   0.340  13.763  14.565 -0.1329 -0.0202 -0.0563
32931ION     NA49405   2.873   4.654   2.735 -0.1394 -0.3734  0.1716
32932ION     NA49406   5.989   2.365   1.694 -0.0824  0.2248  0.0170
32933ION     NA49407   9.695  18.028   6.101 -0.1537  0.2797  0.3360
32934ION     NA49408  17.573  12.563   1.072 -0.2738 -0.0379 -0.0686
32935ION     NA49409   7.624   4.437   1.684  0.0954 -0.1260 -0.1289
32936ION     NA49410   4.809   8.505  13.777  0.0812  0.1220 -0.1413
32937ION     NA49411   4.576  15.873  15.430 -0.0637  0.2190 -0.0347
32938ION     NA49412   6.285   9.276  14.498 -0.0358 -0.0107  0.1216
32939ION     NA49413  11.581  15.914  15.451 -0.1375  0.1267  0.2595
32940ION     NA49414   9.806   3.727  10.616 -0.1594  0.0010 -0.1797
32941ION     NA49415   1.342  17.418  14.395  0.2225  0.3961 -0.2286
32942ION     NA49416  17.176   0.092   2.702 -0.0371  0.1552 -0.0643
32943ION     NA49417  15.906   7.316   0.441  0.0452 -0.0297 -0.2320
32944ION     NA49418  15.643   3.412  10.388 -0.2434 -0.2222  0.0099
32945ION     NA49419   3.521  17.132  14.679  0.3031 -0.3216 -0.2364
32946ION     NA49420   3.210   1.028   5.614 -0.1769 -0.1173 -0.0518
32947ION     NA49421   5.130   9.954   2.513  0.0606  0.1790 -0.1390
32948ION     NA49422  15.703  13.059   3.681 -0.3783 -0.0944  0.1638
32949ION     NA49423  11.119  17.435   5.876 -0.1701  0.1506 -0.3769
32950ION     NA49424  12.337   2.829   2.862  0.5427  0.0557  0.1829
32951ION     NA49425   1.810   0.448   4.831  0.0380  0.1685  0.1275
32952ION     NA49426  14.526  14.032  10.691  0.0741 -0.0202  0.2388
32953ION     NA49427  12.801  16.151  16.247  0.1340  0.1923  0.0442
32954ION     NA49428  11.339   3.998  10.704 -0.1335 -0.0314  0.1088
32955ION     NA49429   5.485  13.564  15.864  0.0435  0.0582 -0.1911
32956ION     NA49430   6.410   2.041  14.035 -0.1892 -0.1942 -0.1270
32957ION     NA49431  15.678  13.431  14.637  0.2804  0.2619 -0.0584
32958ION     NA49432   0.943  15.726  10.769 -0.1486 -0.0209 -0.0649
32959ION     NA49433   2.729   6.979   2.399 -0.2050  0.0060 -0.0636
32960ION     NA49434   4.711   5.550  10.679  0.2131 -0.2161  0.0419
32961ION     NA49435  13.980  16.481   0.092  0.4570 -0.0285  0.0864
32962ION     NA49436   4.445   6.521  15.918 -0.3377  0.1880  0.0806
32963ION     NA49437   8.627   6.747   0.993  0.0528 -0.3780 -0.2806
32964ION     NA49438   2.535   4.392  10.679 -0.1040  0.6879  0.3284
32965ION     NA49439  16.073  13.126  15.523  0.1586 -0.1702  0.1188
32966ION     NA49440   5.438   5.829  11.955  0.1787  0.2116  0.2040
32967ION     NA49441  10.471   5.108   6.192  0.1323  0.0527  0.2418
32968ION     NA49442  13.214  12.338   6.032  0.1468 -0.0232 -0.0195
32969ION     NA49443   2.041  14.626  15.761  0.3407  0.0669  0.1268
32970ION     NA49444  13.227   8.964   3.415  0.0194  0.0871 -0.0848
32971ION     NA49445  13.262   8.420   4.197 -0.1415  0.0546  0.0645
32972ION     NA49446   6.749   7.536   2.348 -0.1715 -0.0093 -0.3874
32973ION     NA49447   7.977  13.890   1.177  0.2445  0.3351 -0.0357
32974ION     NA49448   7.182   6.365   2.445 -0.1409  0.2891 -0.0127
32975ION     NA49449   2.805   7.454   0.939 -0.0278 -0.2528  0.0646
32976ION     NA49450  14.600  15.948   2.543  0.1259 -0.1772 -0.0139
32977ION     NA49451   3.051   3.460  16.074  0.0974 -0.0086 -0.1471
32978ION     NA49452  13.074  14.549   2.510 -0.0610 -0.2281 -0.1629
32979ION     NA49453   7.224  14.990   5.556  0.1728 -0.1083  0.0916
32980ION     NA49454   0.757   0.868  13.410  0.0888  0.1925  0.0466
32981ION     NA49455  15.080   2.499  10.438  0.1908  0.1108 -0.1778
32982ION     NA49456  11.685  15.833   4.606  0.2428  0.0656 -0.0558
32983ION     NA49457   8.891   3.713   5.735 -0.1467 -0.1591  0.1603
32984ION     NA49458   9.958   0.411   1.785 -0.1795 -0.0862 -0.2339
32985ION     NA49459  18.015  11.223  10.616  0.3303 -0.1398 -0.0745
32986ION     NA49460  15.538  13.956  10.686  0.0767  0.0468 -0.0757
32987ION     NA49461   9.438   7.030   1.324 -0.1482 -0.0673 -0.2032
32988ION     NA49462  13.421  15.311  13.711  0.2274 -0.1432 -0.0837
32989ION     NA49463  16.956  11.975   2.365 -0.0192  0.0897 -0.2339
32990ION     NA49464   5.876   2.011   6.011 -0.2294  0.1506 -0.0450
32991ION     NA49465   2.045   0.806  11.808 -0.0989 -0.0696  0.1401
32992ION     NA49466   9.770   1.560   4.780  0.2337 -0.1957 -0.0616
32993ION     NA49467  10.780  10.506   2.954 -0.1678  0.1357  0.3021
32994ION     NA49468  11.822   0.688   5.765  0.0065 -0.1225  0.3840
32995ION     NA49469   8.970  15.309  10.627 -0.1298  0.0360 -0.2144
32996ION     NA49470  11.038   1.935  12.735 -0.0422  0.3186 -0.0740
32997ION     NA49471   2.036  11.076   5.781 -0.0391 -0.3461  0.0550
32998ION     NA49472   4.193   4.764   0.463  0.3645  0.4866  0.0267
32999ION     NA49473  17.522   0.115  10.418  0.0755  0.1183  0.0194
33000ION     NA49474   6.020  11.505   5.099 -0.0907 -0.0057  0.1677
33001ION     NA49475   0.542   4.002  15.949  0.3668 -0.1252 -0.0006
33002ION     NA49476  10.911  15.640   6.256  0.3065  0.0289  0.3849
33003ION     NA49477  11.625   2.824   5.891 -0.0220 -0.0916 -0.2710
33004ION     NA49478  14.302  12.463  14.255  0.0404 -0.0636  0.0584
33005ION     NA49479   6.417   5.871   6.159  0.1515  0.0178  0.0678
33006ION     NA49480   0.724   9.897  10.774  0.1186 -0.0027  0.0126
33007ION     NA49481   2.269   9.027  13.274  0.1880 -0.1555  0.0732
33008ION     NA49482  16.476   3.691   5.665 -0.1129 -0.0458  0.2142
33009ION     NA49483  11.913  14.752   0.492 -0.0851  0.3013 -0.4649
33010ION     NA49484   4.249  17.685  12.287 -0.0852 -0.0699 -0.0522
33011ION     NA49485   0.457   1.506  12.790  0.1258  0.1106 -0.1929
33012ION     NA49486   3.448  11.526   0.418  0.0404 -0.0648 -0.1098
33013ION     NA49487   8.383   2.723  13.124  0.0852  0.2522  0.0018
33014ION     NA49488  11.040   4.628   4.092 -0.2531  0.1673 -0.2126
33015ION     NA49489   3.489  14.866  16.179  0.0339  0.0493  0.0043
33016ION     NA49490  16.286  11.359   0.449 -0.2904  0.1735  0.0835
33017ION     NA49491  12.329   8.015   4.457 -0.0797  0.2344 -0.0969
33018ION     NA49492  16.958  18.070   0.349 -0.0880  0.3822  0.2950
33019ION     NA49493   4.705   3.480   0.613  0.1099  0.2845  0.0522
33020ION     NA49494  11.451  14.424   3.550 -0.0744 -0.0774 -0.0325
33021ION     NA49495  17.958  12.784   5.820 -0.2398 -0.1057 -0.1823
33022ION     NA49496   0.883   6.764   2.356 -0.3364 -0.1130  0.2459
33023ION     NA49497   6.238   7.633  10.475 -0.2240  0.1303  0.0069
33024ION     NA49498  12.574  10.278   5.768  0.0859 -0.0590  0.0302
33025ION     NA49499  17.553   5.444   5.689  0.2027 -0.0590 -0.1538
33026ION     NA49500   2.036   3.036  12.939 -0.3966  0.3905  0.0016
33027ION     NA49501   3.816  16.766  10.752  0.0487  0.2424  0.0498
33028ION     NA49502   5.802  12.177  12.063 -0.0725  0.3025 -0.2623
33029ION     NA49503  14.783  16.299   4.615  0.0113  0.1156 -0.0180
33030ION     NA49504   8.261  11.227   3.498  0.1016  0.2592  0.0345
33031ION     NA49505   6.217  10.613  15.013  0.1556  0.0040 -0.0826
33032ION     NA49506   5.149   7.628   5.591 -0.1551 -0.2827  0.1217
33033ION     NA49507  12.491   4.363  10.561 -0.1501  0.1862  0.1124
33034ION     NA49508   5.506   6.465  13.769 -0.5394  0.0044  0.4105
33035ION     NA49509   2.419   1.932  15.115  0.0969  0.0329  0.1154
33036ION     NA49510   2.792   2.650  15.594 -0.1108 -0.0580  0.5298
33037ION     NA49511   5.274  12.513  10.391  0.0743  0.1819  0.3842
33038ION     NA49512  13.499  13.157   0.967 -0.0740 -0.0109  0.0177
33039ION     NA49513  17.140   9.115   3.063  0.0415 -0.0466 -0.2025
33040ION     NA49514   8.782   1.778   0.969  0.1283 -0.0291  0.4931
33041ION     NA49515   6.573  17.051  15.597 -0.0186 -0.2945  0.2205
33042ION     NA49516   4.804   3.489  10.624  0.0391  0.0254  0.0435
33043ION     NA49517  11.558   8.666  14.712 -0.2922  0.1873 -0.2824
33044ION     NA49518   0.357   8.621   5.911  0.1692  0.1799 -0.2262
33045ION     NA49519  13.514  15.121   3.120 -0.0091  0.1434  0.1061
33046ION     NA49520   2.550  11.249   2.991  0.2348 -0.1529 -0.1709
33047ION     NA49521   1.895  10.569   6.038  0.5288 -0.3022 -0.0579
33048ION     NA49522   2.500  13.016   0.909 -0.1106 -0.1153  0.0178
33049ION     NA49523   5.608   7.324   3.894  0.1255 -0.1333  0.0188
33050ION     NA49524  14.158   2.678   5.657  0.0271  0.2960  0.0848
33051ION     NA49525   1.475  13.286   3.224 -0.1087 -0.0291 -0.0217
33052ION     NA49526   6.372   9.387   1.028  0.0184 -0.0757  0.0880
33053ION     NA49527   9.145  17.075   1.528 -0.2056  0.1524  0.0941
33054ION     NA49528   0.423  15.628  11.646  0.0831  0.1951  0.0617
33055ION     NA49529   0.676   8.534   1.682  0.1661 -0.1134 -0.4938
33056ION     NA49530  13.650   9.349   5.754 -0.2340 -0.1874 -0.1195
33057ION     NA49531   6.185   5.774  10.648 -0.3725  0.0698 -0.2253
33058ION     NA49532  10.302   9.315   0.913 -0.0687  0.2911 -0.0425
33059ION     NA49533  16.914   4.538   5.691 -0.1964  0.0539 -0.0964
33060ION     NA49534   8.817   8.097   0.926  0.1910  0.2174 -0.0424
33061ION     NA49535   7.103  11.242  10.509  0.2901 -0.0989 -0.0004
33062ION     NA49536  14.286  12.143   1.172  0.1775  0.3505 -0.1586
33063ION     NA49537   5.642  11.018   0.538  0.2196  0.0388 -0.1593
33064ION     NA49538   8.659   5.357  15.748  0.1512  0.0607  0.0270
33065ION     NA49539  10.353  10.026  14.751 -0.0407  0.1361 -0.3636
33066ION     NA49540  11.816   5.361   3.280  0.1610  0.1874  0.1054
33067ION     NA49541  11.071  11.293   5.795  0.1386 -0.0968 -0.1918
33068ION     NA49542   2.900   5.010   5.947  0.2230  0.0402  0.2564
33069ION     NA49543  13.570   9.218   1.254  0.1341 -0.3004  0.4100
33070ION     NA49544  16.014  16.828  12.356  0.1802 -0.0027  0.0767
33071ION     NA49545  14.277   2.352   2.025 -0.1285 -0.2093  0.0832
33072ION     NA49546  11.629   5.827  10.650  0.2722 -0.1722  0.0221
33073ION     NA49547   1.019  15.429  13.826  0.0773  0.0816 -0.0518
33074ION     NA49548   7.845   0.197   1.230  0.1282  0.0624 -0.1415
33075ION     NA49549   0.952   2.764   3.039 -0.1529  0.0737  0.3375
33076ION     NA49550  13.623  13.558   5.681  0.1344 -0.0249  0.1065
33077ION     NA49551  15.638   5.947   2.876 -0.2656 -0.2155  0.1092
33078ION     NA49552  16.864  12.701  10.617  0.1023 -0.1679 -0.2204
33079ION     NA49553  15.207  13.564   5.602 -0.2730  0.3665 -0.0521
33080ION     NA49554  13.081  16.197  10.366  0.0057 -0.2792 -0.0494
33081ION     NA49555  14.538  14.965  10.529  0.1105  0.0860  0.0222
33082ION     NA49556  15.458   7.104  14.588 -0.1836  0.4957  0.1857
33083ION     NA49557  11.801   8.762  10.532 -0.1412  0.2841 -0.3625
33084ION     NA49558  11.038   8.196   2.312 -0.0862  0.0253 -0.0162
33085ION     NA49559  15.245   7.509   2.767 -0.0948  0.0047 -0.0381
33086ION     NA49560   0.567   7.195  10.478 -0.3184 -0.2147 -0.0151
33087ION     NA49561   3.043   9.857   2.121  0.2463  0.0599 -0.1042
33088ION     NA49562  15.187  13.045  13.044  0.0890  0.2560  0.0158
33089ION     NA49563  12.943   8.722   1.467  0.0820 -0.1853  0.0787
33090ION     NA49564   9.925   5.086  13.203  0.1043 -0.1488 -0.1583
33091ION     NA49565  17.827   5.089  12.632  0.1804  0.0530 -0.0042
33092ION     NA49566  16.852  13.442   5.685  0.0270  0.0321 -0.0103
33093ION     NA49567   2.567  15.547   2.979  0.1044  0.1401  0.0054
33094ION     NA49568   0.266   8.406  15.444  0.0680  0.1612 -0.0645
33095ION     NA49569   0.350   6.741   0.353 -0.0591  0.2268 -0.1380
33096ION     NA49570   0.789   3.726   0.903  0.2213 -0.2701  0.1086
33097ION     NA49571   6.263  14.957  10.869  0.0130  0.0433 -0.1571
33098ION     NA49572   2.927   6.252   4.539 -0.1049 -0.3434 -0.1120
33099ION     NA49573  17.861  14.139  14.080 -0.0753  0.0514 -0.2196
33100ION     NA49574   9.759  16.286  15.018 -0.0922 -0.1599 -0.1191
33101ION     NA49575   7.360  11.586   5.491  0.3416  0.0011 -0.0125
33102ION     NA49576   0.620   9.851  12.937  0.1196 -0.1203  0.2061
33103ION     NA49577  14.667   2.477   5.760  0.3497  0.1214 -0.0653
33104ION     NA49578   6.877   1.959  10.695  0.1486 -0.0452 -0.4084
33105ION     NA49579  12.014   7.885   5.606  0.0229 -0.3024  0.1339
33106ION     NA49580   4.690  13.743  13.556 -0.2806 -0.3954 -0.2769
33107ION     NA49581   7.317  16.340   6.341  0.2518  0.0428 -0.0283
33108ION     NA49582   4.126   3.232   5.323  0.2488 -0.1301  0.0018
33109ION     NA49583  10.252  17.286   6.137 -0.3318  0.3857 -0.0133
33110ION     NA49584   8.214   0.842  14.897  0.0983  0.3543 -0.0225
33111ION     NA49585   8.147   4.363   5.834  0.0649 -0.0526  0.1466
33112ION     NA49586  13.994   8.605   2.397  0.3019  0.0485 -0.0829
33113ION     NA49587  14.685   0.658   3.346  0.2627 -0.0319 -0.0578
33114ION     NA49588  13.210  15.879   6.184 -0.1751  0.2395  0.0058
33115ION     NA49589   4.356   7.945  10.534 -0.0603  0.0468  0.1365
33116ION     NA49590  13.953   6.504   4.014  0.3403 -0.1295 -0.1099
33117ION     NA49591  15.679   8.666  10.773  0.1804 -0.2117 -0.1775
33118ION     NA49592  10.745   5.877  10.553 -0.1224  0.1311 -0.1569
33119ION     NA49593  15.227   7.272   1.743 -0.0399  0.0447 -0.1258
33120ION     NA49594   0.019  13.657   3.125  0.1195 -0.3589 -0.0513
33121ION     NA49595  11.274  10.712   0.317  0.0652  0.1529  0.4081
33122ION     NA49596  15.780  17.774  11.408  0.2077 -0.1421 -0.3774
33123ION     NA49597  18.034   4.794  10.183 -0.0651  0.3340  0.0841
33124ION     NA49598   5.889   7.126   1.994 -0.1538  0.1876 -0.1599
33125ION     NA49599  17.911  10.794   0.854 -0.1579 -0.2190 -0.2113
33126ION     NA49600   3.110  11.199  14.618 -0.2439 -0.0080 -0.1937
33127ION     NA49601  17.287   3.203   5.797  0.2198 -0.0428 -0.2872
33128ION     NA49602   4.473  17.208   2.601 -0.1616  0.1307 -0.2589
33129ION     NA49603   2.776  14.282   4.557  0.2064 -0.0939  0.1057
33130ION     NA49604  17.914  12.626  13.624  0.0856 -0.1945  0.1801
33131ION     NA49605   3.829   3.895   3.729  0.1087  0.4911 -0.2219
33132ION     NA49606   1.522  10.280  10.553  0.3846  0.1165 -0.0095
  18.17929  18.17929  16.37021
