INSANE! Membrane UpperLeaflet>loPI:POPI:DPPI:PYPI:ERGO=180.0:5.0:3.0:2.0:10.0 LowerLeaflet>PSPI:POPI:POPS:YOPS:POPE:YOPE:POPC:YOPC:ERGO=6.0:14.0:21.0:9.0:9.0:21.0:12.0:48.0:60.0
49606
    1loPI    C1    1  13.958  18.111  10.360  0.0002  0.0804  0.0034
    1loPI    C2    2  14.336  18.070  10.236  0.0659 -0.3234  0.3176
    1loPI    C3    3  14.257  18.275  10.570 -0.0204 -0.0342  0.1233
    1loPI   PO4    4  13.797  18.140  10.032  0.0477  0.2379 -0.1543
    1loPI   GL1    5  13.682  18.213   9.646 -0.0762  0.0635  0.0734
    1loPI   GL2    6  13.371  18.132   9.549  0.0717  0.2316  0.2936
    1loPI   C1A    7  13.856  18.144   9.292  0.0792 -0.2373 -0.0883
    1loPI   C2A    8  13.852  18.128   8.792  0.0589 -0.0178 -0.1754
    1loPI   C3A    9  13.938  18.012   8.459  0.0061  0.0408 -0.0724
    1loPI   C4A   10  13.879  18.059   8.036 -0.1533 -0.0641 -0.0008
    1loPI   C5A   11  13.923  18.312   7.749 -0.4375  0.2013  0.0599
    1loPI   C6A   12  13.617  18.612   7.562 -0.1877 -0.0399  0.1181
    1loPI   C1B   13  13.422  18.143   9.147 -0.1726 -0.1827 -0.0904
    1loPI   C2B   14  13.428  17.982   8.691  0.2085  0.1394  0.3157
    1loPI   C3B   15  13.389  17.994   8.216 -0.1603 -0.2993 -0.1308
    1loPI   C4B   16  12.895  18.008   7.992 -0.1337 -0.0040  0.0647
    2loPI    C1   17  17.221  18.304  10.346 -0.1467  0.0867  0.1386
    2loPI    C2   18  17.227  18.668  10.513  0.1696  0.0758  0.1569
    2loPI    C3   19  17.156  18.346  10.738 -0.2295  0.1336  0.1200
    2loPI   PO4   20  17.154  18.386  10.050 -0.0804  0.0072  0.1247
    2loPI   GL1   21  17.299  18.399   9.711  0.0116  0.0113 -0.0822
    2loPI   GL2   22  17.555  18.214   9.707 -0.0885 -0.0659 -0.2135
    2loPI   C1A   23  17.383  18.217   9.224 -0.1295 -0.0398 -0.1387
    2loPI   C2A   24  17.300  18.403   8.898  0.1993  0.0851  0.0373
    2loPI   C3A   25  17.280  18.469   8.479  0.0468  0.0589  0.0994
    2loPI   C4A   26  17.177  18.755   8.124 -0.1493  0.1245 -0.1617
    2loPI   C5A   27  16.991  18.725   7.720 -0.0693  0.2561 -0.4623
    2loPI   C6A   28  16.642  18.788   7.577 -0.1503  0.0133 -0.2930
    2loPI   C1B   29  17.277  17.866   9.584  0.0143  0.1592 -0.1649
    2loPI   C2B   30  17.136  17.786   9.134  0.0624 -0.0209  0.0497
    2loPI   C3B   31  17.129  17.950   8.695  0.0211 -0.0361  0.0390
    2loPI   C4B   32  17.229  17.855   8.332  0.1288 -0.1111  0.2313
    3loPI    C1   33   4.855  10.075  10.268 -0.0027 -0.0049  0.0017
    3loPI    C2   34   4.928  10.387  10.508  0.1248  0.1181 -0.1946
    3loPI    C3   35   5.045  10.019  10.616 -0.0578  0.1308  0.0541
    3loPI   PO4   36   4.888  10.154  10.043 -0.0081 -0.0858  0.1609
    3loPI   GL1   37   4.865  10.068   9.597 -0.0375 -0.3343  0.1056
    3loPI   GL2   38   4.590   9.942   9.600 -0.1515  0.1991 -0.0722
    3loPI   C1A   39   4.672  10.203   9.152  0.1761  0.2163 -0.1062
    3loPI   C2A   40   4.889  10.347   8.810  0.1346 -0.2364 -0.0825
    3loPI   C3A   41   4.903  10.384   8.339  0.1421  0.1948  0.2525
    3loPI   C4A   42   4.761  10.531   7.896  0.1188  0.0973  0.0533
    3loPI   C5A   43   4.988  10.869   7.700 -0.0932  0.3790  0.0466
    3loPI   C6A   44   4.953  11.186   7.394 -0.1091  0.3767  0.2514
    3loPI   C1B   45   4.626   9.751   9.301  0.2752 -0.1182 -0.1019
    3loPI   C2B   46   4.506   9.826   8.887 -0.2217 -0.1427  0.0108
    3loPI   C3B   47   4.702   9.842   8.498  0.3473 -0.4256 -0.2289
    3loPI   C4B   48   4.840   9.928   8.016 -0.2725 -0.2517  0.0459
    4loPI    C1   49  13.195  18.061  10.505  0.1932 -0.2323  0.1427
    4loPI    C2   50  13.240  18.240  10.859  0.1010 -0.0190  0.0480
    4loPI    C3   51  13.052  18.430  10.561  0.1388 -0.2142 -0.1022
    4loPI   PO4   52  13.351  17.931  10.418 -0.0031  0.0914 -0.1468
    4loPI   GL1   53  13.517  17.761  10.015  0.2251 -0.2424 -0.1298
    4loPI   GL2   54  13.262  17.591   9.783 -0.1468 -0.1427  0.0358
    4loPI   C1A   55  13.704  17.715   9.560  0.2200 -0.0848 -0.0035
    4loPI   C2A   56  13.724  17.744   9.085 -0.2484 -0.0401  0.2228
    4loPI   C3A   57  13.685  17.594   8.649  0.1454 -0.0566 -0.1853
    4loPI   C4A   58  13.715  17.575   8.184 -0.5884 -0.0571 -0.0644
    4loPI   C5A   59  13.949  17.501   7.847 -0.2143  0.0218  0.0369
    4loPI   C6A   60  14.170  17.242   7.569 -0.1448  0.0739 -0.0846
    4loPI   C1B   61  13.268  17.676   9.307 -0.1612  0.0454  0.0345
    4loPI   C2B   62  13.219  17.552   8.765  0.2797  0.1099  0.0772
    4loPI   C3B   63  13.139  17.534   8.344  0.1038  0.0850 -0.1882
    4loPI   C4B   64  12.928  17.507   8.024 -0.0806 -0.1686 -0.0761
    5loPI    C1   65   7.930   3.972  10.961  0.1901  0.2829  0.4328
    5loPI    C2   66   7.554   3.837  10.943  0.2413  0.1853 -0.0332
    5loPI    C3   67   7.819   3.660  11.186  0.1066 -0.0502 -0.0542
    5loPI   PO4   68   8.014   3.997  10.694 -0.3767  0.2905  0.0833
    5loPI   GL1   69   7.980   4.076  10.202  0.0091 -0.0765 -0.2634
    5loPI   GL2   70   7.725   4.042   9.964  0.3637  0.1406  0.0897
    5loPI   C1A   71   8.170   4.209   9.818 -0.4322 -0.1106 -0.3097
    5loPI   C2A   72   8.190   4.361   9.427 -0.0387 -0.2030 -0.2286
    5loPI   C3A   73   8.201   4.307   9.012  0.0074  0.2148 -0.0940
    5loPI   C4A   74   8.084   4.358   8.498 -0.2165  0.0591  0.0633
    5loPI   C5A   75   7.947   4.359   8.216 -0.2153  0.2143  0.2164
    5loPI   C6A   76   8.019   4.083   7.812  0.0889  0.1200 -0.0207
    5loPI   C1B   77   7.662   4.293   9.547 -0.1911 -0.0423  0.1643
    5loPI   C2B   78   7.637   4.272   9.132 -0.0590  0.0010  0.0229
    5loPI   C3B   79   7.627   4.252   8.785  0.0426  0.2014 -0.2832
    5loPI   C4B   80   7.478   4.215   8.316 -0.4545 -0.1305  0.0316
    6loPI    C1   81  12.000   0.068  10.069  0.2652 -0.1120  0.0569
    6loPI    C2   82  12.332   0.237  10.216  0.0827  0.1085  0.2227
    6loPI    C3   83  12.006   0.204  10.445 -0.0950  0.1356 -0.0218
    6loPI   PO4   84  12.126  -0.079   9.842  0.1227  0.2084 -0.0756
    6loPI   GL1   85  12.246   0.165   9.407 -0.0832 -0.0400 -0.1704
    6loPI   GL2   86  12.538   0.100   9.295 -0.2412  0.2555 -0.2029
    6loPI   C1A   87  12.127  -0.246   9.200  0.3055 -0.2147  0.0365
    6loPI   C2A   88  11.760  -0.281   8.932  0.2920  0.0796  0.1435
    6loPI   C3A   89  11.585  -0.156   8.548 -0.1303  0.1476 -0.3454
    6loPI   C4A   90  11.088  -0.200   8.477  0.0495  0.0792  0.0782
    6loPI   C5A   91  10.789  -0.108   8.202  0.0162  0.3958  0.0709
    6loPI   C6A   92  10.549  -0.259   7.999 -0.2811  0.0734  0.0586
    6loPI   C1B   93  12.832   0.107   9.014  0.0013 -0.0489 -0.0893
    6loPI   C2B   94  12.970  -0.136   8.726  0.0005 -0.2197 -0.0162
    6loPI   C3B   95  13.011  -0.064   8.196  0.0561 -0.1322  0.2764
    6loPI   C4B   96  12.911   0.021   7.762 -0.0124  0.0929 -0.3175
    7loPI    C1   97   8.786   3.383  10.227 -0.1430  0.1344  0.1399
    7loPI    C2   98   8.919   3.151  10.525  0.0366 -0.0471 -0.0776
    7loPI    C3   99   9.138   3.197  10.193 -0.1643  0.1471 -0.1869
    7loPI   PO4  100   8.718   3.676  10.307 -0.1360 -0.2532 -0.1751
    7loPI   GL1  101   8.566   3.881   9.949  0.0684  0.1056 -0.2237
    7loPI   GL2  102   8.606   4.173  10.125 -0.1155 -0.1442  0.0368
    7loPI   C1A  103   8.410   3.890   9.584 -0.3895  0.3221  0.2459
    7loPI   C2A  104   8.383   3.843   9.127  0.1255  0.1052  0.0941
    7loPI   C3A  105   8.319   3.958   8.655  0.0562 -0.0983 -0.1779
    7loPI   C4A  106   8.401   3.905   8.294 -0.2924 -0.0473  0.1222
    7loPI   C5A  107   8.299   3.706   7.912  0.1229 -0.2571  0.4021
    7loPI   C6A  108   8.332   3.390   7.516  0.0803 -0.0287  0.2684
    7loPI   C1B  109   8.627   4.399   9.701 -0.2142 -0.1226 -0.2547
    7loPI   C2B  110   8.657   4.260   9.285  0.0806  0.0805  0.0453
    7loPI   C3B  111   8.715   4.427   8.802 -0.0507  0.1770 -0.0695
    7loPI   C4B  112   8.656   4.363   8.427 -0.1215 -0.0090  0.1684
    8loPI    C1  113   5.576   9.387  10.262  0.1321 -0.0075 -0.2394
    8loPI    C2  114   5.177   9.403  10.229  0.1145  0.2600  0.0524
    8loPI    C3  115   5.371   9.677  10.447  0.4427  0.0261  0.0626
    8loPI   PO4  116   5.585   9.183  10.109 -0.0302 -0.4064 -0.2126
    8loPI   GL1  117   5.513   9.160   9.574  0.2221  0.1159 -0.0176
    8loPI   GL2  118   5.292   9.367   9.752  0.2747 -0.1596  0.0633
    8loPI   C1A  119   5.393   9.140   9.116 -0.0682 -0.1362 -0.0123
    8loPI   C2A  120   5.551   9.130   8.719  0.1859  0.1073  0.0040
    8loPI   C3A  121   5.941   9.179   8.366  0.4413 -0.2387 -0.2231
    8loPI   C4A  122   6.148   9.247   8.034 -0.1702  0.1883  0.1391
    8loPI   C5A  123   6.227   9.396   7.700 -0.1337  0.1387  0.1416
    8loPI   C6A  124   6.296   9.303   7.256  0.0649  0.0359 -0.0239
    8loPI   C1B  125   5.127   9.569   9.434  0.1214 -0.2469 -0.2584
    8loPI   C2B  126   5.076   9.887   9.079 -0.1636  0.4058 -0.0848
    8loPI   C3B  127   5.174  10.007   8.651 -0.1666 -0.1237  0.1175
    8loPI   C4B  128   5.447   9.816   8.352 -0.1055  0.1369 -0.2953
    9loPI    C1  129  18.048   8.681  10.380 -0.0021  0.0041 -0.0254
    9loPI    C2  130  17.876   8.438  10.646  0.2573 -0.0735  0.0742
    9loPI    C3  131  17.987   8.806  10.755  0.0767  0.0081 -0.0138
    9loPI   PO4  132  17.884   8.694  10.127 -0.2742 -0.0750 -0.0466
    9loPI   GL1  133  18.033   8.829   9.716  0.0658 -0.2210 -0.2169
    9loPI   GL2  134  18.205   9.002   9.919 -0.2002  0.1063 -0.0386
    9loPI   C1A  135  17.872   8.603   9.366 -0.1985 -0.1897 -0.2815
    9loPI   C2A  136  17.881   8.627   8.893  0.0236 -0.0353  0.1277
    9loPI   C3A  137  17.995   8.681   8.515 -0.1709 -0.1961 -0.2646
    9loPI   C4A  138  18.145   8.536   8.127 -0.0945 -0.0444 -0.0645
    9loPI   C5A  139  18.554   8.379   7.914 -0.0119  0.0870 -0.3068
    9loPI   C6A  140  18.910   8.618   7.876 -0.0717  0.0297  0.1787
    9loPI   C1B  141  18.374   9.400   9.649 -0.0661  0.3242 -0.0978
    9loPI   C2B  142  18.467   9.453   9.171  0.0555  0.1131 -0.0904
    9loPI   C3B  143  18.396   9.557   8.742  0.2140  0.0284  0.1855
    9loPI   C4B  144  18.602   9.476   8.309  0.0993 -0.1205 -0.2097
   10loPI    C1  145  16.812   6.032  10.403  0.0379  0.0660  0.2381
   10loPI    C2  146  16.971   6.346  10.593  0.0361  0.0706  0.2318
   10loPI    C3  147  17.194   6.131  10.340 -0.0162  0.1841  0.0881
   10loPI   PO4  148  16.568   6.158  10.220  0.1787  0.0810 -0.0551
   10loPI   GL1  149  16.348   6.013   9.787 -0.0812  0.2356 -0.1151
   10loPI   GL2  150  16.123   6.247   9.800  0.1618 -0.2077  0.2981
   10loPI   C1A  151  16.149   5.946   9.368  0.2092  0.1367  0.1693
   10loPI   C2A  152  16.010   5.948   8.942 -0.3179 -0.1873 -0.0888
   10loPI   C3A  153  15.986   5.945   8.536 -0.2774 -0.2000  0.2323
   10loPI   C4A  154  16.178   5.864   8.179 -0.1220  0.1239  0.1381
   10loPI   C5A  155  16.424   5.811   7.793 -0.1108  0.0938  0.2975
   10loPI   C6A  156  16.484   6.142   7.448 -0.0985 -0.1753 -0.0417
   10loPI   C1B  157  16.299   6.416   9.442  0.0149 -0.0299  0.3070
   10loPI   C2B  158  16.301   6.457   8.999 -0.0456  0.1224 -0.1177
   10loPI   C3B  159  16.140   6.514   8.603 -0.0474 -0.1021  0.1197
   10loPI   C4B  160  16.053   6.408   8.264  0.1278  0.1215  0.1503
   11loPI    C1  161  14.795  11.424  10.536 -0.0229  0.0067  0.1183
   11loPI    C2  162  14.833  11.491  10.928  0.1634 -0.0135  0.1048
   11loPI    C3  163  15.119  11.292  10.731 -0.0886 -0.3035  0.0236
   11loPI   PO4  164  14.595  11.661  10.485 -0.4067  0.1826 -0.0184
   11loPI   GL1  165  14.390  11.693  10.083 -0.3955 -0.1887  0.0865
   11loPI   GL2  166  14.661  11.422  10.016  0.3182  0.2120 -0.0384
   11loPI   C1A  167  14.321  11.948   9.662 -0.2775  0.0857  0.3110
   11loPI   C2A  168  14.229  12.115   9.254 -0.1244  0.1399 -0.0545
   11loPI   C3A  169  14.226  12.138   8.883 -0.0814 -0.1142  0.0599
   11loPI   C4A  170  14.306  12.137   8.452 -0.1408  0.1585 -0.2485
   11loPI   C5A  171  14.227  12.087   7.950 -0.1102 -0.0033  0.4341
   11loPI   C6A  172  13.829  12.256   7.646 -0.4598  0.0569  0.2311
   11loPI   C1B  173  14.679  11.615   9.615 -0.2208 -0.2618 -0.0323
   11loPI   C2B  174  14.569  11.745   9.085 -0.4132 -0.1463 -0.0389
   11loPI   C3B  175  14.576  11.748   8.646  0.1483 -0.2967 -0.2025
   11loPI   C4B  176  14.747  11.919   8.261  0.1591  0.2253  0.3449
   12loPI    C1  177   8.716   8.193  10.546 -0.0192 -0.1264 -0.0463
   12loPI    C2  178   8.613   7.979  10.868 -0.0491 -0.1751 -0.0881
   12loPI    C3  179   8.733   8.358  10.910  0.0719 -0.2220 -0.0068
   12loPI   PO4  180   8.603   8.107  10.352 -0.2126 -0.1342  0.2278
   12loPI   GL1  181   8.589   7.941   9.851  0.0915  0.0238  0.3122
   12loPI   GL2  182   8.305   8.115   9.782  0.1241  0.2136  0.0870
   12loPI   C1A  183   8.623   7.863   9.458  0.0946  0.0593 -0.3845
   12loPI   C2A  184   8.734   7.821   9.012 -0.2063 -0.2710  0.2001
   12loPI   C3A  185   8.769   7.950   8.674 -0.3348 -0.0179  0.1000
   12loPI   C4A  186   9.008   7.884   8.297  0.1036 -0.0450  0.1965
   12loPI   C5A  187   9.258   7.890   7.985  0.0861 -0.0139 -0.3926
   12loPI   C6A  188   9.689   8.027   7.909 -0.1795  0.0980 -0.0634
   12loPI   C1B  189   8.205   8.174   9.355 -0.1423  0.2897 -0.0547
   12loPI   C2B  190   8.297   8.091   8.901 -0.0804  0.0999  0.2233
   12loPI   C3B  191   8.401   8.288   8.526 -0.3813 -0.3136 -0.1330
   12loPI   C4B  192   8.508   8.222   8.124  0.0864 -0.1363  0.0022
   13loPI    C1  193  13.912   7.291  10.328  0.0077 -0.0005 -0.2349
   13loPI    C2  194  13.737   7.353  10.683  0.1349 -0.2741 -0.1211
   13loPI    C3  195  13.694   7.620  10.388 -0.0284 -0.0780  0.0774
   13loPI   PO4  196  13.855   7.002  10.248  0.0710 -0.0563  0.0346
   13loPI   GL1  197  13.770   6.921   9.771 -0.1410 -0.1285  0.2902
   13loPI   GL2  198  13.627   7.314   9.818 -0.2193  0.2610  0.2465
   13loPI   C1A  199  13.889   7.098   9.334 -0.0469 -0.2188  0.0088
   13loPI   C2A  200  14.023   6.994   8.906 -0.3700  0.1013  0.0687
   13loPI   C3A  201  13.981   6.970   8.434  0.0841 -0.0723 -0.0340
   13loPI   C4A  202  14.094   7.092   8.075  0.1222  0.1780  0.2221
   13loPI   C5A  203  14.400   7.091   7.712 -0.0606 -0.1023  0.0035
   13loPI   C6A  204  14.572   7.104   7.297  0.1112 -0.0591 -0.0440
   13loPI   C1B  205  13.472   7.330   9.468 -0.1622 -0.1407 -0.2832
   13loPI   C2B  206  13.520   7.366   8.994  0.1713  0.0741 -0.2508
   13loPI   C3B  207  13.631   7.410   8.624  0.0640  0.1003  0.0629
   13loPI   C4B  208  13.627   7.360   8.158 -0.2184 -0.0180  0.0658
   14loPI    C1  209  16.738   3.707  10.462  0.1864  0.0167  0.1207
   14loPI    C2  210  16.353   3.783  10.384  0.1489 -0.1658  0.1244
   14loPI    C3  211  16.543   3.988  10.670  0.1154  0.0749 -0.0234
   14loPI   PO4  212  16.776   3.521  10.297  0.3038  0.1783 -0.2658
   14loPI   GL1  213  16.574   3.322  10.049  0.0201  0.1428  0.0563
   14loPI   GL2  214  16.406   3.530   9.946  0.1113 -0.2050 -0.3023
   14loPI   C1A  215  16.771   3.333   9.662  0.0243  0.0790 -0.3161
   14loPI   C2A  216  16.942   3.465   9.290  0.0683  0.1376 -0.3414
   14loPI   C3A  217  16.906   3.506   8.825  0.1264  0.1293  0.1891
   14loPI   C4A  218  16.952   3.375   8.350  0.2318  0.2637 -0.0526
   14loPI   C5A  219  17.072   3.669   7.985  0.0139 -0.1501  0.0713
   14loPI   C6A  220  17.087   3.730   7.475 -0.0306  0.0265 -0.2895
   14loPI   C1B  221  16.320   3.412   9.489  0.4221 -0.1064  0.1218
   14loPI   C2B  222  16.333   3.354   9.000  0.3366 -0.1418 -0.3853
   14loPI   C3B  223  16.474   3.292   8.607  0.1230  0.1247 -0.0612
   14loPI   C4B  224  16.216   3.266   8.180 -0.1501 -0.1614 -0.3022
   15loPI    C1  225  11.446  13.807  10.837 -0.3176 -0.4281  0.0508
   15loPI    C2  226  11.563  14.016  11.157 -0.1203 -0.2504 -0.1339
   15loPI    C3  227  11.492  13.623  11.189  0.0001 -0.2547  0.1029
   15loPI   PO4  228  11.573  13.971  10.596 -0.1013 -0.1460 -0.0436
   15loPI   GL1  229  11.674  14.040  10.142 -0.2856  0.1272  0.0106
   15loPI   GL2  230  11.846  14.328  10.230  0.0347 -0.0421 -0.0909
   15loPI   C1A  231  12.063  14.202   9.816  0.2295 -0.3611 -0.0969
   15loPI   C2A  232  12.227  14.257   9.337  0.0865  0.0316  0.1922
   15loPI   C3A  233  12.305  14.286   8.888  0.1731  0.1681 -0.0775
   15loPI   C4A  234  12.495  14.421   8.559  0.0733 -0.0616  0.2842
   15loPI   C5A  235  12.792  14.659   8.275  0.4157  0.0446 -0.0721
   15loPI   C6A  236  12.868  14.804   7.834  0.0720  0.0104  0.0601
   15loPI   C1B  237  11.655  14.458   9.828 -0.0821  0.0994  0.1284
   15loPI   C2B  238  11.712  14.407   9.341 -0.1282 -0.1156  0.2755
   15loPI   C3B  239  11.868  14.512   8.983  0.0035 -0.0928 -0.1045
   15loPI   C4B  240  12.018  14.785   8.689 -0.0598 -0.1306  0.1590
   16loPI    C1  241   9.171   7.844  11.011  0.0942 -0.1741  0.1691
   16loPI    C2  242   9.036   8.095  11.292  0.1005  0.1368 -0.0988
   16loPI    C3  243   8.886   7.725  11.265 -0.2137  0.2513  0.0349
   16loPI   PO4  244   9.127   7.940  10.748  0.1782 -0.3809 -0.1084
   16loPI   GL1  245   9.150   7.878  10.367  0.1415  0.1270  0.1844
   16loPI   GL2  246   8.916   7.717  10.260  0.3983 -0.2281 -0.0834
   16loPI   C1A  247   9.278   7.908   9.951 -0.2151 -0.1300 -0.1002
   16loPI   C2A  248   9.126   7.955   9.545 -0.1075  0.2228  0.0363
   16loPI   C3A  249   9.193   7.666   9.137  0.4156 -0.1719 -0.0581
   16loPI   C4A  250   9.178   7.673   8.699 -0.3216  0.3049 -0.2557
   16loPI   C5A  251   9.399   7.614   8.389  0.1631 -0.1743 -0.0088
   16loPI   C6A  252   9.526   7.397   7.971  0.1414  0.0114 -0.0897
   16loPI   C1B  253   9.327   7.462  10.145 -0.1463  0.0918  0.3750
   16loPI   C2B  254   9.396   7.108   9.873  0.0378 -0.0437 -0.2667
   16loPI   C3B  255   9.738   7.112   9.542 -0.0879  0.0735  0.1819
   16loPI   C4B  256   9.869   7.418   9.211 -0.1431  0.0442  0.1504
   17loPI    C1  257   5.436  12.953  10.347 -0.2677 -0.1211 -0.2028
   17loPI    C2  258   5.558  12.572  10.362  0.2362  0.0335 -0.2025
   17loPI    C3  259   5.423  12.752  10.693  0.2532 -0.0640 -0.1421
   17loPI   PO4  260   5.321  12.986  10.083 -0.0432  0.0394 -0.1426
   17loPI   GL1  261   5.009  13.120   9.672  0.0350 -0.2492 -0.2104
   17loPI   GL2  262   5.303  12.928   9.600 -0.0452 -0.3072 -0.4014
   17loPI   C1A  263   4.985  13.174   9.215  0.0600  0.1791 -0.1101
   17loPI   C2A  264   4.992  13.117   8.770  0.2824  0.2137  0.0215
   17loPI   C3A  265   4.952  13.239   8.403  0.0687 -0.1498 -0.1806
   17loPI   C4A  266   4.949  13.100   8.000  0.1432 -0.1998 -0.0484
   17loPI   C5A  267   5.064  13.275   7.580  0.0850 -0.0495 -0.0397
   17loPI   C6A  268   5.285  13.411   7.228  0.1322  0.3571  0.3306
   17loPI   C1B  269   5.410  12.930   9.033 -0.2940 -0.1859 -0.2407
   17loPI   C2B  270   5.460  12.938   8.602 -0.1319  0.0339  0.0014
   17loPI   C3B  271   5.529  12.966   8.065 -0.3920 -0.0592 -0.2720
   17loPI   C4B  272   5.657  12.871   7.578 -0.2523 -0.0071  0.0906
   18loPI    C1  273  15.656   7.104  10.486 -0.2616  0.0530 -0.0086
   18loPI    C2  274  15.684   6.849  10.793 -0.0985  0.0404 -0.0332
   18loPI    C3  275  15.631   7.239  10.862  0.0599  0.0540  0.0146
   18loPI   PO4  276  15.622   6.904  10.302 -0.0896 -0.0511  0.1634
   18loPI   GL1  277  15.534   6.931   9.876 -0.0459  0.1530 -0.0648
   18loPI   GL2  278  15.623   7.283   9.946 -0.1987  0.1913 -0.2223
   18loPI   C1A  279  15.403   6.878   9.503 -0.2306  0.2040  0.3051
   18loPI   C2A  280  15.389   6.778   9.144  0.1218  0.1767  0.3105
   18loPI   C3A  281  15.378   6.776   8.704  0.1897 -0.2666 -0.2075
   18loPI   C4A  282  15.314   6.866   8.299  0.1602  0.0755 -0.0732
   18loPI   C5A  283  15.420   7.083   7.898 -0.0246  0.1643 -0.1523
   18loPI   C6A  284  15.422   7.024   7.525 -0.0205 -0.4540 -0.3544
   18loPI   C1B  285  15.315   7.352   9.613 -0.3401 -0.0393  0.1680
   18loPI   C2B  286  15.371   7.323   9.232  0.0492  0.2660  0.0975
   18loPI   C3B  287  15.487   7.302   8.749  0.0796 -0.0247  0.0127
   18loPI   C4B  288  15.695   7.288   8.303  0.2341 -0.1648  0.0941
   19loPI    C1  289  17.000   1.426  10.578 -0.2120 -0.0314  0.0798
   19loPI    C2  290  17.200   1.769  10.528 -0.3921  0.0401 -0.1684
   19loPI    C3  291  16.889   1.754  10.778 -0.2444 -0.0030  0.0155
   19loPI   PO4  292  17.055   1.337  10.416 -0.0309 -0.2073  0.1582
   19loPI   GL1  293  16.796   1.355  10.075 -0.1223 -0.0784  0.2252
   19loPI   GL2  294  16.780   1.539   9.859  0.0766  0.1674 -0.1376
   19loPI   C1A  295  16.847   1.060   9.720 -0.2625 -0.1465 -0.2349
   19loPI   C2A  296  16.728   1.149   9.377  0.3353  0.0967  0.1821
   19loPI   C3A  297  16.756   1.166   8.972 -0.1914 -0.0833  0.0461
   19loPI   C4A  298  16.685   1.216   8.499  0.2924  0.1972  0.0315
   19loPI   C5A  299  16.869   1.217   8.148  0.1458 -0.2231  0.1463
   19loPI   C6A  300  17.346   1.247   8.204 -0.2552 -0.0561  0.0839
   19loPI   C1B  301  16.487   1.813   9.816  0.3689  0.1892 -0.1887
   19loPI   C2B  302  16.422   2.068   9.430  0.0370  0.2624 -0.1749
   19loPI   C3B  303  16.445   2.011   9.047  0.0861 -0.0521 -0.3674
   19loPI   C4B  304  16.590   1.951   8.688 -0.0611 -0.1276  0.0082
   20loPI    C1  305  16.146   1.277  10.502 -0.0521  0.1395  0.1061
   20loPI    C2  306  16.522   1.154  10.444 -0.0845  0.0883  0.0047
   20loPI    C3  307  16.279   0.946  10.684 -0.1952 -0.1566 -0.3119
   20loPI   PO4  308  16.076   1.337  10.297  0.0633  0.0743 -0.1066
   20loPI   GL1  309  16.302   1.391   9.950  0.0825 -0.0214 -0.0981
   20loPI   GL2  310  16.386   1.055   9.941 -0.1330  0.0656 -0.1948
   20loPI   C1A  311  16.356   1.425   9.459  0.2667 -0.1237 -0.0984
   20loPI   C2A  312  16.375   1.450   9.118 -0.0323  0.0293 -0.2291
   20loPI   C3A  313  16.365   1.453   8.756  0.2311 -0.0965 -0.0616
   20loPI   C4A  314  16.480   1.603   8.278 -0.0575 -0.0424 -0.2131
   20loPI   C5A  315  16.375   1.919   8.024  0.0534 -0.1474  0.0004
   20loPI   C6A  316  16.338   2.295   7.775  0.2907  0.2917 -0.0044
   20loPI   C1B  317  16.130   0.961   9.527  0.1668  0.1563  0.1396
   20loPI   C2B  318  16.188   1.039   9.043  0.0268  0.1063 -0.0714
   20loPI   C3B  319  16.106   1.082   8.501 -0.2476  0.1973 -0.1255
   20loPI   C4B  320  15.852   1.288   8.177  0.1151  0.0660 -0.2603
   21loPI    C1  321  15.437  15.135  10.499  0.3275  0.0582 -0.0202
   21loPI    C2  322  15.585  14.810  10.680  0.2892  0.0788  0.0485
   21loPI    C3  323  15.538  15.150  10.886  0.0596  0.0468  0.0526
   21loPI   PO4  324  15.234  15.076  10.390 -0.0134  0.2945 -0.3173
   21loPI   GL1  325  15.039  15.198  10.135 -0.1462 -0.0967 -0.1709
   21loPI   GL2  326  15.471  15.190   9.869  0.1054  0.0126 -0.1076
   21loPI   C1A  327  15.055  14.942   9.795  0.0678  0.3468  0.1333
   21loPI   C2A  328  15.107  14.808   9.366 -0.0976 -0.1572  0.0957
   21loPI   C3A  329  15.290  14.780   8.957  0.1063 -0.1784  0.1940
   21loPI   C4A  330  15.411  14.767   8.568  0.0284  0.0461 -0.0155
   21loPI   C5A  331  15.443  14.471   8.217 -0.3041  0.0057  0.4267
   21loPI   C6A  332  15.505  14.214   7.768 -0.0057 -0.1620 -0.0326
   21loPI   C1B  333  15.096  15.409   9.539 -0.1560  0.1298  0.3390
   21loPI   C2B  334  14.896  15.565   9.175  0.1573  0.1169  0.2282
   21loPI   C3B  335  14.969  15.578   8.778 -0.1399  0.2258  0.0809
   21loPI   C4B  336  15.175  15.680   8.366  0.0045 -0.3709 -0.0788
   22loPI    C1  337   6.122   1.494  10.429  0.2751 -0.0006  0.0862
   22loPI    C2  338   6.117   1.553  10.824 -0.0706  0.1723  0.0592
   22loPI    C3  339   5.821   1.697  10.596  0.0527 -0.0483 -0.2463
   22loPI   PO4  340   6.149   1.181  10.457  0.1345 -0.1380  0.1912
   22loPI   GL1  341   6.054   0.743  10.325 -0.1565  0.0085  0.4251
   22loPI   GL2  342   5.996   0.419  10.198  0.0069  0.0655  0.0517
   22loPI   C1A  343   6.198   0.734   9.808  0.0261 -0.0932  0.0608
   22loPI   C2A  344   5.969   1.101   9.517 -0.0312 -0.1340 -0.3077
   22loPI   C3A  345   5.838   1.078   8.991 -0.0399  0.0138 -0.0428
   22loPI   C4A  346   5.864   1.117   8.499  0.2406 -0.0230  0.0730
   22loPI   C5A  347   6.115   1.085   8.120  0.2509 -0.1438  0.3256
   22loPI   C6A  348   6.491   1.444   7.993  0.0388  0.0602  0.0091
   22loPI   C1B  349   5.970   0.156   9.741  0.2755  0.1147 -0.1031
   22loPI   C2B  350   6.018   0.251   9.297 -0.1471 -0.2146 -0.2875
   22loPI   C3B  351   6.043   0.291   8.918 -0.2319  0.0777  0.3991
   22loPI   C4B  352   5.899   0.207   8.535  0.1546  0.1394 -0.0171
   23loPI    C1  353   4.418  10.067  10.477  0.1024  0.0047  0.0432
   23loPI    C2  354   4.292   9.701  10.579 -0.7292  0.1374 -0.4157
   23loPI    C3  355   4.225  10.011  10.823 -0.0134  0.0044 -0.0209
   23loPI   PO4  356   4.340  10.116  10.165 -0.0213 -0.1072 -0.0261
   23loPI   GL1  357   4.288  10.344   9.722  0.3947  0.1981  0.0260
   23loPI   GL2  358   3.910  10.125   9.543 -0.2108 -0.0348 -0.1386
   23loPI   C1A  359   4.568  10.598   9.489 -0.1380  0.0613  0.2676
   23loPI   C2A  360   4.697  10.787   8.989 -0.0755  0.0249 -0.0077
   23loPI   C3A  361   4.633  10.790   8.636 -0.0011 -0.3287  0.0869
   23loPI   C4A  362   4.409  10.671   8.263  0.1207  0.3017 -0.2099
   23loPI   C5A  363   4.172  10.510   8.049  0.0936 -0.1108  0.0697
   23loPI   C6A  364   3.778  10.390   7.920  0.1050  0.0404  0.2089
   23loPI   C1B  365   4.121   9.800   9.290 -0.0263  0.0523 -0.0208
   23loPI   C2B  366   4.219   9.405   8.985 -0.1188  0.0488  0.2562
   23loPI   C3B  367   4.190   9.130   8.548  0.0977  0.1888  0.1489
   23loPI   C4B  368   4.130   9.280   8.118  0.0088 -0.2685  0.0141
   24loPI    C1  369  12.204   3.135  10.496  0.0570  0.0195 -0.2379
   24loPI    C2  370  11.934   3.406  10.379 -0.0342  0.0640  0.0670
   24loPI    C3  371  12.282   3.525  10.536  0.0171  0.0048 -0.0009
   24loPI   PO4  372  12.257   2.944  10.235 -0.3149 -0.0413 -0.1589
   24loPI   GL1  373  12.327   2.951   9.795 -0.0823  0.1349  0.1455
   24loPI   GL2  374  12.397   3.186   9.655 -0.1447  0.1612 -0.4518
   24loPI   C1A  375  12.347   2.854   9.350 -0.2560 -0.2892  0.1483
   24loPI   C2A  376  12.457   2.940   9.014  0.2100  0.0698 -0.0043
   24loPI   C3A  377  12.539   2.990   8.575  0.0449  0.0159 -0.1295
   24loPI   C4A  378  12.552   3.076   8.223 -0.0558 -0.0042  0.1050
   24loPI   C5A  379  12.316   3.258   7.853  0.2175  0.0562 -0.3581
   24loPI   C6A  380  12.136   3.473   7.556 -0.0906  0.1214  0.4329
   24loPI   C1B  381  12.492   3.342   9.273 -0.2116  0.0478 -0.0501
   24loPI   C2B  382  12.444   3.421   8.815 -0.1036 -0.3202  0.1987
   24loPI   C3B  383  12.311   3.529   8.378 -0.3802 -0.0091  0.0511
   24loPI   C4B  384  12.439   3.771   8.013  0.0825 -0.2180  0.1291
   25loPI    C1  385   1.675  15.608  10.783 -0.3246  0.1435 -0.4327
   25loPI    C2  386   1.639  15.995  10.877  0.0665  0.0382  0.2162
   25loPI    C3  387   1.379  15.728  11.024  0.1198 -0.0130  0.2178
   25loPI   PO4  388   1.707  15.604  10.551  0.0612 -0.1015 -0.0386
   25loPI   GL1  389   1.744  15.942  10.220  0.2165  0.2833 -0.0085
   25loPI   GL2  390   1.671  15.738  10.058 -0.1882  0.1178 -0.2278
   25loPI   C1A  391   2.119  15.907   9.932 -0.3923  0.0276 -0.1426
   25loPI   C2A  392   2.105  15.797   9.435 -0.0700 -0.1460 -0.3366
   25loPI   C3A  393   2.029  15.670   9.058 -0.2667  0.0309 -0.1198
   25loPI   C4A  394   2.146  15.652   8.667  0.0098  0.1851  0.0055
   25loPI   C5A  395   2.239  15.750   8.232 -0.1192 -0.1768  0.2228
   25loPI   C6A  396   2.516  15.637   7.848 -0.2505  0.0223 -0.0359
   25loPI   C1B  397   1.695  15.915   9.629  0.1166  0.1809 -0.1890
   25loPI   C2B  398   1.588  15.915   9.267  0.3234 -0.1211 -0.1018
   25loPI   C3B  399   1.590  15.854   8.894  0.0536 -0.0151  0.2193
   25loPI   C4B  400   1.753  15.922   8.477 -0.1303  0.2454  0.0289
   26loPI    C1  401   4.222   2.045  10.699 -0.0296 -0.3728  0.1250
   26loPI    C2  402   4.570   1.863  10.776  0.1377 -0.0125  0.2382
   26loPI    C3  403   4.526   2.253  10.854 -0.1610  0.0382 -0.1524
   26loPI   PO4  404   4.154   1.864  10.445 -0.0387  0.1050  0.3132
   26loPI   GL1  405   3.923   1.807  10.049  0.1005  0.0706 -0.2131
   26loPI   GL2  406   4.164   1.952   9.972 -0.1878 -0.1727 -0.0034
   26loPI   C1A  407   3.749   1.641   9.644 -0.0177  0.0569 -0.1990
   26loPI   C2A  408   3.640   1.750   9.335  0.2732  0.2057  0.1011
   26loPI   C3A  409   3.547   1.754   8.873 -0.3629 -0.0434  0.3192
   26loPI   C4A  410   3.537   1.749   8.465 -0.1127 -0.0213 -0.3100
   26loPI   C5A  411   3.448   1.744   8.062  0.1403  0.5032 -0.2951
   26loPI   C6A  412   3.267   1.657   7.786  0.1360  0.0819 -0.2831
   26loPI   C1B  413   4.219   1.835   9.547  0.0575 -0.0381  0.1578
   26loPI   C2B  414   4.071   1.734   9.104 -0.0947 -0.0847 -0.0405
   26loPI   C3B  415   4.058   1.778   8.671  0.1054  0.1202  0.0484
   26loPI   C4B  416   3.978   1.812   8.151  0.3249 -0.2676 -0.3069
   27loPI    C1  417  13.348   3.697  10.603  0.2633  0.2239 -0.1711
   27loPI    C2  418  13.651   3.653  10.860 -0.0199 -0.0099  0.1310
   27loPI    C3  419  13.559   3.357  10.606  0.0194  0.0707  0.0222
   27loPI   PO4  420  13.374   3.884  10.506  0.0413 -0.1085  0.0266
   27loPI   GL1  421  13.416   3.861  10.027 -0.0569  0.0056  0.0033
   27loPI   GL2  422  13.636   3.776   9.815  0.1556  0.0473 -0.1646
   27loPI   C1A  423  13.158   4.010   9.755 -0.1752  0.0381 -0.0071
   27loPI   C2A  424  12.988   4.051   9.344  0.0007 -0.1913  0.0074
   27loPI   C3A  425  12.957   4.072   8.908  0.1319 -0.0358 -0.1733
   27loPI   C4A  426  12.991   4.089   8.359 -0.0047  0.0877 -0.2527
   27loPI   C5A  427  13.080   4.081   7.925  0.0624  0.1343  0.0379
   27loPI   C6A  428  13.451   4.132   7.704  0.1310 -0.1741 -0.0366
   27loPI   C1B  429  13.721   3.808   9.415  0.3388  0.1661 -0.1406
   27loPI   C2B  430  13.801   3.744   8.953 -0.2838  0.4456  0.1564
   27loPI   C3B  431  13.786   3.770   8.544 -0.3209 -0.2952  0.0907
   27loPI   C4B  432  13.841   3.705   8.103  0.0019 -0.1629 -0.1147
   28loPI    C1  433   8.418   6.393  10.715  0.0023  0.2535  0.2589
   28loPI    C2  434   8.241   6.456  11.068 -0.2204 -0.1599  0.2270
   28loPI    C3  435   8.064   6.226  10.793  0.0141  0.0479 -0.1063
   28loPI   PO4  436   8.480   6.629  10.621  0.3821  0.1585  0.0791
   28loPI   GL1  437   8.625   6.959  10.267  0.0470 -0.2237  0.0615
   28loPI   GL2  438   8.451   6.735  10.034 -0.1184  0.2540  0.1604
   28loPI   C1A  439   8.943   6.917   9.930 -0.0182 -0.0971 -0.0322
   28loPI   C2A  440   8.944   6.880   9.451 -0.3402  0.2340  0.3836
   28loPI   C3A  441   9.059   6.887   9.067 -0.2016  0.1960  0.1844
   28loPI   C4A  442   9.105   6.994   8.573 -0.0157 -0.3260 -0.0428
   28loPI   C5A  443   9.286   6.989   8.184  0.0740 -0.0191 -0.2876
   28loPI   C6A  444   9.662   6.960   7.976 -0.1360 -0.0405  0.2549
   28loPI   C1B  445   8.471   6.789   9.488 -0.0310  0.0258 -0.0949
   28loPI   C2B  446   8.313   7.025   9.133  0.1894  0.2742  0.1996
   28loPI   C3B  447   8.354   7.037   8.650  0.1108 -0.2867  0.1059
   28loPI   C4B  448   8.063   7.215   8.304 -0.2222  0.1177 -0.2275
   29loPI    C1  449   7.543  12.438  10.380  0.0366  0.1002 -0.1639
   29loPI    C2  450   7.598  12.119  10.615  0.1727  0.1980 -0.0607
   29loPI    C3  451   7.575  12.484  10.776 -0.1429  0.2269 -0.1624
   29loPI   PO4  452   7.492  12.245  10.126  0.4196  0.0609  0.2376
   29loPI   GL1  453   7.678  12.263   9.807  0.1183  0.3359 -0.3613
   29loPI   GL2  454   7.881  12.161   9.752  0.3510 -0.5601  0.0220
   29loPI   C1A  455   7.507  12.357   9.410  0.1645 -0.0560  0.0507
   29loPI   C2A  456   7.597  12.247   8.962 -0.0452  0.1223  0.2401
   29loPI   C3A  457   7.635  12.278   8.555  0.0472  0.2531  0.0405
   29loPI   C4A  458   7.580  12.244   8.007  0.1800  0.3246 -0.1900
   29loPI   C5A  459   7.708  12.002   7.735  0.0924  0.1359 -0.0364
   29loPI   C6A  460   8.153  11.948   7.754 -0.1952 -0.1496 -0.4121
   29loPI   C1B  461   7.973  12.272   9.363 -0.0965 -0.1321 -0.1320
   29loPI   C2B  462   8.030  12.042   9.005  0.0790  0.4107 -0.1137
   29loPI   C3B  463   8.159  12.041   8.633 -0.0013 -0.3297  0.1517
   29loPI   C4B  464   7.908  11.958   8.219  0.1222  0.1202 -0.3708
   30loPI    C1  465   8.255  10.115  10.828 -0.2015 -0.3856  0.1358
   30loPI    C2  466   8.417  10.262  11.163 -0.2083 -0.1612  0.0423
   30loPI    C3  467   8.423   9.868  11.094  0.2244 -0.1653  0.0788
   30loPI   PO4  468   8.357  10.262  10.613 -0.1147 -0.0815  0.2321
   30loPI   GL1  469   8.358  10.485  10.278 -0.1277  0.1394 -0.0782
   30loPI   GL2  470   8.569  10.722  10.156 -0.0615 -0.2987 -0.2862
   30loPI   C1A  471   8.284  10.538   9.794 -0.0120  0.0738 -0.0663
   30loPI   C2A  472   8.202  10.950   9.497 -0.2493 -0.0067  0.3374
   30loPI   C3A  473   8.008  10.953   9.096 -0.1771 -0.0790 -0.1712
   30loPI   C4A  474   7.986  10.974   8.650  0.1716 -0.3280  0.3339
   30loPI   C5A  475   8.337  10.798   8.371  0.0386 -0.1263 -0.4241
   30loPI   C6A  476   8.574  10.813   8.043 -0.0970 -0.0678  0.2282
   30loPI   C1B  477   8.706  10.786   9.722  0.0621 -0.2409 -0.0605
   30loPI   C2B  478   8.712  10.638   9.327 -0.1531 -0.3350 -0.0136
   30loPI   C3B  479   8.766  10.516   8.912  0.0079  0.0052 -0.1797
   30loPI   C4B  480   8.776  10.668   8.566  0.0746  0.1575  0.1249
   31loPI    C1  481   0.738  15.214  10.571  0.1464  0.0309  0.1243
   31loPI    C2  482   0.868  15.361  10.920  0.1850 -0.0237  0.1332
   31loPI    C3  483   0.845  15.599  10.599  0.1551  0.0252  0.1713
   31loPI   PO4  484   0.858  15.086  10.395 -0.0990 -0.1240 -0.0665
   31loPI   GL1  485   1.073  15.134  10.043  0.2044  0.1453  0.1714
   31loPI   GL2  486   0.969  15.337   9.768  0.2462  0.2459  0.1390
   31loPI   C1A  487   0.956  14.916   9.638 -0.1721  0.1727  0.2351
   31loPI   C2A  488   0.881  14.845   9.141  0.4415 -0.2140  0.1623
   31loPI   C3A  489   0.876  14.856   8.787  0.0696 -0.0154 -0.0050
   31loPI   C4A  490   0.904  14.740   8.411 -0.0661 -0.0557  0.0580
   31loPI   C5A  491   0.749  14.766   7.955  0.1987 -0.2378  0.0117
   31loPI   C6A  492   0.491  14.807   7.733 -0.2215 -0.0296 -0.1260
   31loPI   C1B  493   0.842  15.292   9.289 -0.0559  0.1056  0.1402
   31loPI   C2B  494   0.595  15.459   8.877 -0.0572  0.1864  0.4270
   31loPI   C3B  495   0.347  15.497   8.506 -0.0038 -0.0254 -0.1422
   31loPI   C4B  496   0.158  15.555   8.149 -0.0510 -0.0818  0.0605
   32loPI    C1  497  15.954  15.326  10.718 -0.0932 -0.0241 -0.0471
   32loPI    C2  498  15.867  15.574  11.019  0.0068 -0.1970  0.1265
   32loPI    C3  499  16.224  15.394  11.005  0.1186  0.0425 -0.2584
   32loPI   PO4  500  15.957  15.368  10.572  0.0656 -0.2475  0.1847
   32loPI   GL1  501  15.693  15.428  10.195  0.0149  0.0081 -0.0987
   32loPI   GL2  502  15.485  15.568  10.265  0.1969  0.1374  0.1565
   32loPI   C1A  503  15.845  15.610   9.792 -0.1643  0.2156 -0.2064
   32loPI   C2A  504  15.793  15.406   9.407  0.3179  0.0851 -0.1281
   32loPI   C3A  505  15.895  15.256   9.014  0.3685 -0.1994  0.0778
   32loPI   C4A  506  15.938  15.135   8.610 -0.0485  0.1804 -0.2456
   32loPI   C5A  507  16.047  15.273   8.145 -0.1089  0.1248 -0.0166
   32loPI   C6A  508  16.355  15.157   7.814 -0.1284 -0.3294 -0.1176
   32loPI   C1B  509  15.340  15.755   9.825  0.0501  0.0272  0.1794
   32loPI   C2B  510  15.407  15.812   9.406 -0.2164  0.1895 -0.0781
   32loPI   C3B  511  15.388  15.686   9.035 -0.0657 -0.1346 -0.0588
   32loPI   C4B  512  15.501  15.745   8.683  0.1995  0.0719  0.0038
   33loPI    C1  513  16.200   0.310  10.417 -0.1606 -0.0478  0.0864
   33loPI    C2  514  16.330   0.360  10.791 -0.0130  0.1045  0.0161
   33loPI    C3  515  15.985   0.526  10.676 -0.0062  0.1459  0.0553
   33loPI   PO4  516  16.143   0.083  10.359 -0.2062  0.1460  0.1085
   33loPI   GL1  517  16.020  -0.039   9.914  0.4268  0.2116 -0.1150
   33loPI   GL2  518  16.360  -0.157  10.010 -0.1215 -0.2335  0.1073
   33loPI   C1A  519  15.922  -0.142   9.529 -0.3402  0.2683  0.0791
   33loPI   C2A  520  15.835  -0.058   9.087 -0.1066 -0.1144 -0.2806
   33loPI   C3A  521  15.868   0.099   8.775 -0.0439  0.1306  0.2035
   33loPI   C4A  522  15.864   0.045   8.360 -0.1805 -0.0469  0.0021
   33loPI   C5A  523  15.933  -0.123   7.959 -0.2127  0.2851 -0.0631
   33loPI   C6A  524  15.621  -0.223   7.617  0.1907  0.3155  0.2100
   33loPI   C1B  525  16.409  -0.313   9.538 -0.2370 -0.4075 -0.0080
   33loPI   C2B  526  16.259  -0.298   9.146 -0.0742 -0.0403 -0.2877
   33loPI   C3B  527  16.235  -0.358   8.719  0.0830  0.1041  0.1848
   33loPI   C4B  528  16.264  -0.249   8.244 -0.0141 -0.0036 -0.1525
   34loPI    C1  529  14.130   2.414  10.690  0.2531 -0.1179 -0.0983
   34loPI    C2  530  13.958   2.107  10.881 -0.2556  0.2728  0.0937
   34loPI    C3  531  14.102   2.417  11.089  0.0510  0.2716 -0.1112
   34loPI   PO4  532  14.318   2.408  10.531 -0.0640  0.0893  0.1496
   34loPI   GL1  533  14.446   2.548  10.110  0.1335  0.0031 -0.1124
   34loPI   GL2  534  14.484   2.827  10.328 -0.0642  0.0790 -0.0275
   34loPI   C1A  535  14.741   2.660   9.827  0.1799 -0.1696 -0.0472
   34loPI   C2A  536  14.784   2.547   9.417  0.3028  0.2110 -0.0172
   34loPI   C3A  537  14.774   2.462   8.965  0.1688 -0.1254 -0.1073
   34loPI   C4A  538  14.801   2.549   8.532  0.2024 -0.1873  0.0110
   34loPI   C5A  539  15.057   2.584   8.070  0.0583  0.0920  0.1057
   34loPI   C6A  540  15.320   2.259   7.702  0.2929 -0.1954  0.0964
   34loPI   C1B  541  14.388   3.050   9.930 -0.0086  0.0945  0.1097
   34loPI   C2B  542  14.382   3.055   9.505 -0.0338 -0.1767  0.2613
   34loPI   C3B  543  14.474   2.864   9.131  0.3888  0.2880  0.0507
   34loPI   C4B  544  14.479   3.017   8.675  0.1352 -0.1951  0.3811
   35loPI    C1  545  10.041  12.867  10.930  0.1199 -0.1967  0.0073
   35loPI    C2  546   9.880  12.542  11.098 -0.1420  0.0613  0.2646
   35loPI    C3  547  10.272  12.611  11.132 -0.0538 -0.3139  0.0596
   35loPI   PO4  548   9.948  12.908  10.649 -0.0420 -0.0436  0.0920
   35loPI   GL1  549  10.169  12.890  10.255  0.0585 -0.0632  0.1289
   35loPI   GL2  550  10.031  12.596  10.116 -0.2003 -0.0866 -0.1506
   35loPI   C1A  551  10.251  12.957   9.876 -0.0035 -0.0985 -0.2403
   35loPI   C2A  552  10.309  12.825   9.456 -0.0657  0.3691  0.1544
   35loPI   C3A  553  10.542  12.796   9.208 -0.0971  0.0242 -0.4509
   35loPI   C4A  554  10.748  12.691   8.756 -0.1128  0.1184  0.0527
   35loPI   C5A  555  10.969  12.677   8.252  0.3772  0.0306 -0.2421
   35loPI   C6A  556  11.098  12.754   7.848  0.0758 -0.1770  0.0656
   35loPI   C1B  557   9.963  12.563   9.815  0.0919  0.3088  0.1760
   35loPI   C2B  558   9.895  12.474   9.409  0.6307 -0.1439  0.1590
   35loPI   C3B  559   9.915  12.552   9.054 -0.3896  0.0573 -0.1912
   35loPI   C4B  560   9.869  12.436   8.565 -0.3311 -0.2027 -0.1783
   36loPI    C1  561  12.786  16.560  10.612 -0.0765  0.1722  0.1162
   36loPI    C2  562  13.057  16.797  10.786 -0.0477  0.2441 -0.0249
   36loPI    C3  563  12.711  16.720  10.971  0.0007  0.2837  0.0833
   36loPI   PO4  564  12.805  16.565  10.322 -0.3175 -0.1452 -0.1339
   36loPI   GL1  565  12.891  16.383   9.947 -0.2964 -0.1711  0.1388
   36loPI   GL2  566  13.191  16.176  10.089 -0.2733 -0.0209  0.0669
   36loPI   C1A  567  12.880  16.569   9.574  0.0159 -0.2901 -0.0041
   36loPI   C2A  568  12.891  16.592   9.082 -0.3576 -0.1364  0.0920
   36loPI   C3A  569  12.800  16.451   8.744  0.0006  0.0154 -0.0172
   36loPI   C4A  570  12.780  16.532   8.296 -0.1009 -0.0980  0.0760
   36loPI   C5A  571  13.032  16.491   7.940  0.2100 -0.0776 -0.2381
   36loPI   C6A  572  13.202  16.821   7.858  0.0928  0.1183  0.1866
   36loPI   C1B  573  13.278  16.290   9.664  0.2612 -0.0600  0.0092
   36loPI   C2B  574  13.533  16.270   9.439  0.0782 -0.2098 -0.1069
   36loPI   C3B  575  13.731  16.282   9.012 -0.0917 -0.0173 -0.0011
   36loPI   C4B  576  13.667  16.154   8.577 -0.0521 -0.0002  0.1720
   37loPI    C1  577   5.349  11.598  10.391 -0.0304 -0.2921 -0.0121
   37loPI    C2  578   5.092  11.676  10.687  0.0795 -0.0128  0.0125
   37loPI    C3  579   5.482  11.640  10.766  0.1176  0.1277 -0.1062
   37loPI   PO4  580   5.236  11.724  10.153 -0.0249  0.0556  0.0511
   37loPI   GL1  581   5.162  12.016   9.832 -0.1180  0.3310 -0.0364
   37loPI   GL2  582   5.422  11.784   9.669  0.0602  0.0931  0.0671
   37loPI   C1A  583   4.970  12.091   9.436  0.0048 -0.2712  0.0980
   37loPI   C2A  584   4.933  12.047   8.959  0.0874  0.1310 -0.1272
   37loPI   C3A  585   4.982  12.085   8.487  0.1426 -0.0850  0.2713
   37loPI   C4A  586   4.959  12.109   8.022 -0.0247  0.1456  0.0528
   37loPI   C5A  587   4.999  12.121   7.568  0.0687 -0.0422  0.0295
   37loPI   C6A  588   5.380  11.995   7.333 -0.0104 -0.0380  0.0542
   37loPI   C1B  589   5.361  11.862   9.155  0.1702  0.0308 -0.0174
   37loPI   C2B  590   5.401  11.861   8.702 -0.0647  0.0115 -0.1152
   37loPI   C3B  591   5.340  11.834   8.276 -0.0591  0.0714  0.0956
   37loPI   C4B  592   5.568  11.832   7.864  0.1854  0.1681  0.0362
   38loPI    C1  593   5.036   7.067  10.212 -0.0902  0.0896 -0.2406
   38loPI    C2  594   4.656   7.178  10.153 -0.0450  0.4510  0.1016
   38loPI    C3  595   4.795   7.132  10.525  0.0887 -0.2662 -0.0225
   38loPI   PO4  596   5.100   6.929   9.999  0.0693 -0.1095  0.0719
   38loPI   GL1  597   5.098   7.046   9.628 -0.0702  0.3269  0.1316
   38loPI   GL2  598   4.745   7.007   9.640  0.3665 -0.2918  0.0072
   38loPI   C1A  599   5.250   7.030   9.180  0.1242 -0.2631 -0.4264
   38loPI   C2A  600   5.218   7.078   8.807  0.0512  0.1980 -0.0019
   38loPI   C3A  601   5.180   7.021   8.456 -0.1237  0.1246  0.1481
   38loPI   C4A  602   5.110   6.918   8.095 -0.0043 -0.0384  0.1652
   38loPI   C5A  603   5.198   7.083   7.616  0.1623  0.2112 -0.2035
   38loPI   C6A  604   5.206   7.369   7.368  0.1430 -0.1360  0.0789
   38loPI   C1B  605   4.736   7.083   9.138  0.1079  0.0578 -0.0540
   38loPI   C2B  606   4.659   7.027   8.677 -0.2025  0.2501 -0.3705
   38loPI   C3B  607   4.509   7.049   8.291 -0.0511 -0.0702  0.1339
   38loPI   C4B  608   4.721   6.941   7.842  0.2195  0.1477  0.1934
   39loPI    C1  609  10.856   6.117  10.677 -0.0450  0.1792 -0.2790
   39loPI    C2  610  10.960   5.961  11.030 -0.0137  0.1427 -0.3042
   39loPI    C3  611  10.894   6.354  10.998 -0.2325  0.1154 -0.2081
   39loPI   PO4  612  10.774   5.924  10.523 -0.1601  0.3809 -0.2550
   39loPI   GL1  613  10.689   6.021  10.154 -0.2202  0.0476  0.2084
   39loPI   GL2  614  10.744   5.736  10.079 -0.0789 -0.0949  0.4678
   39loPI   C1A  615  10.728   6.218   9.806 -0.0705  0.0970 -0.4908
   39loPI   C2A  616  10.933   6.242   9.401 -0.1362 -0.0394  0.0058
   39loPI   C3A  617  10.935   6.238   8.924 -0.1865 -0.1361 -0.1091
   39loPI   C4A  618  10.903   6.255   8.528  0.3463 -0.0041 -0.0127
   39loPI   C5A  619  10.555   6.304   8.347  0.1192 -0.1869 -0.0867
   39loPI   C6A  620  10.370   6.259   7.931  0.1422  0.0731 -0.1426
   39loPI   C1B  621  11.039   5.839   9.627 -0.3611  0.1694  0.0134
   39loPI   C2B  622  11.178   5.879   9.160 -0.1211 -0.2477  0.1516
   39loPI   C3B  623  11.284   5.945   8.739 -0.1569  0.2846 -0.5062
   39loPI   C4B  624  11.292   5.963   8.320  0.0148 -0.0154 -0.2049
   40loPI    C1  625   3.866   4.609  10.442 -0.1758  0.1961 -0.1053
   40loPI    C2  626   3.796   4.388  10.768  0.0478  0.1092 -0.1141
   40loPI    C3  627   3.663   4.765  10.749  0.0325  0.1143  0.0766
   40loPI   PO4  628   3.919   4.409  10.271 -0.0139 -0.3535  0.0185
   40loPI   GL1  629   3.936   4.414   9.957 -0.3006 -0.4542  0.2899
   40loPI   GL2  630   4.060   4.437   9.708 -0.1511  0.1239 -0.1642
   40loPI   C1A  631   4.080   3.929   9.696  0.0677  0.0644 -0.0667
   40loPI   C2A  632   3.986   3.658   9.297 -0.0672  0.0256  0.3702
   40loPI   C3A  633   3.977   3.477   9.010  0.1191  0.1636 -0.0262
   40loPI   C4A  634   3.827   3.474   8.621  0.0702  0.2691 -0.1787
   40loPI   C5A  635   3.806   3.441   8.196 -0.1599 -0.1425 -0.0267
   40loPI   C6A  636   3.644   3.183   7.930  0.0574  0.0653 -0.0183
   40loPI   C1B  637   4.071   4.548   9.297 -0.0412 -0.1211 -0.0220
   40loPI   C2B  638   3.869   4.440   8.904 -0.1034  0.0455 -0.0959
   40loPI   C3B  639   3.768   4.370   8.405 -0.0218 -0.1426 -0.3329
   40loPI   C4B  640   3.398   4.397   8.222 -0.0982  0.0460 -0.0122
   41loPI    C1  641  16.256  16.221  10.561  0.3428 -0.1978  0.1243
   41loPI    C2  642  16.502  16.279  10.871  0.1864 -0.0033  0.2146
   41loPI    C3  643  16.169  16.496  10.837  0.0178 -0.2736  0.1011
   41loPI   PO4  644  16.411  16.123  10.378 -0.0751 -0.4539 -0.0262
   41loPI   GL1  645  16.480  16.160   9.999 -0.2459 -0.1030 -0.0684
   41loPI   GL2  646  16.719  16.017   9.809 -0.0744 -0.1140  0.0651
   41loPI   C1A  647  16.134  16.084   9.706 -0.1486 -0.0812  0.1526
   41loPI   C2A  648  15.945  15.856   9.381 -0.1794  0.0304 -0.2332
   41loPI   C3A  649  15.960  15.743   8.935  0.0235  0.1024  0.1378
   41loPI   C4A  650  15.950  15.680   8.535 -0.2684 -0.0040 -0.5436
   41loPI   C5A  651  15.634  15.490   8.263 -0.0135  0.1240 -0.2686
   41loPI   C6A  652  15.318  15.202   8.288  0.2621 -0.1553 -0.2456
   41loPI   C1B  653  16.518  15.964   9.392  0.1487 -0.4320  0.1016
   41loPI   C2B  654  16.514  15.837   8.898 -0.1703  0.1699 -0.0512
   41loPI   C3B  655  16.451  15.811   8.514  0.0392 -0.0428 -0.3274
   41loPI   C4B  656  16.122  15.847   8.097  0.2074 -0.0443  0.3004
   42loPI    C1  657   7.920  13.662  10.332 -0.2800  0.0572  0.1545
   42loPI    C2  658   7.908  13.262  10.340 -0.1563  0.0503  0.0415
   42loPI    C3  659   8.260  13.451  10.331 -0.2136  0.1634  0.1365
   42loPI   PO4  660   7.828  13.719  10.117 -0.0449 -0.1203 -0.4420
   42loPI   GL1  661   7.803  13.943   9.860 -0.0542 -0.0595  0.3264
   42loPI   GL2  662   8.105  14.158   9.851  0.1506  0.1694  0.2110
   42loPI   C1A  663   7.725  13.722   9.477 -0.0200  0.1005 -0.1508
   42loPI   C2A  664   7.703  13.745   9.035 -0.2946 -0.1226  0.1208
   42loPI   C3A  665   7.610  13.837   8.638  0.0902  0.0552  0.1532
   42loPI   C4A  666   7.835  13.855   8.230  0.1574 -0.1764 -0.1540
   42loPI   C5A  667   8.160  13.867   7.825 -0.0501  0.1178  0.1391
   42loPI   C6A  668   8.593  13.899   7.682  0.0909 -0.0589 -0.1130
   42loPI   C1B  669   7.785  14.192   9.423 -0.4228 -0.1286  0.1300
   42loPI   C2B  670   7.632  14.234   8.978 -0.0898  0.2850 -0.0753
   42loPI   C3B  671   7.588  14.361   8.554  0.0786  0.0075 -0.2348
   42loPI   C4B  672   7.284  14.555   8.315 -0.0740  0.2227 -0.1838
   43loPI    C1  673   1.389   7.821  10.312  0.0754 -0.3696  0.1927
   43loPI    C2  674   1.176   8.138  10.430 -0.0806 -0.3629 -0.0979
   43loPI    C3  675   1.524   8.053  10.608  0.0164  0.0340 -0.0887
   43loPI   PO4  676   1.378   7.809  10.088 -0.5664 -0.0195  0.5186
   43loPI   GL1  677   1.434   7.785   9.655 -0.1917  0.0966  0.1362
   43loPI   GL2  678   1.334   7.522   9.673  0.2285  0.2688  0.0904
   43loPI   C1A  679   1.312   8.143   9.426  0.0372  0.2626  0.2929
   43loPI   C2A  680   1.321   8.172   9.016 -0.1969  0.3993  0.1160
   43loPI   C3A  681   1.152   8.314   8.608  0.0637 -0.0207  0.0773
   43loPI   C4A  682   0.874   8.330   8.167 -0.0742 -0.3801 -0.0210
   43loPI   C5A  683   0.903   8.351   7.707 -0.1018 -0.0772 -0.0148
   43loPI   C6A  684   1.216   8.046   7.526  0.3077  0.0520  0.4244
   43loPI   C1B  685   1.274   7.593   9.228  0.1154 -0.1789  0.4109
   43loPI   C2B  686   1.243   7.737   8.840 -0.0239  0.1844  0.2533
   43loPI   C3B  687   1.330   7.861   8.447  0.1486  0.2313  0.1240
   43loPI   C4B  688   1.220   8.024   8.041  0.2197  0.0619  0.0313
   44loPI    C1  689  18.226   7.759  10.278 -0.0795 -0.2707  0.1320
   44loPI    C2  690  18.577   7.744  10.469 -0.1202  0.1037  0.2445
   44loPI    C3  691  18.239   7.792  10.677 -0.2473 -0.3048  0.1411
   44loPI   PO4  692  18.289   7.735  10.070  0.0628 -0.1220  0.0847
   44loPI   GL1  693  18.289   7.441   9.673 -0.0931  0.0292 -0.3525
   44loPI   GL2  694  18.104   7.210   9.550  0.0094  0.2308 -0.0210
   44loPI   C1A  695  18.398   7.412   9.198 -0.1651  0.2215 -0.1474
   44loPI   C2A  696  18.132   7.127   8.992  0.1248  0.2535 -0.2219
   44loPI   C3A  697  18.002   6.748   8.854  0.3395  0.3485 -0.0392
   44loPI   C4A  698  17.769   6.502   8.644  0.2002 -0.0980 -0.5609
   44loPI   C5A  699  17.725   6.580   8.237 -0.0111  0.1125 -0.2963
   44loPI   C6A  700  17.753   6.583   7.808  0.0873  0.0528  0.0663
   44loPI   C1B  701  17.938   7.584   9.330 -0.1339  0.0474  0.0703
   44loPI   C2B  702  17.903   7.651   8.951  0.3012  0.1874  0.1207
   44loPI   C3B  703  17.888   7.364   8.579  0.2153 -0.1098 -0.1811
   44loPI   C4B  704  18.062   7.008   8.402 -0.0651 -0.0890 -0.2841
   45loPI    C1  705  10.514   8.337  10.505 -0.1779  0.2185 -0.0327
   45loPI    C2  706  10.519   8.159  10.863 -0.0713 -0.0433 -0.1615
   45loPI    C3  707  10.772   8.040  10.578 -0.1543  0.1649 -0.3244
   45loPI   PO4  708  10.316   8.560  10.613  0.1111  0.1566  0.1530
   45loPI   GL1  709   9.993   8.856  10.332  0.1212 -0.0159 -0.1041
   45loPI   GL2  710  10.007   8.565  10.187 -0.0871  0.0192 -0.2896
   45loPI   C1A  711   9.932   8.955   9.916  0.0374 -0.0069  0.1555
   45loPI   C2A  712   9.955   8.908   9.595  0.4635  0.2048 -0.1038
   45loPI   C3A  713   9.963   8.946   9.172 -0.2221 -0.1047  0.2006
   45loPI   C4A  714   9.887   9.099   8.751 -0.1969  0.0213  0.0087
   45loPI   C5A  715   9.819   9.177   8.285 -0.0025 -0.0214  0.1402
   45loPI   C6A  716   9.621   9.417   7.828  0.0338 -0.1198  0.0696
   45loPI   C1B  717  10.263   8.440   9.818  0.1601  0.1421  0.2177
   45loPI   C2B  718  10.247   8.571   9.363 -0.1856  0.1865 -0.1027
   45loPI   C3B  719  10.179   8.528   8.986 -0.2901 -0.2833 -0.2220
   45loPI   C4B  720  10.234   8.458   8.593  0.2618 -0.1463 -0.1197
   46loPI    C1  721   7.528   1.760  10.216 -0.2236 -0.1451 -0.0966
   46loPI    C2  722   7.892   1.709  10.375 -0.0028 -0.0930 -0.5672
   46loPI    C3  723   7.591   1.467  10.481  0.1583 -0.1204 -0.1538
   46loPI   PO4  724   7.648   1.915   9.983  0.1162  0.1397  0.0118
   46loPI   GL1  725   7.963   1.945   9.629  0.1574 -0.3421 -0.1436
   46loPI   GL2  726   8.020   2.199   9.681  0.0184  0.3625  0.1565
   46loPI   C1A  727   8.014   1.833   9.172 -0.1781  0.0729 -0.0410
   46loPI   C2A  728   8.042   2.019   8.740 -0.2094 -0.2840 -0.1246
   46loPI   C3A  729   7.921   1.990   8.313  0.0799 -0.0898  0.0992
   46loPI   C4A  730   7.759   1.998   7.828 -0.1846 -0.2308 -0.0873
   46loPI   C5A  731   7.768   2.269   7.474 -0.0106 -0.1013  0.2519
   46loPI   C6A  732   8.251   2.450   7.395 -0.0761  0.0253 -0.1503
   46loPI   C1B  733   8.325   2.205   9.310  0.3017  0.0807  0.3378
   46loPI   C2B  734   8.637   2.068   8.972  0.1725 -0.0983  0.0825
   46loPI   C3B  735   8.483   2.005   8.547 -0.1082  0.1486 -0.4988
   46loPI   C4B  736   8.500   1.997   8.108  0.0878 -0.0918 -0.2119
   47loPI    C1  737   4.810   9.160   9.946  0.0228  0.0788  0.0735
   47loPI    C2  738   4.560   9.188  10.257  0.0041 -0.0323  0.0691
   47loPI    C3  739   4.425   9.060   9.903  0.0700 -0.1054  0.0702
   47loPI   PO4  740   4.999   8.930  10.057  0.1906 -0.0064  0.2311
   47loPI   GL1  741   5.375   8.771   9.867  0.0097 -0.1644 -0.1975
   47loPI   GL2  742   5.584   8.649   9.586 -0.1043  0.1249  0.1111
   47loPI   C1A  743   5.111   8.854   9.421  0.3442  0.1288 -0.1975
   47loPI   C2A  744   4.989   8.920   8.959  0.0741 -0.1377 -0.0218
   47loPI   C3A  745   5.079   9.020   8.518 -0.2426 -0.1121  0.2222
   47loPI   C4A  746   5.458   9.256   8.260 -0.0936  0.1870 -0.0525
   47loPI   C5A  747   5.569   9.574   7.896  0.1696 -0.0344  0.2255
   47loPI   C6A  748   5.747  10.044   7.806 -0.1636 -0.0665 -0.2102
   47loPI   C1B  749   5.419   8.498   9.202  0.1495 -0.0749  0.1954
   47loPI   C2B  750   5.396   8.667   8.839 -0.0676 -0.0046  0.1466
   47loPI   C3B  751   5.549   8.728   8.361 -0.0208  0.2248 -0.0022
   47loPI   C4B  752   5.692   8.902   8.050  0.0961  0.1140 -0.0171
   48loPI    C1  753   4.081  11.757  10.564  0.2887 -0.1792  0.2125
   48loPI    C2  754   4.079  12.155  10.605 -0.2394 -0.1639  0.1207
   48loPI    C3  755   4.420  11.964  10.519  0.0042  0.2740  0.0834
   48loPI   PO4  756   3.873  11.703  10.284  0.0577 -0.0063 -0.2535
   48loPI   GL1  757   3.809  12.072   9.873  0.3200  0.1178  0.1185
   48loPI   GL2  758   3.880  11.771   9.800  0.1487  0.2463  0.3398
   48loPI   C1A  759   4.110  12.109   9.505  0.1409 -0.2906 -0.2779
   48loPI   C2A  760   4.075  12.087   9.059  0.4360 -0.5069  0.3090
   48loPI   C3A  761   4.082  12.007   8.651  0.1097 -0.1279  0.0983
   48loPI   C4A  762   4.248  12.079   8.137  0.2043  0.0621  0.0748
   48loPI   C5A  763   4.534  12.135   7.701 -0.1495  0.0041  0.0064
   48loPI   C6A  764   4.577  12.362   7.300 -0.0401  0.1162  0.2556
   48loPI   C1B  765   3.782  11.793   9.327  0.0198 -0.0505 -0.0822
   48loPI   C2B  766   3.737  11.736   8.850 -0.1678  0.0259 -0.0786
   48loPI   C3B  767   3.591  11.722   8.510  0.2089  0.0442  0.2351
   48loPI   C4B  768   3.609  11.747   8.110  0.2300 -0.0518  0.0019
   49loPI    C1  769   8.293   7.202  10.570  0.1813 -0.1300  0.2013
   49loPI    C2  770   8.228   7.041  10.930  0.0067 -0.2836  0.1029
   49loPI    C3  771   8.602   7.078  10.792  0.1071  0.1506  0.4677
   49loPI   PO4  772   8.122   7.109  10.427  0.0292 -0.2792 -0.0980
   49loPI   GL1  773   8.048   7.121   9.999 -0.2029  0.1594 -0.2598
   49loPI   GL2  774   7.927   6.823  10.037 -0.2505 -0.4542 -0.1259
   49loPI   C1A  775   7.921   7.073   9.616 -0.0249  0.0295  0.0187
   49loPI   C2A  776   7.817   6.968   9.223  0.1132  0.0125  0.2034
   49loPI   C3A  777   7.820   7.011   8.738 -0.2182 -0.0330 -0.0320
   49loPI   C4A  778   7.993   6.758   8.444 -0.1101 -0.1777 -0.0069
   49loPI   C5A  779   8.351   6.579   8.393  0.1291 -0.2216  0.3376
   49loPI   C6A  780   8.712   6.787   8.249  0.1814  0.2691  0.3233
   49loPI   C1B  781   7.990   6.585   9.696  0.4051  0.1286 -0.4479
   49loPI   C2B  782   8.125   6.468   9.310  0.0686  0.0606  0.0434
   49loPI   C3B  783   8.177   6.517   8.891  0.1880  0.1514  0.1890
   49loPI   C4B  784   8.144   6.216   8.635  0.0506  0.0823 -0.2413
   50loPI    C1  785  14.293  14.323  11.119  0.1551  0.0775 -0.1122
   50loPI    C2  786  14.600  14.413  11.359  0.0297  0.0775  0.0499
   50loPI    C3  787  14.253  14.610  11.396  0.0635  0.1973 -0.2479
   50loPI   PO4  788  14.399  14.365  10.889 -0.2899 -0.2256  0.1763
   50loPI   GL1  789  14.351  14.107  10.539  0.0479  0.0988 -0.0435
   50loPI   GL2  790  14.055  14.139  10.484  0.1531 -0.1232  0.1060
   50loPI   C1A  791  14.510  13.910  10.138 -0.0729  0.0977 -0.1468
   50loPI   C2A  792  14.395  13.733   9.692  0.0129 -0.0026  0.0977
   50loPI   C3A  793  14.452  13.637   9.216  0.4137  0.0132  0.3844
   50loPI   C4A  794  14.578  13.618   8.755  0.2308 -0.0237  0.1855
   50loPI   C5A  795  14.392  13.701   8.420 -0.2245  0.0087  0.1523
   50loPI   C6A  796  14.167  14.023   8.180 -0.3702 -0.0161  0.3887
   50loPI   C1B  797  13.966  14.103  10.033 -0.0137 -0.0237  0.0265
   50loPI   C2B  798  13.979  13.992   9.591  0.1174  0.2735  0.1060
   50loPI   C3B  799  14.042  13.999   9.199 -0.1046  0.1275 -0.0059
   50loPI   C4B  800  14.111  13.968   8.760 -0.0876  0.2893  0.0013
   51loPI    C1  801   5.861   9.050  10.725 -0.0895  0.0798 -0.1566
   51loPI    C2  802   6.150   9.323  10.770  0.0033 -0.0446  0.0130
   51loPI    C3  803   6.184   8.965  10.945 -0.1513 -0.1398 -0.1484
   51loPI   PO4  804   5.840   8.950  10.462  0.2564  0.0886  0.2064
   51loPI   GL1  805   5.918   8.822  10.064 -0.0259 -0.1442  0.1503
   51loPI   GL2  806   6.188   8.836   9.993 -0.1900 -0.1988  0.0567
   51loPI   C1A  807   5.958   8.900   9.547  0.2638 -0.1194  0.2311
   51loPI   C2A  808   5.821   8.857   9.131 -0.1054 -0.3338 -0.1159
   51loPI   C3A  809   5.940   8.828   8.713  0.0113 -0.1674 -0.2796
   51loPI   C4A  810   6.125   8.699   8.286  0.1143  0.3043  0.4011
   51loPI   C5A  811   6.390   8.475   8.024 -0.1129  0.0867  0.0039
   51loPI   C6A  812   6.791   8.376   7.987 -0.2359 -0.0316 -0.0316
   51loPI   C1B  813   6.405   8.718   9.591 -0.1053 -0.2265 -0.0164
   51loPI   C2B  814   6.542   8.487   9.355 -0.0813 -0.3718 -0.0366
   51loPI   C3B  815   6.626   8.367   8.999 -0.0684 -0.2753 -0.1411
   51loPI   C4B  816   6.428   8.401   8.575 -0.0153  0.2549  0.0123
   52loPI    C1  817  15.173   9.556  10.435 -0.1683 -0.2765 -0.1916
   52loPI    C2  818  15.084   9.216  10.627  0.0124 -0.2053  0.0223
   52loPI    C3  819  14.975   9.569  10.782 -0.0648 -0.1587 -0.1360
   52loPI   PO4  820  15.368   9.442  10.267 -0.0551  0.1665 -0.1502
   52loPI   GL1  821  15.259   9.374   9.903  0.0207 -0.0738  0.0050
   52loPI   GL2  822  15.402   9.099   9.794 -0.0082 -0.0695 -0.0349
   52loPI   C1A  823  15.003   9.367   9.446  0.2131  0.1259  0.1678
   52loPI   C2A  824  14.813   9.337   9.072  0.0787 -0.2169 -0.3185
   52loPI   C3A  825  15.014   9.337   8.622  0.3336 -0.2505 -0.1084
   52loPI   C4A  826  15.122   9.095   8.367  0.1613  0.1757  0.2903
   52loPI   C5A  827  15.434   8.839   8.157  0.2357 -0.0311 -0.0615
   52loPI   C6A  828  15.582   8.445   7.996 -0.2878  0.0907  0.3272
   52loPI   C1B  829  15.459   8.963   9.421 -0.0808 -0.1021 -0.0647
   52loPI   C2B  830  15.249   9.024   9.002  0.0204 -0.1043  0.0796
   52loPI   C3B  831  14.899   8.867   8.721 -0.2237 -0.1400  0.0982
   52loPI   C4B  832  14.736   8.767   8.404 -0.3241  0.2911 -0.0572
   53loPI    C1  833  13.977  13.697  10.913  0.0296  0.0983  0.0752
   53loPI    C2  834  13.895  14.084  10.970  0.0228  0.1397 -0.2031
   53loPI    C3  835  13.643  13.804  11.106  0.1204  0.2246  0.1639
   53loPI   PO4  836  14.131  13.658  10.729 -0.0286  0.1308 -0.0936
   53loPI   GL1  837  14.163  13.579  10.367 -0.3393  0.0311  0.4952
   53loPI   GL2  838  13.889  13.661  10.236 -0.2558  0.0266 -0.1215
   53loPI   C1A  839  14.278  13.345  10.050  0.4168  0.0644 -0.1357
   53loPI   C2A  840  14.305  13.211   9.636 -0.3036 -0.0442 -0.0267
   53loPI   C3A  841  14.324  13.103   9.214  0.0640 -0.2280  0.2241
   53loPI   C4A  842  14.430  13.147   8.870 -0.2080 -0.1928 -0.0292
   53loPI   C5A  843  14.405  13.114   8.453  0.0982 -0.1971  0.1766
   53loPI   C6A  844  14.083  13.197   8.153  0.0652 -0.2911 -0.2561
   53loPI   C1B  845  13.872  13.527   9.759 -0.0430 -0.3918 -0.2773
   53loPI   C2B  846  13.934  13.494   9.308  0.2597  0.0092  0.0259
   53loPI   C3B  847  14.026  13.463   8.785  0.0847  0.0146 -0.0483
   53loPI   C4B  848  13.898  13.657   8.407 -0.2613  0.0641 -0.0697
   54loPI    C1  849   1.534  11.469  10.734 -0.4711  0.0690  0.2924
   54loPI    C2  850   1.673  11.803  10.905 -0.0891  0.0554  0.0227
   54loPI    C3  851   1.650  11.464  11.117  0.1120  0.1050  0.1259
   54loPI   PO4  852   1.648  11.414  10.567  0.0573  0.0262 -0.0408
   54loPI   GL1  853   1.722  11.401  10.097  0.2118  0.0687 -0.0167
   54loPI   GL2  854   1.997  11.316  10.011 -0.0240  0.0074  0.0828
   54loPI   C1A  855   1.535  11.726   9.946  0.1473  0.0329  0.3041
   54loPI   C2A  856   1.473  11.754   9.550  0.0212  0.0846  0.0340
   54loPI   C3A  857   1.348  11.931   9.236  0.0382 -0.1016  0.0514
   54loPI   C4A  858   1.420  11.911   8.638 -0.1541 -0.2341 -0.2535
   54loPI   C5A  859   1.623  11.853   8.235  0.0655 -0.3323  0.0500
   54loPI   C6A  860   1.769  11.488   8.040  0.4042  0.3395 -0.0696
   54loPI   C1B  861   2.004  11.566   9.611 -0.1196 -0.1771  0.2771
   54loPI   C2B  862   1.881  11.633   9.269 -0.0765 -0.0190 -0.1837
   54loPI   C3B  863   1.791  11.748   8.997 -0.4892 -0.6563 -0.1007
   54loPI   C4B  864   1.957  11.596   8.593 -0.0751 -0.0350  0.0732
   55loPI    C1  865   7.445  15.880  10.764  0.0655 -0.4271  0.0769
   55loPI    C2  866   7.691  15.921  11.077 -0.1278 -0.0714  0.1882
   55loPI    C3  867   7.306  15.830  11.135 -0.2245  0.2493  0.0750
   55loPI   PO4  868   7.590  15.995  10.494  0.2568  0.1995 -0.1829
   55loPI   GL1  869   7.563  15.944  10.132 -0.0335  0.0270  0.3270
   55loPI   GL2  870   7.580  16.256  10.023  0.4955 -0.0650 -0.0688
   55loPI   C1A  871   7.566  15.733   9.779  0.2104  0.1015 -0.0292
   55loPI   C2A  872   7.651  15.674   9.307  0.0714 -0.0160 -0.1060
   55loPI   C3A  873   7.530  15.799   8.996  0.3014 -0.1784  0.0724
   55loPI   C4A  874   7.440  15.830   8.513 -0.0167  0.3575  0.1612
   55loPI   C5A  875   7.552  15.850   8.115  0.1748  0.1603  0.0486
   55loPI   C6A  876   7.490  15.691   7.648  0.0703  0.3439 -0.0386
   55loPI   C1B  877   7.654  16.144   9.618  0.1148 -0.0777  0.2102
   55loPI   C2B  878   7.684  16.244   9.281  0.0496 -0.0022 -0.0587
   55loPI   C3B  879   7.560  16.246   8.812 -0.0515  0.2823 -0.1183
   55loPI   C4B  880   7.450  16.300   8.321  0.0585  0.1595  0.0754
   56loPI    C1  881  14.068  16.620  10.714 -0.1492 -0.2165 -0.0305
   56loPI    C2  882  13.747  16.398  10.801 -0.1738 -0.0970  0.1912
   56loPI    C3  883  13.911  16.631  11.082 -0.2106  0.2456 -0.0647
   56loPI   PO4  884  14.173  16.498  10.606  0.3881  0.1581 -0.1640
   56loPI   GL1  885  14.233  16.452  10.221  0.1356 -0.0184  0.0667
   56loPI   GL2  886  14.310  16.757  10.019  0.1756 -0.3885 -0.1291
   56loPI   C1A  887  14.464  16.172   9.894  0.0865 -0.1029 -0.0965
   56loPI   C2A  888  14.459  16.087   9.481  0.3610 -0.2641 -0.2462
   56loPI   C3A  889  14.472  16.079   9.029  0.1111  0.1473 -0.0088
   56loPI   C4A  890  14.580  16.069   8.593  0.3218 -0.0247 -0.0990
   56loPI   C5A  891  14.707  15.736   8.395 -0.0509  0.0984 -0.1328
   56loPI   C6A  892  14.639  15.397   8.416 -0.2270 -0.1122  0.1369
   56loPI   C1B  893  14.317  16.926   9.512  0.0790 -0.1630 -0.1183
   56loPI   C2B  894  14.322  16.992   9.133  0.3048  0.0131  0.0744
   56loPI   C3B  895  14.434  16.963   8.913 -0.1897  0.1718  0.0506
   56loPI   C4B  896  14.401  16.803   8.523  0.0585 -0.0645 -0.1796
   57loPI    C1  897  15.316  11.900  10.698  0.1840  0.2273  0.0599
   57loPI    C2  898  15.237  11.717  11.045 -0.1031  0.2876  0.0287
   57loPI    C3  899  15.581  11.917  10.997  0.1926 -0.1924  0.0819
   57loPI   PO4  900  15.204  11.759  10.500 -0.0483  0.0560 -0.0180
   57loPI   GL1  901  14.974  11.767  10.130  0.0180  0.2294 -0.0820
   57loPI   GL2  902  14.791  12.019  10.123  0.2922 -0.0649  0.0060
   57loPI   C1A  903  15.179  11.637   9.759  0.0334 -0.4654  0.1867
   57loPI   C2A  904  15.445  11.447   9.354  0.2183  0.0461  0.1288
   57loPI   C3A  905  15.535  11.379   8.945 -0.3052 -0.0256  0.2756
   57loPI   C4A  906  15.682  11.451   8.476 -0.2675  0.2422  0.0967
   57loPI   C5A  907  15.467  11.758   8.170  0.2302 -0.1249 -0.3362
   57loPI   C6A  908  15.167  11.880   7.991 -0.1002 -0.2583 -0.2392
   57loPI   C1B  909  14.900  12.040   9.718  0.2043 -0.0828  0.0725
   57loPI   C2B  910  14.998  11.925   9.307  0.0228 -0.2442  0.0981
   57loPI   C3B  911  15.041  11.635   8.980 -0.2352 -0.0655  0.1464
   57loPI   C4B  912  15.197  11.565   8.539  0.0686 -0.0259 -0.2879
   58loPI    C1  913   6.625  12.857   9.975 -0.0629  0.0877 -0.2523
   58loPI    C2  914   6.262  12.694   9.927 -0.0309 -0.0226 -0.1241
   58loPI    C3  915   6.303  13.092   9.937 -0.1218 -0.0065 -0.3430
   58loPI   PO4  916   6.793  12.763   9.765  0.0527  0.1028 -0.1113
   58loPI   GL1  917   6.749  12.577   9.372  0.2715  0.0881 -0.0078
   58loPI   GL2  918   6.975  12.475   9.477  0.1326  0.1778 -0.0561
   58loPI   C1A  919   6.767  12.627   8.955 -0.0259 -0.0644  0.1016
   58loPI   C2A  920   6.765  12.682   8.458 -0.0367 -0.0523 -0.2021
   58loPI   C3A  921   6.825  12.752   8.074 -0.0449  0.0956 -0.2290
   58loPI   C4A  922   6.764  13.114   7.814 -0.3852  0.0793 -0.0037
   58loPI   C5A  923   6.498  13.236   7.544 -0.0341 -0.1554  0.2237
   58loPI   C6A  924   6.038  13.193   7.458  0.1657 -0.0813  0.0715
   58loPI   C1B  925   7.105  12.356   9.145  0.2633 -0.1384 -0.2000
   58loPI   C2B  926   7.230  12.530   8.772 -0.0174  0.0412  0.1738
   58loPI   C3B  927   7.229  12.816   8.386 -0.0861 -0.1483  0.0905
   58loPI   C4B  928   7.335  12.912   7.964  0.0166  0.3300  0.1978
   59loPI    C1  929  14.986  10.780  10.768  0.0998  0.0119 -0.1100
   59loPI    C2  930  14.762  10.972  11.039 -0.0541 -0.0241 -0.2101
   59loPI    C3  931  15.079  10.757  11.157 -0.1871 -0.1337 -0.0470
   59loPI   PO4  932  14.851  10.871  10.557  0.0686 -0.1830  0.1229
   59loPI   GL1  933  15.031  11.051  10.224  0.1186 -0.2267  0.1970
   59loPI   GL2  934  15.218  11.340  10.170 -0.1521  0.0145  0.1767
   59loPI   C1A  935  15.034  11.166   9.768  0.3453  0.1611 -0.3569
   59loPI   C2A  936  14.970  11.265   9.357 -0.1175  0.1724 -0.1427
   59loPI   C3A  937  15.080  11.182   8.891  0.1539  0.1787  0.0892
   59loPI   C4A  938  15.349  11.054   8.476 -0.2460  0.2111  0.0937
   59loPI   C5A  939  15.528  10.690   8.361 -0.0512 -0.0030  0.1564
   59loPI   C6A  940  15.843  10.455   8.282 -0.1440 -0.2190 -0.2628
   59loPI   C1B  941  15.548  11.205   9.781  0.0799 -0.2556  0.2723
   59loPI   C2B  942  15.524  10.972   9.349  0.0888  0.3474  0.2149
   59loPI   C3B  943  15.413  10.760   8.917 -0.1853  0.3070 -0.1876
   59loPI   C4B  944  15.012  10.683   8.685  0.1780 -0.0980 -0.0508
   60loPI    C1  945   9.853   5.597  10.434  0.1960 -0.0690  0.0964
   60loPI    C2  946   9.481   5.743  10.431  0.0734 -0.3750 -0.1216
   60loPI    C3  947   9.647   5.628  10.776  0.0369 -0.0687  0.0014
   60loPI   PO4  948   9.900   5.461  10.241 -0.0691 -0.0622 -0.0791
   60loPI   GL1  949   9.877   5.475   9.871 -0.2428 -0.0784  0.0462
   60loPI   GL2  950   9.630   5.686   9.872  0.0904  0.0505  0.3093
   60loPI   C1A  951   9.973   5.439   9.512  0.1413 -0.1205 -0.1842
   60loPI   C2A  952  10.161   5.721   9.240  0.3168  0.2749  0.0119
   60loPI   C3A  953  10.144   5.774   8.800  0.0548  0.1148  0.0370
   60loPI   C4A  954  10.322   5.848   8.450  0.2286  0.2171  0.1754
   60loPI   C5A  955  10.406   5.570   8.070 -0.0149  0.1296 -0.0281
   60loPI   C6A  956  10.663   5.275   8.122 -0.2230  0.0071  0.1331
   60loPI   C1B  957   9.549   5.724   9.426 -0.0206  0.3116 -0.1000
   60loPI   C2B  958   9.516   5.969   8.939 -0.3319 -0.0174  0.0194
   60loPI   C3B  959   9.886   6.154   8.656  0.0258 -0.0828 -0.1257
   60loPI   C4B  960  10.040   6.307   8.303  0.2187 -0.0865  0.1017
   61loPI    C1  961  17.578  15.221  10.610 -0.2161  0.1288  0.2490
   61loPI    C2  962  17.668  15.570  10.437  0.1704 -0.2485 -0.3471
   61loPI    C3  963  17.959  15.338  10.585 -0.0816 -0.3301  0.0357
   61loPI   PO4  964  17.380  15.146  10.450 -0.0116  0.0865  0.0047
   61loPI   GL1  965  17.314  14.940  10.019  0.0649  0.2212  0.1763
   61loPI   GL2  966  17.513  14.617   9.878  0.1128  0.0821 -0.1368
   61loPI   C1A  967  17.231  15.222   9.614  0.1251  0.1238  0.0007
   61loPI   C2A  968  17.485  15.264   9.350  0.2397 -0.3503 -0.2526
   61loPI   C3A  969  17.598  15.328   8.937  0.2889 -0.1157  0.3914
   61loPI   C4A  970  17.573  15.449   8.422 -0.1606 -0.0405  0.0490
   61loPI   C5A  971  17.397  15.224   8.034 -0.1166  0.0511 -0.1742
   61loPI   C6A  972  17.643  14.943   7.761 -0.0244 -0.4908 -0.0926
   61loPI   C1B  973  17.469  14.730   9.444 -0.1525  0.0757  0.2176
   61loPI   C2B  974  17.499  14.810   9.061 -0.1324  0.3226  0.0787
   61loPI   C3B  975  17.477  14.679   8.698  0.4567  0.1068 -0.0608
   61loPI   C4B  976  17.610  14.474   8.372  0.1269  0.2591  0.0529
   62loPI    C1  977   6.729  13.406  10.394  0.3209  0.1476 -0.4334
   62loPI    C2  978   7.050  13.292  10.604  0.1808  0.2192 -0.1755
   62loPI    C3  979   6.985  13.680  10.533  0.0577  0.2184 -0.0713
   62loPI   PO4  980   6.722  13.320  10.112 -0.5550 -0.0099 -0.1890
   62loPI   GL1  981   6.651  13.279   9.639  0.0222 -0.1288  0.2313
   62loPI   GL2  982   6.439  13.538   9.700  0.3278  0.0799  0.2160
   62loPI   C1A  983   6.789  13.077   9.223  0.0579 -0.0307  0.1873
   62loPI   C2A  984   6.852  13.151   8.745 -0.1252 -0.1866 -0.3254
   62loPI   C3A  985   6.785  13.191   8.347  0.1927  0.3357  0.0627
   62loPI   C4A  986   6.957  13.582   8.015 -0.1006  0.0928  0.1867
   62loPI   C5A  987   7.190  13.815   7.761  0.2314 -0.0904 -0.0492
   62loPI   C6A  988   7.503  14.003   7.610 -0.1635 -0.0760 -0.1485
   62loPI   C1B  989   6.276  13.364   9.323 -0.0100 -0.0455  0.2177
   62loPI   C2B  990   6.281  13.475   8.883 -0.0387 -0.2816  0.0489
   62loPI   C3B  991   6.366  13.473   8.427  0.4860 -0.1894 -0.0681
   62loPI   C4B  992   6.458  13.453   8.016 -0.2076  0.2413 -0.0098
   63loPI    C1  993  14.793  10.377  10.984 -0.0446 -0.0655  0.2291
   63loPI    C2  994  14.917   9.997  10.987  0.3241  0.0509  0.2367
   63loPI    C3  995  14.774  10.162  11.321  0.1593 -0.0807  0.2325
   63loPI   PO4  996  14.696  10.326  10.689  0.0139  0.0880 -0.2616
   63loPI   GL1  997  14.738  10.351  10.242 -0.0968 -0.1552  0.2498
   63loPI   GL2  998  14.798  10.584  10.018 -0.1215 -0.1898  0.0750
   63loPI   C1A  999  14.791  10.119   9.790  0.1351 -0.0932 -0.2010
   63loPI   C2A 1000  14.676  10.187   9.371  0.0303 -0.1271 -0.1737
   63loPI   C3A 1001  14.620  10.285   9.007 -0.1160 -0.0919  0.0737
   63loPI   C4A 1002  14.620  10.321   8.559  0.0906 -0.2774 -0.0033
   63loPI   C5A 1003  15.021  10.464   8.294 -0.2866  0.0019 -0.2897
   63loPI   C6A 1004  15.020  10.890   8.152  0.0023 -0.2822  0.2036
   63loPI   C1B 1005  14.862  10.667   9.596  0.0111  0.2775 -0.1058
   63loPI   C2B 1006  14.829  10.820   9.207 -0.2265 -0.0720 -0.0309
   63loPI   C3B 1007  14.596  10.768   8.889  0.1821 -0.2000  0.3054
   63loPI   C4B 1008  14.406  10.872   8.515 -0.0195  0.1198  0.0719
   64loPI    C1 1009   0.263  15.245  10.482  0.1112  0.1519 -0.0265
   64loPI    C2 1010  -0.056  15.149  10.704  0.0521  0.0080 -0.1709
   64loPI    C3 1011   0.313  15.068  10.837  0.0176 -0.0658 -0.1195
   64loPI   PO4 1012   0.317  15.049  10.252 -0.3151 -0.0925  0.0903
   64loPI   GL1 1013   0.587  14.969   9.971 -0.2538  0.1382 -0.0453
   64loPI   GL2 1014   0.781  14.660  10.144 -0.0828  0.1521 -0.0734
   64loPI   C1A 1015   0.482  14.853   9.486 -0.0257 -0.0374 -0.4510
   64loPI   C2A 1016   0.404  14.978   9.153  0.1241  0.1572 -0.0427
   64loPI   C3A 1017   0.327  15.008   8.657 -0.0509  0.1218 -0.1355
   64loPI   C4A 1018   0.036  15.104   8.317 -0.0620  0.0738 -0.1748
   64loPI   C5A 1019  -0.343  15.036   8.074 -0.2466  0.0025  0.1158
   64loPI   C6A 1020  -0.792  14.985   8.306 -0.0310  0.1306 -0.3144
   64loPI   C1B 1021   0.762  14.524   9.805  0.2754  0.2323  0.2560
   64loPI   C2B 1022   0.800  14.329   9.465 -0.4384 -0.0559 -0.3004
   64loPI   C3B 1023   0.885  14.255   9.027 -0.1184 -0.0971  0.0105
   64loPI   C4B 1024   0.904  14.264   8.607  0.3160 -0.2191  0.1378
   65loPI    C1 1025   9.270   2.443  10.353 -0.1075 -0.1516  0.1459
   65loPI    C2 1026   8.972   2.617  10.554 -0.1234 -0.1704  0.1385
   65loPI    C3 1027   9.271   2.440  10.753  0.0728  0.1676  0.1512
   65loPI   PO4 1028   9.248   2.681  10.080 -0.2093  0.2098 -0.2185
   65loPI   GL1 1029   9.424   2.986   9.794 -0.1510 -0.1068 -0.0044
   65loPI   GL2 1030   9.377   2.622   9.598  0.1666 -0.3747  0.0938
   65loPI   C1A 1031   9.439   3.281   9.572  0.0263 -0.0424 -0.2337
   65loPI   C2A 1032   9.229   3.390   9.117  0.3033  0.2778  0.2439
   65loPI   C3A 1033   9.094   3.456   8.726  0.0952 -0.2579  0.0628
   65loPI   C4A 1034   9.179   3.401   8.336  0.0241 -0.0494 -0.0159
   65loPI   C5A 1035   9.433   3.328   8.115  0.2456  0.1108  0.2171
   65loPI   C6A 1036   9.745   3.559   7.884  0.1231  0.0997 -0.1119
   65loPI   C1B 1037   9.129   2.631   9.199  0.0879 -0.1911 -0.1949
   65loPI   C2B 1038   9.076   2.579   8.749 -0.0908  0.3441  0.0118
   65loPI   C3B 1039   9.222   2.357   8.348  0.2454 -0.3806 -0.2164
   65loPI   C4B 1040   9.016   2.475   7.995 -0.0827 -0.1370  0.2052
   66loPI    C1 1041   4.756  13.278  10.476 -0.0231  0.0247  0.1108
   66loPI    C2 1042   5.023  13.034  10.648  0.0682  0.1570  0.1582
   66loPI    C3 1043   4.633  12.993  10.729  0.0736 -0.0355  0.0902
   66loPI   PO4 1044   4.818  13.298  10.238  0.0516 -0.4287  0.2643
   66loPI   GL1 1045   4.817  13.554   9.839  0.1852  0.2055  0.0158
   66loPI   GL2 1046   4.680  13.815   9.792 -0.2105 -0.1455 -0.0764
   66loPI   C1A 1047   4.887  13.688   9.340  0.2300  0.1257  0.2303
   66loPI   C2A 1048   4.860  13.629   8.939 -0.0934 -0.1150  0.0325
   66loPI   C3A 1049   4.918  13.720   8.566  0.0201  0.0669  0.0961
   66loPI   C4A 1050   4.855  13.682   8.084  0.0140  0.2268 -0.2171
   66loPI   C5A 1051   4.648  13.657   7.626 -0.3797 -0.1759 -0.1865
   66loPI   C6A 1052   4.266  13.603   7.543  0.0529 -0.2948 -0.0091
   66loPI   C1B 1053   4.414  13.902   9.404 -0.2413  0.2097  0.1222
   66loPI   C2B 1054   4.444  13.909   8.973 -0.1382 -0.4527  0.2083
   66loPI   C3B 1055   4.429  13.861   8.503 -0.2286  0.1331  0.0960
   66loPI   C4B 1056   4.361  13.934   7.989 -0.0818  0.1253 -0.2472
   67loPI    C1 1057  12.782   2.281  10.012 -0.1512  0.3283  0.0657
   67loPI    C2 1058  12.705   2.337  10.401  0.1483  0.1836  0.1486
   67loPI    C3 1059  12.653   2.637  10.141 -0.2351  0.2261  0.2687
   67loPI   PO4 1060  12.945   2.187   9.893 -0.1668  0.0946  0.4103
   67loPI   GL1 1061  13.126   2.005   9.650  0.0490 -0.2495  0.1350
   67loPI   GL2 1062  13.217   1.654   9.675 -0.1122 -0.1329  0.0627
   67loPI   C1A 1063  13.276   2.156   9.190 -0.0972  0.0742  0.1215
   67loPI   C2A 1064  13.227   2.196   8.765  0.0803 -0.2489 -0.4107
   67loPI   C3A 1065  13.286   2.289   8.349 -0.1168 -0.1477  0.4467
   67loPI   C4A 1066  13.589   2.321   8.018  0.0664 -0.1062  0.1395
   67loPI   C5A 1067  14.069   2.491   7.930  0.2710 -0.2499 -0.0539
   67loPI   C6A 1068  14.152   2.835   7.616 -0.0307 -0.0879 -0.0739
   67loPI   C1B 1069  13.127   1.701   9.193  0.0419 -0.1599  0.1440
   67loPI   C2B 1070  13.158   1.739   8.803 -0.2533 -0.2944  0.1365
   67loPI   C3B 1071  13.167   1.827   8.349  0.1188  0.1536  0.1346
   67loPI   C4B 1072  13.137   1.863   7.947 -0.1186  0.0218  0.0214
   68loPI    C1 1073  13.585   8.630  10.633  0.0632  0.0458  0.0579
   68loPI    C2 1074  13.881   8.502  10.870  0.0376  0.2419  0.1983
   68loPI    C3 1075  13.571   8.701  11.027 -0.3514 -0.2710  0.1064
   68loPI   PO4 1076  13.774   8.714  10.388 -0.0090 -0.0468  0.3276
   68loPI   GL1 1077  13.694   8.738   9.985 -0.0534  0.2212  0.3577
   68loPI   GL2 1078  13.828   8.458   9.843  0.3098 -0.0068  0.0084
   68loPI   C1A 1079  13.479   8.682   9.536  0.0553 -0.2247  0.0702
   68loPI   C2A 1080  13.533   8.572   9.202  0.2494 -0.0941 -0.0816
   68loPI   C3A 1081  13.570   8.696   8.810 -0.3817  0.3291  0.0163
   68loPI   C4A 1082  13.454   8.836   8.394  0.0575 -0.1119  0.2923
   68loPI   C5A 1083  13.105   8.831   8.148  0.0924  0.1136  0.0074
   68loPI   C6A 1084  12.929   8.656   7.839  0.1254 -0.0892 -0.0153
   68loPI   C1B 1085  13.891   8.416   9.500  0.3055 -0.5060  0.1587
   68loPI   C2B 1086  13.986   8.472   9.084 -0.3161  0.0594  0.3340
   68loPI   C3B 1087  13.882   8.342   8.683 -0.1501  0.0287  0.1574
   68loPI   C4B 1088  13.924   8.394   8.265  0.3257 -0.0580 -0.0276
   69loPI    C1 1089  12.023   4.583  10.743  0.0249 -0.1908  0.0426
   69loPI    C2 1090  12.202   4.426  11.064  0.0302  0.0962  0.1835
   69loPI    C3 1091  12.046   4.794  11.083 -0.0238  0.0916 -0.1257
   69loPI   PO4 1092  12.185   4.473  10.528 -0.0783  0.0005 -0.2430
   69loPI   GL1 1093  12.067   4.359  10.066 -0.1319  0.0440  0.0208
   69loPI   GL2 1094  11.766   4.556  10.081  0.0543 -0.0906  0.1091
   69loPI   C1A 1095  12.174   4.264   9.612 -0.2277 -0.1278  0.2208
   69loPI   C2A 1096  12.125   4.366   9.172 -0.3120  0.1854  0.0072
   69loPI   C3A 1097  12.156   4.337   8.731 -0.2350 -0.1094 -0.0871
   69loPI   C4A 1098  11.888   4.433   8.433 -0.0327 -0.0554 -0.1094
   69loPI   C5A 1099  11.698   4.282   8.038  0.0734  0.0886  0.1638
   69loPI   C6A 1100  11.336   4.102   7.754 -0.0621  0.3956 -0.1375
   69loPI   C1B 1101  11.924   4.760   9.731  0.1206  0.1109  0.0994
   69loPI   C2B 1102  11.913   5.070   9.394 -0.0004 -0.1447  0.3616
   69loPI   C3B 1103  11.575   5.314   9.202 -0.2666 -0.0670  0.0700
   69loPI   C4B 1104  11.690   5.492   8.801  0.2084 -0.1695 -0.2131
   70loPI    C1 1105   6.650   7.104  10.543  0.0752  0.0994  0.0639
   70loPI    C2 1106   7.045   7.103  10.481  0.0318  0.0976 -0.2271
   70loPI    C3 1107   6.880   6.831  10.723  0.1812 -0.0514 -0.2909
   70loPI   PO4 1108   6.511   7.107  10.236  0.1080 -0.5648 -0.3764
   70loPI   GL1 1109   6.461   6.834   9.842  0.1243 -0.0088  0.1125
   70loPI   GL2 1110   6.392   6.512   9.853  0.0292 -0.2655  0.3504
   70loPI   C1A 1111   6.779   6.937   9.543  0.0417 -0.0958  0.2523
   70loPI   C2A 1112   6.719   7.087   9.163 -0.1327  0.2711 -0.1241
   70loPI   C3A 1113   6.772   7.075   8.728  0.1515 -0.3027 -0.1619
   70loPI   C4A 1114   6.800   7.077   8.296  0.0482 -0.0758 -0.1502
   70loPI   C5A 1115   7.014   7.249   7.991 -0.0441 -0.0231 -0.0370
   70loPI   C6A 1116   7.382   7.481   8.029 -0.4533  0.1272 -0.1103
   70loPI   C1B 1117   6.460   6.645   9.331  0.0190 -0.3330 -0.1685
   70loPI   C2B 1118   6.458   6.691   8.850 -0.2002 -0.1882  0.1185
   70loPI   C3B 1119   6.468   6.685   8.432  0.1676  0.3690  0.4225
   70loPI   C4B 1120   6.536   6.674   7.965  0.1243  0.1135 -0.0233
   71loPI    C1 1121  18.287   2.736  10.467  0.2404 -0.0031  0.1462
   71loPI    C2 1122  18.449   3.101  10.443  0.2577 -0.0094  0.1681
   71loPI    C3 1123  18.150   3.031  10.699 -0.0816  0.1160 -0.1853
   71loPI   PO4 1124  18.314   2.655  10.134  0.0587  0.3800  0.0499
   71loPI   GL1 1125  18.299   2.416   9.783  0.3021  0.1075  0.3257
   71loPI   GL2 1126  18.001   2.663   9.756 -0.1872 -0.0598 -0.0546
   71loPI   C1A 1127  18.651   2.419   9.446 -0.0947  0.1828  0.0787
   71loPI   C2A 1128  18.734   2.552   9.021  0.2908 -0.1202  0.2419
   71loPI   C3A 1129  18.719   2.477   8.641  0.0724 -0.0831  0.0927
   71loPI   C4A 1130  18.476   2.338   8.354  0.1128 -0.0100 -0.3556
   71loPI   C5A 1131  18.258   2.287   7.971 -0.0457 -0.1914  0.0171
   71loPI   C6A 1132  18.229   2.103   7.648  0.0009  0.1826  0.1681
   71loPI   C1B 1133  18.077   2.534   9.282  0.0632  0.0290  0.0230
   71loPI   C2B 1134  17.741   2.453   9.027 -0.0223 -0.0710  0.0614
   71loPI   C3B 1135  17.312   2.217   9.023  0.0009  0.2083  0.4259
   71loPI   C4B 1136  16.928   2.090   9.128  0.2737  0.0989 -0.2781
   72loPI    C1 1137   4.073   9.267  10.460 -0.1604 -0.0134 -0.0978
   72loPI    C2 1138   3.793   9.044  10.640 -0.0481 -0.1002 -0.0287
   72loPI    C3 1139   3.880   9.408  10.781 -0.0654 -0.1078  0.0017
   72loPI   PO4 1140   4.004   9.335  10.221  0.0616  0.0943 -0.2652
   72loPI   GL1 1141   3.990   9.331   9.895 -0.2420 -0.1408  0.0996
   72loPI   GL2 1142   3.914   9.202   9.704  0.1423 -0.1238  0.0968
   72loPI   C1A 1143   4.354   9.403   9.602  0.0560 -0.0097 -0.0575
   72loPI   C2A 1144   4.770   9.265   9.392 -0.1291  0.0713  0.0041
   72loPI   C3A 1145   4.927   9.375   9.012  0.0621  0.0479  0.3254
   72loPI   C4A 1146   4.611   9.339   8.680  0.0349 -0.1438  0.1347
   72loPI   C5A 1147   4.534   9.541   8.137 -0.1717  0.3835  0.0176
   72loPI   C6A 1148   4.409   9.600   7.765  0.2538  0.4710 -0.0511
   72loPI   C1B 1149   3.864   9.304   9.327  0.0718  0.1071 -0.1083
   72loPI   C2B 1150   3.761   9.497   9.033  0.2576  0.1017  0.0433
   72loPI   C3B 1151   3.727   9.612   8.578 -0.0572 -0.1308  0.0285
   72loPI   C4B 1152   3.627   9.542   8.153 -0.3125  0.3168  0.3304
   73loPI    C1 1153  15.539   0.419  10.431  0.0305 -0.0801 -0.0105
   73loPI    C2 1154  15.638   0.073  10.606  0.1209 -0.1725 -0.2408
   73loPI    C3 1155  15.477   0.368  10.823 -0.2106 -0.4550 -0.0917
   73loPI   PO4 1156  15.755   0.436  10.245  0.1324 -0.2032 -0.1235
   73loPI   GL1 1157  15.915   0.444   9.776 -0.1503 -0.2072  0.0615
   73loPI   GL2 1158  15.510   0.363   9.715 -0.0751  0.0619 -0.0663
   73loPI   C1A 1159  16.093   0.450   9.397 -0.1925  0.1234  0.1648
   73loPI   C2A 1160  15.943   0.589   9.012 -0.0884 -0.1055  0.1797
   73loPI   C3A 1161  16.094   0.592   8.690  0.0621  0.1681  0.1663
   73loPI   C4A 1162  16.098   0.526   8.270 -0.3045  0.4515  0.4116
   73loPI   C5A 1163  15.974   0.824   7.962  0.2293  0.3508 -0.1728
   73loPI   C6A 1164  15.877   1.144   7.703  0.2934  0.1422 -0.1042
   73loPI   C1B 1165  15.590   0.357   9.304 -0.1576  0.0958 -0.0098
   73loPI   C2B 1166  15.513   0.416   8.871  0.1882 -0.0787 -0.0324
   73loPI   C3B 1167  15.537   0.486   8.437 -0.3259  0.3784 -0.1530
   73loPI   C4B 1168  15.624   0.372   8.002 -0.4179 -0.0877  0.0644
   74loPI    C1 1169   7.944   1.030   9.884 -0.1657  0.1227  0.1219
   74loPI    C2 1170   7.865   1.159  10.254 -0.0257  0.0307  0.1851
   74loPI    C3 1171   8.244   1.119  10.133 -0.0615 -0.4232  0.2057
   74loPI   PO4 1172   7.804   0.842   9.781 -0.1165  0.2907 -0.1827
   74loPI   GL1 1173   7.424   0.721   9.633  0.1105 -0.3684 -0.0974
   74loPI   GL2 1174   7.396   0.933   9.440  0.0070 -0.1867 -0.2297
   74loPI   C1A 1175   7.537   0.481   9.260 -0.1708  0.1247  0.0679
   74loPI   C2A 1176   7.800   0.355   8.898  0.0625  0.0554  0.2003
   74loPI   C3A 1177   8.166   0.412   8.746 -0.0034  0.2068 -0.5698
   74loPI   C4A 1178   8.365   0.550   8.405 -0.0771 -0.1414  0.1150
   74loPI   C5A 1179   8.581   0.783   8.253  0.2491 -0.3974  0.0317
   74loPI   C6A 1180   8.809   1.283   8.130  0.0443 -0.0838 -0.2378
   74loPI   C1B 1181   6.998   0.734   9.304  0.0439 -0.0834  0.0861
   74loPI   C2B 1182   6.736   0.765   8.977 -0.0681  0.2474 -0.1035
   74loPI   C3B 1183   6.805   0.658   8.498  0.3408  0.1906  0.1547
   74loPI   C4B 1184   6.942   0.273   8.247  0.3836 -0.0294 -0.1704
   75loPI    C1 1185  12.972   9.990  10.730  0.2099 -0.0037  0.1984
   75loPI    C2 1186  13.074  10.253  11.014  0.2088  0.0929  0.1100
   75loPI    C3 1187  12.862  10.373  10.697  0.1042 -0.0397  0.1283
   75loPI   PO4 1188  13.180   9.898  10.601 -0.1390  0.1274  0.0229
   75loPI   GL1 1189  13.491   9.976  10.290 -0.4124 -0.0669 -0.4091
   75loPI   GL2 1190  13.715  10.093  10.296 -0.2309  0.0399 -0.3108
   75loPI   C1A 1191  13.314  10.000   9.868  0.2296  0.6519 -0.1201
   75loPI   C2A 1192  13.059  10.077   9.580  0.0383 -0.2169  0.1225
   75loPI   C3A 1193  12.984  10.065   9.168  0.0279 -0.1356  0.3104
   75loPI   C4A 1194  12.855  10.191   8.719 -0.1700 -0.2536 -0.2594
   75loPI   C5A 1195  12.837  10.264   8.252 -0.2538 -0.0089  0.3042
   75loPI   C6A 1196  12.881  10.322   7.833  0.2647  0.1656  0.1284
   75loPI   C1B 1197  13.826  10.211   9.841  0.4766  0.2140 -0.1072
   75loPI   C2B 1198  13.804  10.363   9.365  0.2381  0.2213 -0.5152
   75loPI   C3B 1199  13.864  10.636   9.089 -0.0194 -0.1012 -0.1814
   75loPI   C4B 1200  14.142  10.561   8.779  0.0305  0.2128 -0.1837
   76loPI    C1 1201  12.454  17.389  10.539 -0.0958  0.0869  0.2792
   76loPI    C2 1202  12.730  17.102  10.505 -0.0534  0.1693 -0.1167
   76loPI    C3 1203  12.444  17.072  10.782  0.0617 -0.1600 -0.0296
   76loPI   PO4 1204  12.397  17.406  10.244 -0.3701 -0.2804  0.1939
   76loPI   GL1 1205  12.238  17.469   9.870 -0.1080  0.0879  0.1981
   76loPI   GL2 1206  11.839  17.623   9.882  0.1622 -0.3517  0.0470
   76loPI   C1A 1207  12.237  17.646   9.449  0.0587 -0.0914  0.0905
   76loPI   C2A 1208  12.304  17.740   8.969 -0.0129  0.1009  0.4453
   76loPI   C3A 1209  12.294  17.607   8.581  0.3481  0.1297  0.1511
   76loPI   C4A 1210  12.272  17.525   8.022  0.0842  0.3003 -0.2176
   76loPI   C5A 1211  12.521  17.271   7.805  0.0844  0.1339  0.3015
   76loPI   C6A 1212  12.899  17.150   7.603 -0.2628  0.4346  0.1993
   76loPI   C1B 1213  11.796  17.379   9.438  0.1090  0.1918  0.0687
   76loPI   C2B 1214  11.763  17.150   9.047 -0.1055  0.1097 -0.1126
   76loPI   C3B 1215  11.560  17.322   8.649 -0.1019  0.0312  0.2881
   76loPI   C4B 1216  11.308  17.266   8.308  0.1116 -0.0028  0.1076
   77loPI    C1 1217   8.372  10.807  10.644  0.1758 -0.1501  0.0071
   77loPI    C2 1218   8.595  10.755  10.972  0.1269  0.1225  0.0861
   77loPI    C3 1219   8.197  10.719  10.993  0.1086  0.3201  0.0988
   77loPI   PO4 1220   8.429  11.066  10.584  0.1678  0.3486 -0.2570
   77loPI   GL1 1221   8.562  11.321  10.244 -0.1485  0.1615  0.0454
   77loPI   GL2 1222   8.454  11.128   9.928 -0.1892 -0.2242  0.2802
   77loPI   C1A 1223   8.675  11.612   9.913  0.1949 -0.0674 -0.0345
   77loPI   C2A 1224   8.716  11.681   9.483 -0.0288  0.2176  0.1838
   77loPI   C3A 1225   8.739  11.550   9.064  0.2182 -0.2411 -0.4006
   77loPI   C4A 1226   8.711  11.665   8.687 -0.1616 -0.0540 -0.0811
   77loPI   C5A 1227   8.562  11.776   8.256 -0.2724  0.0407  0.2345
   77loPI   C6A 1228   8.449  11.563   7.874  0.1218  0.1406  0.2182
   77loPI   C1B 1229   8.648  11.206   9.417  0.0808 -0.2017  0.1698
   77loPI   C2B 1230   8.526  11.134   8.948  0.2826  0.0211  0.1387
   77loPI   C3B 1231   8.705  11.178   8.596  0.0975  0.1453  0.0982
   77loPI   C4B 1232   8.800  11.356   8.158 -0.0187  0.3686  0.1266
   78loPI    C1 1233   6.698  18.007  10.215 -0.1382 -0.0136 -0.0394
   78loPI    C2 1234   6.935  17.889  10.514 -0.1682  0.0935  0.0272
   78loPI    C3 1235   6.588  18.071  10.594 -0.1070  0.2567 -0.0736
   78loPI   PO4 1236   6.827  17.763  10.027  0.4823 -0.0065  0.0896
   78loPI   GL1 1237   6.624  17.440   9.869  0.0770 -0.0756  0.0033
   78loPI   GL2 1238   6.395  17.623   9.852  0.1569  0.1832 -0.1356
   78loPI   C1A 1239   6.467  17.220   9.503  0.1812 -0.0210  0.1832
   78loPI   C2A 1240   6.394  17.373   9.051 -0.1453  0.0669 -0.1645
   78loPI   C3A 1241   6.551  17.334   8.586 -0.0366  0.0122 -0.0427
   78loPI   C4A 1242   6.293  17.496   8.337  0.1442 -0.3089  0.1667
   78loPI   C5A 1243   5.958  17.735   8.317 -0.1822  0.2161  0.0058
   78loPI   C6A 1244   5.651  18.024   8.204  0.0071 -0.1069 -0.2194
   78loPI   C1B 1245   6.298  17.672   9.441  0.1437  0.2705  0.2083
   78loPI   C2B 1246   6.415  17.884   9.107  0.0309 -0.0341 -0.1364
   78loPI   C3B 1247   6.095  17.738   8.819 -0.0264  0.2772  0.1196
   78loPI   C4B 1248   5.623  17.743   8.693 -0.1375  0.1988  0.1328
   79loPI    C1 1249  17.897   5.600  10.520  0.0739  0.1224 -0.0019
   79loPI    C2 1250  17.654   5.402  10.768 -0.0295  0.1345 -0.0929
   79loPI    C3 1251  18.026   5.492  10.883 -0.0343  0.0273  0.0088
   79loPI   PO4 1252  17.895   5.410  10.170  0.0435 -0.4282  0.1306
   79loPI   GL1 1253  17.587   5.170   9.895 -0.2085  0.0275 -0.3684
   79loPI   GL2 1254  17.892   4.963  10.004  0.4288 -0.1461  0.0957
   79loPI   C1A 1255  17.451   4.804   9.698 -0.1390 -0.1957  0.0095
   79loPI   C2A 1256  17.562   4.433   9.437 -0.2072 -0.2465 -0.0997
   79loPI   C3A 1257  17.932   4.269   9.213  0.0844 -0.1813 -0.0373
   79loPI   C4A 1258  17.854   4.369   8.737  0.2115 -0.2520  0.0420
   79loPI   C5A 1259  17.885   4.361   8.244  0.3489  0.0330  0.0190
   79loPI   C6A 1260  18.009   4.491   7.904  0.0706  0.1078 -0.0176
   79loPI   C1B 1261  17.940   4.738   9.638 -0.0145  0.0768 -0.3236
   79loPI   C2B 1262  18.094   4.738   9.277  0.2055  0.1982  0.0179
   79loPI   C3B 1263  18.064   4.872   8.847  0.0115  0.0599 -0.0942
   79loPI   C4B 1264  18.062   4.797   8.393 -0.0686 -0.1086 -0.1774
   80loPI    C1 1265   0.680   3.800  10.796  0.0732 -0.0781 -0.0303
   80loPI    C2 1266   1.062   3.837  10.909  0.0470 -0.1893  0.0960
   80loPI    C3 1267   0.789   4.103  11.032  0.1258  0.0275 -0.1883
   80loPI   PO4 1268   0.734   3.655  10.591 -0.1351  0.1237 -0.2650
   80loPI   GL1 1269   0.869   3.638  10.222  0.1564 -0.3153  0.1501
   80loPI   GL2 1270   0.516   3.767  10.115  0.1725 -0.0602  0.1084
   80loPI   C1A 1271   1.016   3.639   9.875  0.1107 -0.1385  0.1781
   80loPI   C2A 1272   1.108   3.453   9.528 -0.1001 -0.2871 -0.0971
   80loPI   C3A 1273   1.135   3.554   9.097 -0.0981 -0.1148 -0.2274
   80loPI   C4A 1274   1.032   3.658   8.670 -0.1088  0.1432  0.1521
   80loPI   C5A 1275   0.881   3.675   8.223 -0.0849  0.1467  0.0306
   80loPI   C6A 1276   0.788   3.888   7.945  0.1569  0.3890  0.2549
   80loPI   C1B 1277   0.520   3.562   9.701  0.2285 -0.1826 -0.2674
   80loPI   C2B 1278   0.627   3.431   9.295 -0.5889  0.2122 -0.0378
   80loPI   C3B 1279   0.550   3.567   8.860  0.0646 -0.1117 -0.2053
   80loPI   C4B 1280   0.476   3.499   8.440 -0.0906  0.1006 -0.1428
   81loPI    C1 1281   8.850  15.861  10.595 -0.0489 -0.0492  0.2713
   81loPI    C2 1282   8.611  15.831  10.276 -0.0953  0.1401  0.2876
   81loPI    C3 1283   8.454  15.892  10.639 -0.0358  0.0383  0.3308
   81loPI   PO4 1284   9.083  15.890  10.470  0.1521  0.0263 -0.2662
   81loPI   GL1 1285   9.149  16.017  10.022  0.0451  0.0306 -0.1797
   81loPI   GL2 1286   9.020  15.681  10.015  0.0016 -0.1154 -0.2336
   81loPI   C1A 1287   9.425  16.073   9.771 -0.1310 -0.0789  0.0315
   81loPI   C2A 1288   9.371  16.033   9.376 -0.0565  0.1980  0.0080
   81loPI   C3A 1289   9.340  15.981   8.889  0.1160 -0.0454  0.1053
   81loPI   C4A 1290   9.343  15.795   8.367  0.2969 -0.1799  0.1762
   81loPI   C5A 1291   9.158  15.783   7.931  0.2315  0.1895  0.1049
   81loPI   C6A 1292   8.922  15.432   7.836  0.3449 -0.0023 -0.1315
   81loPI   C1B 1293   9.066  15.678   9.649 -0.2194  0.0555  0.3150
   81loPI   C2B 1294   9.053  15.591   9.194 -0.0928  0.0203  0.0019
   81loPI   C3B 1295   9.017  15.648   8.719  0.2736  0.2878  0.0384
   81loPI   C4B 1296   8.823  15.779   8.383  0.1418 -0.0237 -0.1413
   82loPI    C1 1297  10.776   4.200  10.112  0.1736 -0.0560  0.1271
   82loPI    C2 1298  11.097   3.961  10.104  0.1447 -0.0977  0.2021
   82loPI    C3 1299  10.903   4.025  10.448  0.0210 -0.1412  0.1414
   82loPI   PO4 1300  10.831   4.389   9.901  0.0663  0.0586  0.0542
   82loPI   GL1 1301  10.719   4.458   9.520  0.0743  0.3398 -0.0743
   82loPI   GL2 1302  10.540   4.272   9.470  0.0084 -0.1778  0.0732
   82loPI   C1A 1303  10.865   4.578   9.154 -0.0110 -0.0294  0.3830
   82loPI   C2A 1304  10.905   4.792   8.724  0.0454  0.2165  0.1677
   82loPI   C3A 1305  10.892   4.634   8.295 -0.0533  0.1939  0.2213
   82loPI   C4A 1306  10.974   4.232   8.155  0.0181  0.0356 -0.0576
   82loPI   C5A 1307  10.893   3.871   7.854  0.2275  0.2584  0.3696
   82loPI   C6A 1308  11.172   3.661   7.608 -0.2111 -0.0526 -0.2969
   82loPI   C1B 1309  10.413   4.392   9.036  0.0061 -0.0268 -0.1449
   82loPI   C2B 1310  10.276   4.311   8.564  0.1395 -0.1026 -0.0623
   82loPI   C3B 1311  10.359   4.496   8.115  0.0419 -0.1418  0.2293
   82loPI   C4B 1312  10.615   4.763   7.893 -0.0598  0.3190  0.2004
   83loPI    C1 1313  14.117   8.931  10.792  0.0085  0.0476 -0.1269
   83loPI    C2 1314  14.372   9.034  11.082  0.1752 -0.2308 -0.1706
   83loPI    C3 1315  13.993   8.946  11.171  0.1251  0.0582 -0.0885
   83loPI   PO4 1316  14.170   9.104  10.531  0.4166 -0.0512  0.1071
   83loPI   GL1 1317  14.161   9.197  10.063  0.2486 -0.1118 -0.2152
   83loPI   GL2 1318  14.161   8.939   9.973 -0.1735  0.3426  0.1329
   83loPI   C1A 1319  14.144   9.394   9.677  0.0248 -0.0165 -0.3811
   83loPI   C2A 1320  14.067   9.434   9.267 -0.1320  0.1010  0.1305
   83loPI   C3A 1321  13.905   9.662   8.907 -0.0729  0.1447 -0.2457
   83loPI   C4A 1322  14.017   9.580   8.598  0.0182 -0.3147  0.0530
   83loPI   C5A 1323  14.126   9.421   8.197  0.0670  0.0752  0.0990
   83loPI   C6A 1324  14.228   9.065   7.820  0.1942 -0.2039 -0.0289
   83loPI   C1B 1325  14.197   8.867   9.642 -0.0043  0.0365  0.2296
   83loPI   C2B 1326  14.037   8.908   9.248 -0.0441 -0.0463  0.0636
   83loPI   C3B 1327  14.078   8.878   8.766  0.3854  0.1718 -0.2372
   83loPI   C4B 1328  14.123   8.884   8.317  0.0260  0.0155  0.1110
   84loPI    C1 1329   1.244  17.633  10.425 -0.0059 -0.2549  0.1545
   84loPI    C2 1330   0.872  17.547  10.305 -0.0353 -0.1348  0.1586
   84loPI    C3 1331   0.967  17.522  10.692  0.0081 -0.3349  0.1362
   84loPI   PO4 1332   1.386  17.859  10.289  0.3310  0.0295 -0.2600
   84loPI   GL1 1333   1.626  17.929   9.841  0.3724  0.0367 -0.4765
   84loPI   GL2 1334   1.589  18.277   9.717 -0.0920  0.0414 -0.0224
   84loPI   C1A 1335   1.728  17.981   9.372 -0.2268 -0.1599  0.0414
   84loPI   C2A 1336   1.725  17.983   8.967 -0.0209  0.0242  0.2099
   84loPI   C3A 1337   1.791  18.173   8.585  0.1440  0.4076  0.0393
   84loPI   C4A 1338   1.641  18.178   8.116  0.0929 -0.3557 -0.0747
   84loPI   C5A 1339   1.442  18.452   7.824  0.2680 -0.5800  0.0046
   84loPI   C6A 1340   1.807  18.817   7.749  0.1724 -0.3487  0.1339
   84loPI   C1B 1341   1.557  18.447   9.319 -0.2980  0.1467 -0.2013
   84loPI   C2B 1342   1.556  18.457   8.904 -0.3531  0.3139 -0.1829
   84loPI   C3B 1343   1.481  18.561   8.425 -0.2916  0.1253  0.1038
   84loPI   C4B 1344   1.462  18.845   8.115  0.0318  0.1010  0.1762
   85loPI    C1 1345   7.443   1.235   9.985 -0.2199 -0.0887 -0.0941
   85loPI    C2 1346   7.132   0.988  10.033 -0.2251 -0.0762 -0.0624
   85loPI    C3 1347   7.491   0.889  10.180 -0.2488 -0.0220  0.0330
   85loPI   PO4 1348   7.512   1.314   9.790 -0.1017 -0.1230 -0.1840
   85loPI   GL1 1349   7.315   1.517   9.381 -0.1281 -0.2786  0.1671
   85loPI   GL2 1350   7.594   1.639   9.443  0.0148  0.0497 -0.4545
   85loPI   C1A 1351   7.473   1.902   9.058 -0.1730  0.1917 -0.2657
   85loPI   C2A 1352   7.518   1.785   8.591 -0.0159  0.1356  0.0226
   85loPI   C3A 1353   7.748   1.544   8.225 -0.2552 -0.0886 -0.0591
   85loPI   C4A 1354   7.899   1.112   8.156  0.2014 -0.6160  0.0804
   85loPI   C5A 1355   8.061   0.754   8.045  0.1517 -0.1069 -0.2191
   85loPI   C6A 1356   8.207   0.356   7.878  0.1167  0.2406 -0.0945
   85loPI   C1B 1357   7.635   1.428   8.979  0.0052  0.2118 -0.2265
   85loPI   C2B 1358   7.565   1.236   8.547 -0.2680 -0.0355  0.1722
   85loPI   C3B 1359   7.356   0.965   8.239  0.2368 -0.1134 -0.0406
   85loPI   C4B 1360   7.093   0.786   8.008  0.1561 -0.0411  0.0029
   86loPI    C1 1361   4.931  18.456  10.542 -0.2224  0.0213  0.3687
   86loPI    C2 1362   4.816  18.082  10.459 -0.1658  0.0716  0.0483
   86loPI    C3 1363   5.129  18.147  10.700 -0.1001 -0.0907  0.0082
   86loPI   PO4 1364   4.895  18.593  10.370 -0.3826 -0.4210 -0.1022
   86loPI   GL1 1365   5.030  18.689   9.985  0.0016 -0.1083 -0.0082
   86loPI   GL2 1366   5.192  18.971   9.970  0.0708  0.1659 -0.0498
   86loPI   C1A 1367   4.992  18.514   9.626 -0.0166  0.0545  0.0664
   86loPI   C2A 1368   4.937  18.538   9.092 -0.0096 -0.1457 -0.0272
   86loPI   C3A 1369   5.008  18.480   8.755 -0.2185 -0.0236  0.2166
   86loPI   C4A 1370   4.859  18.698   8.387 -0.0098  0.1587 -0.1624
   86loPI   C5A 1371   4.663  18.995   8.125 -0.5111  0.1547 -0.1005
   86loPI   C6A 1372   4.309  19.259   7.967 -0.0310  0.2841  0.0625
   86loPI   C1B 1373   5.316  18.915   9.546 -0.3347 -0.0730 -0.0681
   86loPI   C2B 1374   5.176  18.976   9.151 -0.0230 -0.0473  0.1293
   86loPI   C3B 1375   5.141  19.060   8.730 -0.1469  0.3594  0.0436
   86loPI   C4B 1376   5.133  19.116   8.311 -0.0235  0.0892 -0.0524
   87loPI    C1 1377  11.366   8.056  10.729 -0.0173  0.0789 -0.1097
   87loPI    C2 1378  11.429   7.729  10.507 -0.2705 -0.1416  0.1359
   87loPI    C3 1379  11.480   7.714  10.903  0.1210  0.2325  0.1059
   87loPI   PO4 1380  11.547   8.231  10.528 -0.1352  0.0433 -0.2139
   87loPI   GL1 1381  11.373   8.577  10.278  0.0612 -0.0719  0.0948
   87loPI   GL2 1382  11.194   8.362  10.185  0.0133 -0.2085  0.1423
   87loPI   C1A 1383  11.150   8.931  10.043 -0.1256 -0.0710  0.0132
   87loPI   C2A 1384  10.938   8.889   9.583 -0.2909 -0.0975  0.0263
   87loPI   C3A 1385  10.978   8.980   9.158 -0.0045 -0.1087  0.2313
   87loPI   C4A 1386  10.943   9.104   8.703  0.1378  0.1756  0.0061
   87loPI   C5A 1387  10.778   9.304   8.396  0.1310  0.1682  0.3455
   87loPI   C6A 1388  10.346   9.402   8.259  0.2830 -0.1164 -0.1559
   87loPI   C1B 1389  11.233   8.561   9.787 -0.1037  0.0020  0.2440
   87loPI   C2B 1390  11.357   8.609   9.317  0.0347  0.1842 -0.0421
   87loPI   C3B 1391  11.275   8.629   8.873 -0.1101 -0.0661  0.0181
   87loPI   C4B 1392  11.149   8.756   8.463 -0.1866 -0.2215 -0.1351
   88loPI    C1 1393   5.382  14.386  10.429  0.0582 -0.0317 -0.0510
   88loPI    C2 1394   5.533  14.750  10.365  0.1000 -0.0133  0.1441
   88loPI    C3 1395   5.288  14.687  10.675 -0.1139 -0.0940 -0.0384
   88loPI   PO4 1396   5.322  14.280  10.206 -0.0563  0.0461  0.0045
   88loPI   GL1 1397   5.289  14.588   9.947  0.1739  0.1129 -0.1033
   88loPI   GL2 1398   5.055  14.703   9.792 -0.0110 -0.0259 -0.1413
   88loPI   C1A 1399   5.369  14.506   9.566  0.1463  0.1826  0.1223
   88loPI   C2A 1400   5.344  14.411   9.055  0.3523 -0.0022 -0.0048
   88loPI   C3A 1401   5.339  14.482   8.657  0.0488  0.2134  0.1881
   88loPI   C4A 1402   5.397  14.427   8.235  0.1549  0.1321 -0.3075
   88loPI   C5A 1403   5.539  14.707   7.884  0.1891  0.2005  0.0649
   88loPI   C6A 1404   5.651  15.045   7.572 -0.3790 -0.1148 -0.2667
   88loPI   C1B 1405   4.916  14.692   9.356 -0.0436 -0.0469  0.0733
   88loPI   C2B 1406   4.883  14.741   8.870 -0.3088 -0.1398  0.0791
   88loPI   C3B 1407   4.931  14.665   8.439 -0.0969 -0.5363 -0.0957
   88loPI   C4B 1408   4.996  14.700   7.995 -0.2141  0.0538 -0.2248
   89loPI    C1 1409  17.589  13.773  10.545 -0.0356 -0.1826 -0.0048
   89loPI    C2 1410  17.369  14.084  10.421  0.1916  0.0205  0.0937
   89loPI    C3 1411  17.336  13.730  10.238 -0.1127  0.0854  0.0185
   89loPI   PO4 1412  17.838  13.833  10.483 -0.0221  0.1006  0.1295
   89loPI   GL1 1413  18.084  13.787  10.145 -0.0168  0.1942  0.4154
   89loPI   GL2 1414  17.723  13.692   9.996 -0.2736 -0.1661  0.2288
   89loPI   C1A 1415  18.366  14.027   9.771  0.1724  0.1139  0.2468
   89loPI   C2A 1416  18.582  13.935   9.432  0.0652  0.2885  0.0642
   89loPI   C3A 1417  18.850  13.961   9.127  0.2901  0.1474  0.0251
   89loPI   C4A 1418  18.904  14.051   8.656 -0.1045 -0.0062  0.0479
   89loPI   C5A 1419  18.983  14.234   8.262 -0.1756 -0.1051 -0.0355
   89loPI   C6A 1420  19.353  14.298   7.981  0.3277 -0.0152  0.0792
   89loPI   C1B 1421  17.751  13.377   9.679 -0.2482  0.1292 -0.2125
   89loPI   C2B 1422  17.805  13.403   9.262  0.2159  0.0389  0.0088
   89loPI   C3B 1423  17.813  13.723   9.022 -0.0524 -0.0036 -0.2701
   89loPI   C4B 1424  18.101  13.926   8.789 -0.1096 -0.0527  0.3818
   90loPI    C1 1425  13.679   5.977  10.394 -0.1680  0.1822 -0.1018
   90loPI    C2 1426  13.988   5.817  10.591 -0.1832  0.1742 -0.0845
   90loPI    C3 1427  13.729   6.054  10.783 -0.4384 -0.1731  0.0080
   90loPI   PO4 1428  13.805   5.936  10.126  0.1338  0.0784 -0.0572
   90loPI   GL1 1429  13.785   5.753   9.904  0.2320 -0.1976  0.2143
   90loPI   GL2 1430  13.890   5.435   9.840  0.1795 -0.1987 -0.1316
   90loPI   C1A 1431  13.516   5.987   9.494  0.1426  0.0002 -0.0310
   90loPI   C2A 1432  13.546   6.011   9.078  0.0415  0.1622 -0.0536
   90loPI   C3A 1433  13.566   6.034   8.684  0.0596  0.1541  0.1971
   90loPI   C4A 1434  13.572   6.098   8.152  0.2791  0.3954 -0.2037
   90loPI   C5A 1435  13.585   6.444   7.896  0.1970  0.0227 -0.1510
   90loPI   C6A 1436  13.372   6.697   7.729 -0.0306 -0.2704  0.0340
   90loPI   C1B 1437  13.765   5.183   9.555 -0.2598  0.0928  0.3027
   90loPI   C2B 1438  13.777   5.109   9.188  0.0603  0.1167  0.2127
   90loPI   C3B 1439  13.748   5.164   8.666  0.0820  0.0039 -0.0589
   90loPI   C4B 1440  13.835   5.149   8.227 -0.0185 -0.1067 -0.0656
   91loPI    C1 1441   8.022  16.079  10.386 -0.0589  0.1137  0.0396
   91loPI    C2 1442   7.944  16.465  10.454  0.1697  0.1667  0.0101
   91loPI    C3 1443   8.004  16.216  10.761 -0.3561  0.0702  0.0430
   91loPI   PO4 1444   8.214  16.101  10.150  0.0330 -0.0160 -0.2605
   91loPI   GL1 1445   8.173  16.195   9.779  0.3390  0.0714 -0.1558
   91loPI   GL2 1446   8.426  16.402   9.677 -0.0409  0.1273  0.0174
   91loPI   C1A 1447   8.102  16.019   9.400  0.0496  0.1932  0.1114
   91loPI   C2A 1448   8.055  15.912   9.009 -0.0357 -0.0106  0.0631
   91loPI   C3A 1449   7.905  15.741   8.642 -0.3468 -0.1266 -0.2287
   91loPI   C4A 1450   8.075  15.637   8.191  0.1968  0.0221  0.0615
   91loPI   C5A 1451   7.907  15.562   7.863 -0.1270  0.0012  0.0986
   91loPI   C6A 1452   8.287  15.373   7.709  0.2023  0.0961 -0.2503
   91loPI   C1B 1453   8.515  16.396   9.164 -0.1516 -0.0155 -0.0724
   91loPI   C2B 1454   8.574  16.568   8.759 -0.0312 -0.1192  0.0620
   91loPI   C3B 1455   8.606  16.438   8.431 -0.2471  0.0878 -0.2234
   91loPI   C4B 1456   8.456  16.619   7.968 -0.2987  0.0287 -0.2445
   92loPI    C1 1457   1.062   6.641  10.190  0.1166  0.0401  0.1175
   92loPI    C2 1458   0.883   6.869   9.914 -0.0299 -0.0907  0.1027
   92loPI    C3 1459   0.815   6.935  10.303  0.0352 -0.0221  0.1026
   92loPI   PO4 1460   1.128   6.442  10.089  0.1072  0.0315  0.0355
   92loPI   GL1 1461   1.250   6.379   9.705  0.2743 -0.0839 -0.1192
   92loPI   GL2 1462   1.147   6.677   9.479  0.0305 -0.1457 -0.1477
   92loPI   C1A 1463   1.543   6.369   9.516  0.0075 -0.1629 -0.0409
   92loPI   C2A 1464   1.469   6.314   9.096 -0.2784  0.0226  0.0234
   92loPI   C3A 1465   1.512   6.479   8.721  0.3387  0.3063  0.1064
   92loPI   C4A 1466   1.773   6.351   8.344 -0.1606 -0.0536 -0.1804
   92loPI   C5A 1467   2.044   6.520   7.955  0.1613 -0.1753  0.1400
   92loPI   C6A 1468   1.960   6.630   7.532  0.1938 -0.1409 -0.0028
   92loPI   C1B 1469   1.152   6.757   8.956 -0.2584  0.1278 -0.3131
   92loPI   C2B 1470   1.139   6.994   8.537 -0.3447  0.0544  0.0798
   92loPI   C3B 1471   1.509   6.869   8.370  0.0436 -0.0930  0.0466
   92loPI   C4B 1472   1.592   6.753   7.887  0.0168 -0.1702 -0.1938
   93loPI    C1 1473  13.485   9.517  10.836  0.2125 -0.0755  0.1320
   93loPI    C2 1474  13.650   9.664  11.170  0.1992 -0.0388  0.1225
   93loPI    C3 1475  13.571   9.273  11.142 -0.1501  0.0144  0.3105
   93loPI   PO4 1476  13.653   9.637  10.639  0.0259  0.0613  0.5287
   93loPI   GL1 1477  13.719   9.524  10.247  0.0006  0.2714 -0.1508
   93loPI   GL2 1478  13.635   9.201  10.191  0.0744  0.0148  0.0234
   93loPI   C1A 1479  13.752   9.760   9.856 -0.0937  0.3048 -0.0290
   93loPI   C2A 1480  13.663   9.845   9.404 -0.1137 -0.0664  0.3323
   93loPI   C3A 1481  13.445   9.687   9.063  0.0750 -0.0202 -0.1147
   93loPI   C4A 1482  13.436   9.839   8.734 -0.0064  0.1518 -0.2999
   93loPI   C5A 1483  13.350  10.071   8.424 -0.0379 -0.0797 -0.4428
   93loPI   C6A 1484  13.311  10.291   8.058 -0.0751 -0.0835  0.0969
   93loPI   C1B 1485  13.694   9.172   9.753  0.0533  0.0247  0.1535
   93loPI   C2B 1486  13.653   9.226   9.386 -0.0527  0.0815  0.1277
   93loPI   C3B 1487  13.742   9.206   8.921  0.1659 -0.2473  0.0257
   93loPI   C4B 1488  13.778   9.139   8.517 -0.1085 -0.1133  0.1109
   94loPI    C1 1489   0.132   8.786  10.295 -0.2099 -0.0496  0.0467
   94loPI    C2 1490  -0.026   8.692  10.650 -0.0234  0.0425  0.1554
   94loPI    C3 1491   0.357   8.807  10.625 -0.0267  0.0079 -0.0800
   94loPI   PO4 1492   0.011   8.585  10.157  0.0779 -0.4297  0.0672
   94loPI   GL1 1493  -0.241   8.434   9.873 -0.0983  0.2613  0.2482
   94loPI   GL2 1494  -0.286   8.093   9.783 -0.0707 -0.2084  0.0305
   94loPI   C1A 1495  -0.114   8.421   9.489  0.0555 -0.1195  0.2532
   94loPI   C2A 1496  -0.179   8.600   9.136 -0.0373  0.1110  0.0215
   94loPI   C3A 1497  -0.029   8.533   8.776 -0.0810  0.1195 -0.0125
   94loPI   C4A 1498   0.166   8.665   8.374  0.3301 -0.1631  0.1428
   94loPI   C5A 1499   0.345   9.034   8.266 -0.1317 -0.1501  0.2621
   94loPI   C6A 1500   0.684   9.316   8.122  0.2238  0.0088 -0.2328
   94loPI   C1B 1501  -0.012   7.852   9.419 -0.2202 -0.3870 -0.1359
   94loPI   C2B 1502  -0.132   7.897   8.964 -0.1262  0.0986 -0.2139
   94loPI   C3B 1503  -0.210   7.693   8.581 -0.1145  0.1773 -0.0899
   94loPI   C4B 1504  -0.377   7.531   8.156  0.0730 -0.2338  0.2794
   95loPI    C1 1505   1.872   7.996  10.012 -0.0973  0.3035  0.2282
   95loPI    C2 1506   1.915   7.786  10.350 -0.2175  0.3240  0.2569
   95loPI    C3 1507   2.104   8.136  10.306  0.4325 -0.0422 -0.0103
   95loPI   PO4 1508   1.972   7.814   9.811  0.1872 -0.0710 -0.1365
   95loPI   GL1 1509   2.263   7.677   9.488  0.0401 -0.1426  0.1488
   95loPI   GL2 1510   2.435   7.463   9.397  0.0413  0.1258 -0.0137
   95loPI   C1A 1511   2.254   7.914   9.110 -0.0097 -0.1166 -0.1148
   95loPI   C2A 1512   2.172   8.068   8.776  0.0176  0.1438  0.1200
   95loPI   C3A 1513   2.222   7.994   8.259  0.3580 -0.0027  0.2787
   95loPI   C4A 1514   2.209   8.089   7.888  0.0617  0.2073  0.1466
   95loPI   C5A 1515   2.484   8.442   7.707  0.0515  0.1977 -0.0799
   95loPI   C6A 1516   2.390   8.858   7.583  0.3044  0.2053  0.1831
   95loPI   C1B 1517   2.381   7.470   8.924  0.0345 -0.0486  0.0580
   95loPI   C2B 1518   2.351   7.552   8.502 -0.1400 -0.1592 -0.1668
   95loPI   C3B 1519   2.183   7.546   8.024 -0.1349  0.1984  0.0125
   95loPI   C4B 1520   2.078   7.556   7.625 -0.0637 -0.0753 -0.2535
   96loPI    C1 1521  14.438   4.645  10.433  0.0797  0.0424  0.0487
   96loPI    C2 1522  14.158   4.922  10.502 -0.0565 -0.0585 -0.0905
   96loPI    C3 1523  14.413   4.818  10.792  0.0054  0.2214 -0.0414
   96loPI   PO4 1524  14.538   4.750  10.216 -0.0806 -0.2053  0.3355
   96loPI   GL1 1525  14.531   4.671   9.816 -0.1491  0.0181  0.1281
   96loPI   GL2 1526  14.873   4.523   9.778 -0.1510 -0.0855  0.0403
   96loPI   C1A 1527  14.555   4.835   9.464  0.0348  0.3197 -0.0884
   96loPI   C2A 1528  14.587   4.857   9.146  0.1456 -0.2281 -0.0335
   96loPI   C3A 1529  14.598   4.860   8.797  0.0137  0.2562 -0.0338
   96loPI   C4A 1530  14.693   4.804   8.325  0.0663 -0.0887  0.2444
   96loPI   C5A 1531  14.732   4.787   7.864 -0.1181 -0.1464  0.1757
   96loPI   C6A 1532  14.399   4.760   7.523 -0.1760 -0.1933  0.0542
   96loPI   C1B 1533  14.970   4.450   9.331  0.2459 -0.2279 -0.0409
   96loPI   C2B 1534  14.902   4.438   8.879 -0.2807  0.1146 -0.0368
   96loPI   C3B 1535  15.032   4.330   8.512 -0.0782 -0.0201 -0.3320
   96loPI   C4B 1536  14.997   4.366   8.060  0.1540 -0.0446 -0.2677
   97loPI    C1 1537  10.092  14.047  10.779  0.0471 -0.0263  0.1014
   97loPI    C2 1538   9.821  14.035  11.073  0.1015  0.1948  0.1622
   97loPI    C3 1539  10.143  13.798  11.088  0.0047  0.0638  0.1816
   97loPI   PO4 1540  10.001  14.025  10.555  0.0568  0.0447 -0.0992
   97loPI   GL1 1541   9.919  13.805  10.212  0.1453  0.2019 -0.1340
   97loPI   GL2 1542  10.003  13.480  10.037 -0.3214 -0.1752  0.0184
   97loPI   C1A 1543   9.794  13.886   9.760  0.6283  0.1881  0.3045
   97loPI   C2A 1544   9.970  13.846   9.390  0.2082 -0.2444 -0.0516
   97loPI   C3A 1545   9.980  13.649   8.943  0.1662 -0.1748  0.0360
   97loPI   C4A 1546  10.003  13.343   8.613  0.0333 -0.3194 -0.0966
   97loPI   C5A 1547   9.971  13.062   8.315  0.0822 -0.3504 -0.0682
   97loPI   C6A 1548  10.037  12.654   8.120 -0.0859 -0.0964  0.2121
   97loPI   C1B 1549  10.076  13.393   9.648  0.3551  0.1726 -0.2907
   97loPI   C2B 1550  10.286  13.271   9.193 -0.0436 -0.0311 -0.2450
   97loPI   C3B 1551  10.281  12.958   8.809  0.0720  0.0255 -0.1933
   97loPI   C4B 1552  10.404  12.843   8.413 -0.0829  0.3176  0.0031
   98loPI    C1 1553   3.449  10.038  10.353 -0.1458  0.1560  0.0239
   98loPI    C2 1554   3.172   9.856  10.578 -0.2362  0.2171 -0.0372
   98loPI    C3 1555   3.256  10.242  10.637  0.0057  0.1398  0.1393
   98loPI   PO4 1556   3.394   9.995  10.144 -0.4982  0.0032  0.0232
   98loPI   GL1 1557   3.373   9.798   9.716  0.2787 -0.2182 -0.1046
   98loPI   GL2 1558   3.562   9.643   9.513 -0.1299 -0.3062  0.0120
   98loPI   C1A 1559   3.168  10.071   9.390 -0.0378  0.0454 -0.1542
   98loPI   C2A 1560   2.960  10.138   8.991 -0.1326  0.1880  0.1228
   98loPI   C3A 1561   2.811  10.132   8.530  0.3073 -0.1784 -0.0648
   98loPI   C4A 1562   2.580  10.151   8.166  0.1366  0.1256 -0.0945
   98loPI   C5A 1563   2.521  10.413   7.817  0.0080  0.4510 -0.0155
   98loPI   C6A 1564   2.796  10.593   7.476 -0.0784  0.0097 -0.0475
   98loPI   C1B 1565   3.606   9.998   9.190 -0.0346 -0.1563  0.0552
   98loPI   C2B 1566   3.657  10.254   8.798 -0.0111 -0.1704 -0.1316
   98loPI   C3B 1567   3.843  10.116   8.408 -0.0970  0.0644  0.0513
   98loPI   C4B 1568   4.005   9.839   7.988  0.1449 -0.0712 -0.1815
   99loPI    C1 1569   6.046  10.341  10.470  0.2198  0.0342  0.0338
   99loPI    C2 1570   5.960  10.698  10.628 -0.1693 -0.0114 -0.0658
   99loPI    C3 1571   6.092  10.403  10.863 -0.1683  0.0980  0.0728
   99loPI   PO4 1572   5.875  10.348  10.207 -0.0239  0.2420  0.0053
   99loPI   GL1 1573   5.668  10.222   9.864 -0.1065  0.0534  0.1651
   99loPI   GL2 1574   5.323  10.380   9.795  0.2143  0.0296 -0.1537
   99loPI   C1A 1575   5.611  10.504   9.423  0.2145  0.1052  0.0824
   99loPI   C2A 1576   5.698  10.835   9.098 -0.0267  0.2682 -0.0136
   99loPI   C3A 1577   5.908  11.118   8.859  0.1996 -0.2838 -0.1689
   99loPI   C4A 1578   5.869  11.176   8.488  0.0628 -0.0535 -0.1243
   99loPI   C5A 1579   6.080  11.047   8.158  0.3402 -0.1336 -0.1469
   99loPI   C6A 1580   6.187  10.743   7.796  0.0234  0.0504  0.1983
   99loPI   C1B 1581   5.382  10.029   9.491 -0.0952 -0.0113  0.1253
   99loPI   C2B 1582   5.535  10.060   9.061  0.1608 -0.3041 -0.0834
   99loPI   C3B 1583   5.743  10.088   8.658  0.2924  0.0896  0.1779
   99loPI   C4B 1584   5.795  10.154   8.287  0.0349 -0.0546  0.1147
  100loPI    C1 1585  12.027   7.779  10.835  0.1063 -0.0589  0.0479
  100loPI    C2 1586  11.879   8.147  10.882 -0.1720 -0.1460 -0.1212
  100loPI    C3 1587  11.949   7.918  11.202  0.1276  0.0991 -0.0069
  100loPI   PO4 1588  11.954   7.786  10.526  0.0419 -0.4950 -0.0907
  100loPI   GL1 1589  12.021   7.884  10.111 -0.2283  0.0793  0.1070
  100loPI   GL2 1590  12.400   7.929  10.111 -0.2078  0.0822 -0.1943
  100loPI   C1A 1591  11.853   7.848   9.669  0.1582  0.2083  0.0697
  100loPI   C2A 1592  11.848   7.834   9.269 -0.1185 -0.0337  0.0468
  100loPI   C3A 1593  11.871   7.882   8.788 -0.0841  0.0053 -0.1041
  100loPI   C4A 1594  11.962   7.982   8.439  0.1194  0.1674  0.2106
  100loPI   C5A 1595  11.950   8.170   8.084 -0.0403 -0.0305  0.0999
  100loPI   C6A 1596  11.748   8.448   7.809  0.1058  0.0838  0.1466
  100loPI   C1B 1597  12.354   7.950   9.667 -0.3646 -0.2293  0.0356
  100loPI   C2B 1598  12.317   7.965   9.207 -0.3315  0.0173  0.4156
  100loPI   C3B 1599  12.363   8.021   8.731 -0.0387 -0.0719  0.1526
  100loPI   C4B 1600  12.424   8.055   8.312 -0.0695 -0.2071  0.0822
  101loPI    C1 1601  12.961   5.339  10.440 -0.2282 -0.0622  0.1100
  101loPI    C2 1602  12.767   5.629  10.635 -0.1563 -0.0256  0.1276
  101loPI    C3 1603  12.782   5.260  10.789 -0.3254 -0.0615  0.0605
  101loPI   PO4 1604  12.910   5.401  10.199  0.1502 -0.0294 -0.1755
  101loPI   GL1 1605  12.960   5.234   9.793 -0.0579 -0.0915 -0.0341
  101loPI   GL2 1606  13.193   5.025   9.719  0.0883 -0.0992 -0.2024
  101loPI   C1A 1607  12.913   5.425   9.417 -0.0328  0.2810  0.1083
  101loPI   C2A 1608  12.995   5.392   8.935  0.1088 -0.0027 -0.2201
  101loPI   C3A 1609  12.914   5.436   8.520  0.0011 -0.3387  0.0712
  101loPI   C4A 1610  12.922   5.562   8.120  0.0618  0.1300 -0.3419
  101loPI   C5A 1611  13.113   5.806   7.882 -0.1734 -0.0384  0.1901
  101loPI   C6A 1612  13.496   6.015   7.645 -0.0300  0.1845  0.1393
  101loPI   C1B 1613  13.257   5.078   9.314 -0.1884 -0.1684 -0.0195
  101loPI   C2B 1614  13.333   5.035   8.919 -0.1287  0.1871 -0.0705
  101loPI   C3B 1615  13.283   5.081   8.383  0.1306 -0.1235 -0.1319
  101loPI   C4B 1616  13.387   5.248   7.984  0.3164 -0.1936 -0.3207
  102loPI    C1 1617   5.430  18.294  10.369  0.1497 -0.0118 -0.0794
  102loPI    C2 1618   5.508  18.636  10.176  0.0770  0.1268  0.1338
  102loPI    C3 1619   5.737  18.524  10.485  0.0407  0.0324  0.1268
  102loPI   PO4 1620   5.255  18.192  10.186  0.1189  0.5120  0.0691
  102loPI   GL1 1621   5.311  18.172   9.785 -0.2365 -0.1859  0.0963
  102loPI   GL2 1622   5.495  18.441   9.718  0.5218  0.3313 -0.1887
  102loPI   C1A 1623   5.255  18.122   9.362  0.1035 -0.0383 -0.1148
  102loPI   C2A 1624   5.218  18.050   8.914  0.1951  0.4449 -0.1654
  102loPI   C3A 1625   5.226  18.090   8.486 -0.2459  0.1079 -0.0808
  102loPI   C4A 1626   5.155  18.296   8.093 -0.4086  0.2339  0.0748
  102loPI   C5A 1627   4.874  18.052   7.852  0.1050 -0.0797 -0.0648
  102loPI   C6A 1628   4.688  17.606   7.755 -0.1964 -0.2100 -0.0857
  102loPI   C1B 1629   5.511  18.550   9.255 -0.0466 -0.1451 -0.1232
  102loPI   C2B 1630   5.472  18.631   8.825 -0.1511  0.2344  0.0209
  102loPI   C3B 1631   5.408  18.624   8.361 -0.1315 -0.0675  0.1639
  102loPI   C4B 1632   5.227  18.732   7.866  0.1642 -0.0843  0.3067
  103loPI    C1 1633  11.485   1.763  10.074  0.0186  0.1539 -0.1041
  103loPI    C2 1634  11.318   2.080  10.252 -0.0478 -0.0094  0.1294
  103loPI    C3 1635  11.128   1.728  10.250  0.0785 -0.0781 -0.0249
  103loPI   PO4 1636  11.424   1.824   9.804 -0.0897  0.0645 -0.1238
  103loPI   GL1 1637  11.544   1.702   9.478  0.1053  0.1609  0.0119
  103loPI   GL2 1638  11.628   2.065   9.430  0.2572  0.3744  0.0037
  103loPI   C1A 1639  11.526   1.553   9.006  0.0824  0.3961 -0.0548
  103loPI   C2A 1640  11.672   1.394   8.640 -0.1574 -0.2380  0.0187
  103loPI   C3A 1641  11.780   1.522   8.219  0.0114  0.1536  0.2863
  103loPI   C4A 1642  11.896   1.835   7.959 -0.0378 -0.0818  0.4076
  103loPI   C5A 1643  12.030   2.018   7.637  0.1091  0.1525  0.0860
  103loPI   C6A 1644  12.341   2.326   7.622  0.0987  0.1502 -0.2541
  103loPI   C1B 1645  11.742   2.013   8.948 -0.1301  0.0660 -0.1049
  103loPI   C2B 1646  11.627   2.009   8.491 -0.1645  0.1274 -0.0977
  103loPI   C3B 1647  11.495   2.060   8.069  0.0596  0.0872 -0.1867
  103loPI   C4B 1648  11.481   2.050   7.686  0.0543 -0.0991 -0.3533
  104loPI    C1 1649  17.992   1.246  10.579  0.4116 -0.1329 -0.0123
  104loPI    C2 1650  17.739   0.971  10.722  0.2274 -0.0993 -0.2662
  104loPI    C3 1651  17.808   1.306  10.929 -0.1631  0.0246 -0.3274
  104loPI   PO4 1652  17.907   1.328  10.324  0.0492 -0.1331 -0.0087
  104loPI   GL1 1653  18.031   1.140   9.893 -0.1206 -0.1056 -0.0003
  104loPI   GL2 1654  18.192   0.858   9.925 -0.0094 -0.1047  0.3516
  104loPI   C1A 1655  17.808   1.462   9.661  0.0558  0.2218  0.0963
  104loPI   C2A 1656  17.693   1.491   9.219 -0.0077 -0.0303 -0.2257
  104loPI   C3A 1657  17.733   1.428   8.783 -0.0326 -0.1752  0.1445
  104loPI   C4A 1658  17.862   1.471   8.308  0.1587 -0.5944  0.2469
  104loPI   C5A 1659  18.243   1.559   7.996  0.0624 -0.4315 -0.0087
  104loPI   C6A 1660  18.327   1.591   7.602  0.0838 -0.1097 -0.2310
  104loPI   C1B 1661  18.130   0.884   9.450 -0.1842 -0.2991 -0.1204
  104loPI   C2B 1662  18.081   1.064   9.087  0.2486 -0.1641  0.3654
  104loPI   C3B 1663  18.172   1.017   8.705 -0.0588  0.0904  0.0557
  104loPI   C4B 1664  18.361   0.767   8.355 -0.2724 -0.0849  0.0221
  105loPI    C1 1665   2.979   6.894  10.005  0.0078  0.0030  0.1685
  105loPI    C2 1666   2.696   6.641   9.881 -0.0189  0.0550  0.1226
  105loPI    C3 1667   2.650   6.838  10.226  0.0240 -0.0384  0.1821
  105loPI   PO4 1668   3.069   6.962   9.791  0.0462 -0.0767  0.1479
  105loPI   GL1 1669   3.337   7.143   9.497  0.0451 -0.0284  0.0246
  105loPI   GL2 1670   3.392   6.799   9.471 -0.0455  0.0403  0.0327
  105loPI   C1A 1671   3.201   6.991   9.106  0.1608  0.3159  0.4982
  105loPI   C2A 1672   3.009   6.957   8.687 -0.0505  0.0307  0.1917
  105loPI   C3A 1673   2.800   6.837   8.235  0.0815 -0.3511  0.0116
  105loPI   C4A 1674   2.747   6.584   7.839  0.0508  0.0935  0.0144
  105loPI   C5A 1675   2.445   6.323   7.656 -0.0225 -0.0472 -0.2799
  105loPI   C6A 1676   2.032   6.119   7.466 -0.1339 -0.2427  0.1040
  105loPI   C1B 1677   3.432   6.560   9.190  0.0442  0.1392  0.1978
  105loPI   C2B 1678   3.343   6.523   8.785  0.0909  0.1545 -0.0277
  105loPI   C3B 1679   3.363   6.572   8.485  0.2101 -0.1114 -0.0342
  105loPI   C4B 1680   3.258   6.802   8.087  0.0160  0.0653 -0.1314
  106loPI    C1 1681   7.737  18.431  10.112  0.2952  0.0575  0.0318
  106loPI    C2 1682   7.985  18.650  10.337  0.0670  0.0275  0.3176
  106loPI    C3 1683   7.701  18.428  10.510 -0.1296  0.0229 -0.0028
  106loPI   PO4 1684   7.878  18.452   9.881 -0.2313 -0.2133  0.0133
  106loPI   GL1 1685   7.912  18.356   9.463  0.1259  0.1268 -0.0774
  106loPI   GL2 1686   8.034  18.412   9.138  0.2033 -0.1178 -0.2291
  106loPI   C1A 1687   7.711  18.025   9.169 -0.0615 -0.1633  0.0365
  106loPI   C2A 1688   7.929  17.778   8.935 -0.1000 -0.1183  0.4912
  106loPI   C3A 1689   7.875  17.775   8.461 -0.1613  0.3195  0.0855
  106loPI   C4A 1690   7.934  17.995   8.052 -0.0590 -0.0648 -0.0098
  106loPI   C5A 1691   7.822  18.434   7.899 -0.1509  0.1586 -0.1929
  106loPI   C6A 1692   7.757  18.826   7.670 -0.0506 -0.3366  0.2665
  106loPI   C1B 1693   7.813  18.288   8.742 -0.0568 -0.1348 -0.1637
  106loPI   C2B 1694   7.618  18.209   8.366  0.0488 -0.1176 -0.2073
  106loPI   C3B 1695   7.385  18.393   8.088 -0.1041  0.0494  0.0648
  106loPI   C4B 1696   7.320  18.497   7.638 -0.2364  0.0055 -0.0650
  107loPI    C1 1697   1.873   2.605  10.633 -0.1253  0.0728 -0.1001
  107loPI    C2 1698   1.747   2.319  10.883  0.2396  0.1004  0.1231
  107loPI    C3 1699   1.585   2.685  10.899  0.0130  0.0039  0.0726
  107loPI   PO4 1700   1.825   2.574  10.433  0.2157 -0.4163 -0.0212
  107loPI   GL1 1701   1.951   2.263  10.115 -0.3605  0.1655 -0.0248
  107loPI   GL2 1702   1.674   2.131   9.924  0.0626 -0.1304  0.3434
  107loPI   C1A 1703   2.105   2.302   9.711  0.0474 -0.0698  0.1058
  107loPI   C2A 1704   1.955   2.238   9.311 -0.2723 -0.2898 -0.0107
  107loPI   C3A 1705   1.950   2.296   8.906 -0.1353 -0.1374  0.1395
  107loPI   C4A 1706   2.023   2.484   8.466  0.2546 -0.2565 -0.1445
  107loPI   C5A 1707   1.977   2.544   8.014 -0.0777  0.0122  0.1464
  107loPI   C6A 1708   1.799   2.213   7.855  0.1919  0.0286 -0.1860
  107loPI   C1B 1709   1.523   2.186   9.483  0.1395 -0.3134  0.1606
  107loPI   C2B 1710   1.462   2.233   9.007  0.0609  0.1413  0.2835
  107loPI   C3B 1711   1.538   2.347   8.574 -0.0006 -0.1162  0.1711
  107loPI   C4B 1712   1.501   2.447   8.161  0.0812 -0.0403 -0.0647
  108loPI    C1 1713   6.216   5.482  11.003  0.0677 -0.1062 -0.0348
  108loPI    C2 1714   5.857   5.374  11.144  0.1104 -0.1345  0.0534
  108loPI    C3 1715   6.008   5.734  11.234  0.0411 -0.0653 -0.1032
  108loPI   PO4 1716   6.222   5.525  10.714 -0.2261  0.4071  0.1393
  108loPI   GL1 1717   6.448   5.366  10.293 -0.0520 -0.2708 -0.0294
  108loPI   GL2 1718   6.712   5.522  10.185  0.2742 -0.0315  0.2567
  108loPI   C1A 1719   6.606   5.161   9.845  0.0591  0.1262 -0.1758
  108loPI   C2A 1720   6.674   5.233   9.519 -0.1342 -0.3104  0.0352
  108loPI   C3A 1721   6.735   5.375   9.107 -0.0434  0.1014 -0.1405
  108loPI   C4A 1722   6.651   5.374   8.632 -0.2199  0.4691  0.2493
  108loPI   C5A 1723   6.499   5.705   8.255  0.3232 -0.0813 -0.0512
  108loPI   C6A 1724   6.345   5.606   7.831 -0.1261 -0.1036  0.0897
  108loPI   C1B 1725   6.872   5.579   9.788  0.1852 -0.1504 -0.2259
  108loPI   C2B 1726   6.965   5.787   9.430 -0.2996 -0.1477  0.0361
  108loPI   C3B 1727   6.966   5.797   8.970  0.0433 -0.1603 -0.1125
  108loPI   C4B 1728   6.898   5.743   8.537 -0.0350 -0.0744  0.1381
  109loPI    C1 1729  18.110   7.247  10.160 -0.1021  0.0615  0.0804
  109loPI    C2 1730  18.226   7.268  10.543  0.0778  0.0083  0.0297
  109loPI    C3 1731  18.498   7.291  10.250 -0.0109 -0.3587 -0.0865
  109loPI   PO4 1732  17.953   7.174  10.094 -0.1235  0.1101  0.2035
  109loPI   GL1 1733  18.085   6.799   9.831  0.3681  0.0308  0.1638
  109loPI   GL2 1734  17.765   6.841   9.770 -0.1430  0.0344  0.0088
  109loPI   C1A 1735  18.141   6.430   9.721 -0.2686  0.2154 -0.0558
  109loPI   C2A 1736  17.958   6.051   9.526 -0.0161 -0.0035  0.3342
  109loPI   C3A 1737  17.959   5.814   9.148  0.0036  0.1083 -0.1102
  109loPI   C4A 1738  17.977   5.584   8.716  0.1087  0.0937 -0.0073
  109loPI   C5A 1739  17.903   5.538   8.224 -0.0150 -0.5139  0.0061
  109loPI   C6A 1740  18.033   5.663   7.795 -0.2150 -0.1300 -0.0736
  109loPI   C1B 1741  17.975   6.740   9.367 -0.0425 -0.2598 -0.0275
  109loPI   C2B 1742  18.210   6.396   9.140 -0.2051  0.1117 -0.1445
  109loPI   C3B 1743  18.185   6.235   8.794  0.0622  0.0809 -0.1047
  109loPI   C4B 1744  17.922   6.026   8.410 -0.0868 -0.0787 -0.3983
  110loPI    C1 1745   0.474  17.469  10.598  0.1217 -0.0380  0.0380
  110loPI    C2 1746   0.596  17.389  10.970 -0.0387 -0.0975  0.0787
  110loPI    C3 1747   0.460  17.754  10.878 -0.1536 -0.1293  0.1206
  110loPI   PO4 1748   0.523  17.150  10.477 -0.1628  0.1100  0.1194
  110loPI   GL1 1749   0.489  17.041  10.103 -0.2961  0.1325 -0.2273
  110loPI   GL2 1750   0.601  16.813   9.963  0.1554  0.1168  0.1021
  110loPI   C1A 1751   0.267  17.162   9.760  0.0582 -0.0274  0.4629
  110loPI   C2A 1752   0.282  17.176   9.355 -0.0828  0.0896  0.1178
  110loPI   C3A 1753   0.050  17.383   9.090  0.1523  0.1471  0.1926
  110loPI   C4A 1754  -0.186  17.320   8.685  0.0690  0.1167  0.0606
  110loPI   C5A 1755  -0.476  17.225   8.464 -0.5168 -0.2916 -0.1326
  110loPI   C6A 1756  -0.511  16.850   8.275 -0.2191  0.0697 -0.0769
  110loPI   C1B 1757   0.622  16.859   9.631 -0.2359  0.1442  0.0777
  110loPI   C2B 1758   0.717  16.947   9.174 -0.0522  0.2823  0.0744
  110loPI   C3B 1759   0.766  16.938   8.726  0.2766  0.0881  0.0176
  110loPI   C4B 1760   0.848  16.881   8.334 -0.1668 -0.2042 -0.3717
  111loPI    C1 1761   9.571   8.845  10.908 -0.0846  0.0043  0.1782
  111loPI    C2 1762   9.318   9.121  11.050 -0.0290  0.0072  0.2724
  111loPI    C3 1763   9.224   8.733  11.073  0.0233  0.0020  0.4068
  111loPI   PO4 1764   9.599   8.838  10.650 -0.1677  0.3267 -0.0162
  111loPI   GL1 1765   9.457   8.719  10.298  0.0446  0.0543 -0.4346
  111loPI   GL2 1766   9.496   8.965  10.171 -0.1739  0.1039 -0.0897
  111loPI   C1A 1767   9.426   8.592   9.857  0.0833  0.0638 -0.3431
  111loPI   C2A 1768   9.273   8.423   9.543 -0.0354 -0.0887 -0.2857
  111loPI   C3A 1769   9.190   8.297   9.152 -0.1186  0.0139 -0.0294
  111loPI   C4A 1770   9.218   8.169   8.780  0.0510 -0.2545 -0.0853
  111loPI   C5A 1771   9.458   8.123   8.496 -0.1460 -0.1576 -0.0918
  111loPI   C6A 1772   9.980   8.111   8.369 -0.2869 -0.1443  0.0199
  111loPI   C1B 1773   9.385   9.107   9.793  0.0467 -0.0652 -0.4248
  111loPI   C2B 1774   9.511   8.898   9.378  0.2298 -0.1006  0.3548
  111loPI   C3B 1775   9.451   8.858   8.959 -0.1441  0.2107 -0.1927
  111loPI   C4B 1776   9.304   8.708   8.455 -0.3794 -0.1099  0.0825
  112loPI    C1 1777   8.307   7.630  10.082 -0.0600 -0.1999  0.0320
  112loPI    C2 1778   7.969   7.569  10.286 -0.0736  0.0873  0.0999
  112loPI    C3 1779   8.087   7.942  10.201  0.1367 -0.0168 -0.0753
  112loPI   PO4 1780   8.533   7.495  10.156  0.2991  0.0522  0.2020
  112loPI   GL1 1781   8.700   7.456   9.827 -0.1328 -0.0839  0.2406
  112loPI   GL2 1782   8.516   7.224   9.713 -0.0975  0.1211 -0.0730
  112loPI   C1A 1783   9.067   7.428   9.692  0.0299 -0.0853  0.1762
  112loPI   C2A 1784   9.326   7.256   9.302 -0.1254 -0.1793 -0.1628
  112loPI   C3A 1785   9.501   7.189   8.834  0.0583 -0.2910  0.0613
  112loPI   C4A 1786   9.751   7.194   8.448  0.1602  0.1738 -0.2348
  112loPI   C5A 1787  10.081   7.205   8.145 -0.0500 -0.0712 -0.0722
  112loPI   C6A 1788  10.112   7.176   7.736  0.0298  0.0151  0.1766
  112loPI   C1B 1789   8.696   7.332   9.317 -0.0095  0.1290 -0.6037
  112loPI   C2B 1790   8.827   7.301   8.928  0.0209  0.0425  0.1662
  112loPI   C3B 1791   8.707   7.466   8.566 -0.1493 -0.3753 -0.1156
  112loPI   C4B 1792   8.565   7.287   8.252  0.2112  0.1905 -0.1291
  113loPI    C1 1793   0.816  17.999  10.504 -0.0032  0.0665  0.2751
  113loPI    C2 1794   1.155  18.057  10.709  0.0858  0.0327  0.1391
  113loPI    C3 1795   0.802  18.139  10.879  0.1458 -0.2029  0.3843
  113loPI   PO4 1796   0.871  18.057  10.283 -0.0452 -0.2227 -0.4815
  113loPI   GL1 1797   1.028  17.943   9.933 -0.0372 -0.1249 -0.1833
  113loPI   GL2 1798   1.048  18.203   9.768 -0.3298  0.0216  0.2026
  113loPI   C1A 1799   1.183  17.575   9.597  0.0036  0.1727  0.0046
  113loPI   C2A 1800   1.163  17.318   9.354 -0.2263  0.2534  0.2672
  113loPI   C3A 1801   1.234  17.169   8.904  0.0218  0.0542  0.1261
  113loPI   C4A 1802   1.003  17.434   8.643  0.1230  0.0462  0.0563
  113loPI   C5A 1803   0.859  17.548   8.261 -0.2001  0.0897  0.1247
  113loPI   C6A 1804   0.744  17.703   7.819  0.1003  0.0753  0.0778
  113loPI   C1B 1805   1.229  17.990   9.349  0.1468 -0.0145  0.1064
  113loPI   C2B 1806   1.244  17.823   8.941  0.0815  0.0541 -0.0937
  113loPI   C3B 1807   1.353  17.822   8.448 -0.1339  0.0253  0.1343
  113loPI   C4B 1808   1.274  17.825   8.027  0.1067  0.1036 -0.2471
  114loPI    C1 1809  11.425   7.201  10.904 -0.1574 -0.1906  0.0160
  114loPI    C2 1810  11.193   7.409  11.155 -0.0049  0.0238 -0.0181
  114loPI    C3 1811  11.415   7.105  11.292 -0.1381 -0.0421  0.0536
  114loPI   PO4 1812  11.307   7.234  10.613  0.3977  0.0802  0.2344
  114loPI   GL1 1813  11.415   7.320  10.178 -0.0966 -0.2278 -0.0531
  114loPI   GL2 1814  11.768   7.404  10.077  0.1328  0.1760  0.2453
  114loPI   C1A 1815  11.405   7.722   9.936  0.0808 -0.1376 -0.0461
  114loPI   C2A 1816  11.285   7.724   9.501  0.1312 -0.1551  0.0829
  114loPI   C3A 1817  11.334   7.752   9.134  0.0727 -0.0347  0.0679
  114loPI   C4A 1818  11.399   7.908   8.652  0.3868 -0.0990  0.1825
  114loPI   C5A 1819  11.473   7.936   8.219  0.3234  0.0761  0.1658
  114loPI   C6A 1820  11.371   8.121   7.902  0.1220 -0.2090 -0.0319
  114loPI   C1B 1821  11.742   7.367   9.603  0.0307 -0.0877  0.1504
  114loPI   C2B 1822  11.699   7.343   9.276 -0.2752 -0.1115  0.0909
  114loPI   C3B 1823  11.740   7.376   8.939 -0.2147 -0.2143 -0.0476
  114loPI   C4B 1824  11.677   7.492   8.414 -0.0931 -0.0774 -0.0359
  115loPI    C1 1825   6.254  11.313  10.067 -0.1007 -0.1165 -0.1846
  115loPI    C2 1826   6.284  11.624  10.316 -0.1134 -0.0367 -0.2819
  115loPI    C3 1827   6.275  11.251  10.461  0.1573 -0.0051 -0.1789
  115loPI   PO4 1828   6.148  11.374   9.904 -0.0247  0.0037  0.0980
  115loPI   GL1 1829   5.986  11.546   9.578  0.0305 -0.2168  0.4089
  115loPI   GL2 1830   5.950  11.907   9.710 -0.0856 -0.4126  0.3932
  115loPI   C1A 1831   5.890  11.594   9.249  0.2800 -0.2296  0.1278
  115loPI   C2A 1832   5.808  11.620   8.720  0.1507 -0.0991 -0.3078
  115loPI   C3A 1833   5.852  11.614   8.337  0.0320 -0.2019 -0.2579
  115loPI   C4A 1834   5.747  11.388   7.942  0.0166  0.0591 -0.0230
  115loPI   C5A 1835   5.654  10.930   7.758 -0.0665 -0.0881 -0.0185
  115loPI   C6A 1836   5.756  10.559   7.976 -0.0525 -0.1661  0.0394
  115loPI   C1B 1837   5.821  12.067   9.290  0.2431 -0.1756 -0.0857
  115loPI   C2B 1838   5.790  12.173   8.833 -0.2917 -0.1394 -0.0198
  115loPI   C3B 1839   5.867  12.117   8.444  0.0203 -0.0197 -0.0624
  115loPI   C4B 1840   5.969  12.014   8.045 -0.0517 -0.3446  0.0682
  116loPI    C1 1841  12.203  11.737  10.732 -0.1282  0.0175  0.1780
  116loPI    C2 1842  11.984  11.439  10.579 -0.0874  0.0788 -0.0027
  116loPI    C3 1843  12.058  11.452  10.972  0.0032 -0.2094 -0.0079
  116loPI   PO4 1844  12.406  11.725  10.489  0.0832 -0.2911 -0.0158
  116loPI   GL1 1845  12.768  11.822  10.361  0.2530 -0.0489 -0.0241
  116loPI   GL2 1846  12.604  11.860  10.052 -0.0427  0.1783  0.0790
  116loPI   C1A 1847  13.091  11.671  10.033  0.0937  0.4906  0.2636
  116loPI   C2A 1848  13.431  11.675   9.680 -0.2551  0.0368  0.0302
  116loPI   C3A 1849  13.327  11.702   9.274  0.4095  0.2234 -0.1580
  116loPI   C4A 1850  13.303  11.868   8.908  0.3106 -0.1249 -0.0471
  116loPI   C5A 1851  13.215  11.982   8.466  0.2749 -0.0583 -0.0234
  116loPI   C6A 1852  12.800  12.238   8.394 -0.0905 -0.1146 -0.1004
  116loPI   C1B 1853  12.413  12.197   9.881  0.2406 -0.3711 -0.0613
  116loPI   C2B 1854  12.474  12.311   9.492 -0.1246  0.1160  0.3555
  116loPI   C3B 1855  12.430  12.331   8.997  0.1632  0.1269 -0.3052
  116loPI   C4B 1856  12.373  12.570   8.626  0.2686 -0.0451 -0.0018
  117loPI    C1 1857  14.115   3.131  10.651  0.2420 -0.2013 -0.2540
  117loPI    C2 1858  14.129   3.069  11.046 -0.2250 -0.1663 -0.2257
  117loPI    C3 1859  14.365   2.857  10.801  0.4944  0.2135  0.1061
  117loPI   PO4 1860  14.094   3.434  10.659  0.0651  0.1817  0.1826
  117loPI   GL1 1861  14.278   3.617  10.209 -0.1083  0.2808  0.0916
  117loPI   GL2 1862  14.117   3.325  10.174 -0.2696  0.0071  0.0792
  117loPI   C1A 1863  14.634   3.484   9.888  0.0245  0.0808  0.0711
  117loPI   C2A 1864  14.666   3.496   9.486 -0.3056  0.0170  0.0284
  117loPI   C3A 1865  14.586   3.433   9.068 -0.0186 -0.0332 -0.0633
  117loPI   C4A 1866  14.648   3.500   8.643 -0.1151  0.3296 -0.1627
  117loPI   C5A 1867  14.592   3.415   8.204 -0.1883  0.1988  0.2498
  117loPI   C6A 1868  14.478   3.182   7.770  0.1177 -0.0483  0.2125
  117loPI   C1B 1869  14.078   3.426   9.767 -0.0258 -0.1262  0.0566
  117loPI   C2B 1870  14.134   3.426   9.274  0.1500 -0.1079 -0.1636
  117loPI   C3B 1871  14.161   3.352   8.862 -0.0437 -0.2935 -0.3661
  117loPI   C4B 1872  14.097   3.388   8.494 -0.1757 -0.0873 -0.2205
  118loPI    C1 1873   2.603   6.145  10.117  0.3417  0.1687 -0.1555
  118loPI    C2 1874   2.863   6.014  10.390  0.2316  0.0953 -0.0850
  118loPI    C3 1875   2.735   6.392  10.402  0.0316  0.0235  0.1211
  118loPI   PO4 1876   2.716   6.076   9.902  0.0840  0.3814 -0.2169
  118loPI   GL1 1877   2.675   6.282   9.543  0.0034  0.1318 -0.1363
  118loPI   GL2 1878   2.915   6.552   9.489  0.0125  0.2757 -0.0939
  118loPI   C1A 1879   2.506   6.341   9.156  0.1189  0.0982 -0.0510
  118loPI   C2A 1880   2.385   6.698   8.975 -0.1196  0.1661 -0.0881
  118loPI   C3A 1881   2.509   7.056   8.660  0.2801 -0.0402  0.1799
  118loPI   C4A 1882   2.645   7.369   8.210 -0.1521  0.0868  0.0142
  118loPI   C5A 1883   2.634   7.699   7.874  0.1655  0.2837  0.0034
  118loPI   C6A 1884   2.574   7.899   7.527  0.0057 -0.2480 -0.2135
  118loPI   C1B 1885   2.917   6.599   9.037  0.2072 -0.1648  0.2394
  118loPI   C2B 1886   2.829   6.479   8.610  0.2186 -0.3588  0.2328
  118loPI   C3B 1887   3.050   6.334   8.173  0.1217  0.1814 -0.0111
  118loPI   C4B 1888   3.510   6.404   7.957  0.2617  0.1132  0.2043
  119loPI    C1 1889   1.474  16.670  10.734  0.0411  0.1404  0.0550
  119loPI    C2 1890   1.734  16.548  11.012  0.1523  0.2106 -0.0177
  119loPI    C3 1891   1.734  16.929  10.892  0.0261  0.2071 -0.0298
  119loPI   PO4 1892   1.388  16.389  10.649 -0.1987 -0.1173 -0.1405
  119loPI   GL1 1893   1.358  16.290  10.188  0.1292 -0.0080  0.1185
  119loPI   GL2 1894   1.519  16.523  10.170  0.2228 -0.0431  0.0498
  119loPI   C1A 1895   1.034  16.510   9.898 -0.0535 -0.1552  0.1311
  119loPI   C2A 1896   1.092  16.807   9.552 -0.0605  0.0341  0.0446
  119loPI   C3A 1897   1.157  16.768   9.157  0.2739 -0.2000 -0.2109
  119loPI   C4A 1898   1.248  16.587   8.696  0.0624 -0.0629 -0.1916
  119loPI   C5A 1899   1.159  16.397   8.225 -0.1505  0.2492 -0.0452
  119loPI   C6A 1900   0.973  16.367   7.825  0.0380 -0.0006  0.0401
  119loPI   C1B 1901   1.520  16.529   9.723  0.2161  0.0060  0.0344
  119loPI   C2B 1902   1.570  16.445   9.369  0.0860  0.5320  0.3441
  119loPI   C3B 1903   1.682  16.367   8.910  0.4216 -0.0339  0.0096
  119loPI   C4B 1904   1.693  16.447   8.374  0.2317  0.1901 -0.1785
  120loPI    C1 1905   8.326   0.057   9.742 -0.2088 -0.0029  0.0529
  120loPI    C2 1906   8.646  -0.148   9.868 -0.2177  0.0119  0.0999
  120loPI    C3 1907   8.433   0.070  10.128 -0.2074  0.0820  0.0497
  120loPI   PO4 1908   8.386   0.058   9.526 -0.1763  0.1302  0.1970
  120loPI   GL1 1909   8.474   0.200   9.099 -0.5004  0.1191 -0.2192
  120loPI   GL2 1910   8.739   0.172   9.146  0.0073  0.0966  0.0668
  120loPI   C1A 1911   8.562   0.124   8.685 -0.1221  0.0921 -0.1881
  120loPI   C2A 1912   8.620   0.187   8.232  0.3513  0.0892 -0.1108
  120loPI   C3A 1913   8.760   0.486   7.857  0.0507 -0.1725  0.1421
  120loPI   C4A 1914   8.993   0.772   7.921 -0.1701  0.1879 -0.2558
  120loPI   C5A 1915   9.255   1.130   7.850 -0.0930 -0.2522  0.2461
  120loPI   C6A 1916   9.321   1.506   7.944 -0.1739  0.1455 -0.2212
  120loPI   C1B 1917   8.925  -0.185   8.873 -0.0497 -0.1380 -0.1259
  120loPI   C2B 1918   8.854  -0.217   8.386  0.1751  0.0271  0.0439
  120loPI   C3B 1919   8.897  -0.427   8.051  0.0327  0.1450 -0.2187
  120loPI   C4B 1920   8.806  -0.454   7.638 -0.0156  0.0101 -0.1358
  121loPI    C1 1921  10.035   4.146  10.277  0.0277  0.1391 -0.1056
  121loPI    C2 1922  10.111   4.165  10.669  0.1143 -0.2237 -0.1018
  121loPI    C3 1923  10.383   4.295  10.406  0.1397 -0.1668 -0.0478
  121loPI   PO4 1924   9.925   3.849  10.270  0.0087 -0.2720  0.0314
  121loPI   GL1 1925   9.858   3.757   9.778 -0.3100  0.0140  0.2304
  121loPI   GL2 1926   9.923   3.514   9.561 -0.2900 -0.0758  0.1961
  121loPI   C1A 1927   9.498   3.827   9.445 -0.1489  0.0647 -0.2951
  121loPI   C2A 1928   9.507   3.827   8.994 -0.2134 -0.1517  0.0855
  121loPI   C3A 1929   9.412   3.891   8.518 -0.1879 -0.2452 -0.1392
  121loPI   C4A 1930   9.409   3.876   8.118 -0.2845 -0.1209 -0.1247
  121loPI   C5A 1931   9.259   3.716   7.852  0.1546  0.1693 -0.0066
  121loPI   C6A 1932   8.957   3.366   7.809  0.0715  0.0401 -0.2933
  121loPI   C1B 1933   9.720   3.418   9.172  0.0255  0.0549 -0.3139
  121loPI   C2B 1934   9.602   3.422   8.739  0.0464  0.1343 -0.0500
  121loPI   C3B 1935   9.731   3.504   8.415 -0.3949  0.1442  0.1046
  121loPI   C4B 1936  10.175   3.485   8.344 -0.0911 -0.1965 -0.3342
  122loPI    C1 1937  13.529   5.001  10.634  0.0728  0.0617 -0.0655
  122loPI    C2 1938  13.158   4.859  10.678  0.1396 -0.1045 -0.0294
  122loPI    C3 1939  13.256   5.216  10.830  0.0287 -0.1161  0.0705
  122loPI   PO4 1940  13.592   4.782  10.430 -0.0671  0.0571  0.0256
  122loPI   GL1 1941  13.539   4.604  10.008  0.0794  0.3133  0.1942
  122loPI   GL2 1942  13.422   4.459   9.987  0.1461 -0.2508 -0.2655
  122loPI   C1A 1943  13.583   4.753   9.545  0.1516  0.2131 -0.1540
  122loPI   C2A 1944  13.671   4.654   9.146  0.3374  0.1100  0.1433
  122loPI   C3A 1945  13.648   4.661   8.652 -0.0742  0.0872 -0.1352
  122loPI   C4A 1946  13.654   4.622   8.210 -0.2175 -0.1429  0.0351
  122loPI   C5A 1947  13.678   4.702   7.737 -0.0100  0.2602 -0.0981
  122loPI   C6A 1948  13.485   4.569   7.422 -0.0857 -0.0771  0.0969
  122loPI   C1B 1949  13.470   4.261   9.498  0.3940 -0.1284  0.0052
  122loPI   C2B 1950  13.475   4.246   9.044  0.0411 -0.2087 -0.1051
  122loPI   C3B 1951  13.519   4.177   8.674 -0.1007 -0.0659 -0.0358
  122loPI   C4B 1952  13.469   4.071   8.198 -0.0447  0.1199  0.1014
  123loPI    C1 1953  12.476   6.900  10.693 -0.0120  0.1223  0.1748
  123loPI    C2 1954  12.549   7.281  10.790  0.0261  0.1121  0.1865
  123loPI    C3 1955  12.803   6.993  10.904  0.1204  0.1110 -0.0218
  123loPI   PO4 1956  12.429   6.906  10.436 -0.1624  0.3448  0.1256
  123loPI   GL1 1957  12.314   6.652  10.100  0.0924 -0.0442 -0.1250
  123loPI   GL2 1958  12.084   6.943   9.986  0.1484  0.3094 -0.0041
  123loPI   C1A 1959  12.288   6.606   9.689 -0.0877 -0.0414  0.1592
  123loPI   C2A 1960  12.432   6.639   9.213 -0.4476 -0.2364 -0.1078
  123loPI   C3A 1961  12.389   6.714   8.790  0.2145 -0.0878 -0.3889
  123loPI   C4A 1962  12.372   6.786   8.273 -0.1463  0.0638 -0.2572
  123loPI   C5A 1963  12.310   6.980   7.766  0.0535 -0.1382  0.0672
  123loPI   C6A 1964  12.252   7.191   7.406  0.0102  0.0617  0.1037
  123loPI   C1B 1965  11.995   6.952   9.544 -0.0133 -0.0835  0.2870
  123loPI   C2B 1966  12.008   6.981   9.023  0.0185  0.1932 -0.0254
  123loPI   C3B 1967  11.950   7.087   8.657  0.0006  0.1616 -0.1531
  123loPI   C4B 1968  12.117   7.184   8.175  0.1356 -0.1366  0.1820
  124loPI    C1 1969   3.195  14.324  10.524 -0.0371  0.0438  0.0503
  124loPI    C2 1970   3.028  14.533  10.822 -0.0652 -0.0240  0.0823
  124loPI    C3 1971   3.308  14.258  10.902  0.2454  0.2631  0.0084
  124loPI   PO4 1972   2.869  14.367  10.330  0.0129  0.0683  0.0506
  124loPI   GL1 1973   2.684  14.721   9.942  0.0487 -0.0911 -0.0100
  124loPI   GL2 1974   3.009  14.602   9.847  0.0207  0.0051  0.1221
  124loPI   C1A 1975   2.636  14.828   9.476  0.2682  0.3962 -0.0017
  124loPI   C2A 1976   2.573  14.831   8.983  0.1623 -0.1377 -0.0690
  124loPI   C3A 1977   2.585  14.858   8.574  0.2078  0.1235 -0.0183
  124loPI   C4A 1978   2.808  14.867   8.156 -0.0928 -0.0878 -0.0007
  124loPI   C5A 1979   2.885  14.621   7.767  0.1370 -0.0491  0.1412
  124loPI   C6A 1980   2.967  14.251   7.484  0.2156  0.0950  0.0073
  124loPI   C1B 1981   3.050  14.575   9.413  0.1404  0.1094 -0.0863
  124loPI   C2B 1982   3.047  14.557   8.996  0.0316 -0.1581 -0.1725
  124loPI   C3B 1983   3.110  14.696   8.520  0.2652  0.0691 -0.2644
  124loPI   C4B 1984   3.253  14.516   8.131  0.1142 -0.1306 -0.1867
  125loPI    C1 1985  11.122  16.714  10.659 -0.2793 -0.1998 -0.0158
  125loPI    C2 1986  11.241  16.900  10.993  0.1244 -0.0863 -0.2156
  125loPI    C3 1987  11.304  16.508  10.949  0.1603 -0.0823 -0.1988
  125loPI   PO4 1988  11.118  16.969  10.502 -0.0551 -0.0856 -0.5122
  125loPI   GL1 1989  11.378  17.077  10.064 -0.0693 -0.0524 -0.3514
  125loPI   GL2 1990  11.056  16.859   9.977  0.0322 -0.0746 -0.3083
  125loPI   C1A 1991  11.530  17.060   9.758 -0.0031 -0.2592 -0.0933
  125loPI   C2A 1992  11.384  17.060   9.448  0.0509  0.0642  0.0237
  125loPI   C3A 1993  11.064  17.039   9.221  0.1490 -0.0186  0.2557
  125loPI   C4A 1994  10.878  16.809   8.931 -0.2654  0.2476  0.2248
  125loPI   C5A 1995  10.963  16.502   8.630  0.1933  0.0624 -0.0508
  125loPI   C6A 1996  10.924  16.033   8.369  0.0293  0.1076  0.0456
  125loPI   C1B 1997  11.023  16.651   9.500  0.1217 -0.1877 -0.2356
  125loPI   C2B 1998  11.256  16.524   9.158  0.1879  0.0220 -0.0111
  125loPI   C3B 1999  11.457  16.775   8.888 -0.0027  0.1434 -0.0505
  125loPI   C4B 2000  11.400  16.800   8.550  0.1841 -0.1119 -0.0097
  126loPI    C1 2001  12.542   4.768  10.442 -0.0563  0.0160  0.1546
  126loPI    C2 2002  12.617   4.792  10.834 -0.2187 -0.0164  0.1884
  126loPI    C3 2003  12.698   4.454  10.635 -0.2297 -0.0345  0.2146
  126loPI   PO4 2004  12.640   4.979  10.300  0.1566  0.2386 -0.0432
  126loPI   GL1 2005  12.494   5.012   9.937 -0.1504  0.0455  0.1693
  126loPI   GL2 2006  12.445   4.733   9.888 -0.1065 -0.0000 -0.2780
  126loPI   C1A 2007  12.519   5.168   9.563 -0.3149  0.4158 -0.0331
  126loPI   C2A 2008  12.468   5.228   9.173 -0.0498  0.3932  0.0950
  126loPI   C3A 2009  12.512   5.199   8.673 -0.0842 -0.2880  0.4704
  126loPI   C4A 2010  12.429   5.309   8.276  0.3076  0.1202  0.2237
  126loPI   C5A 2011  12.481   5.393   7.804  0.2787 -0.0271 -0.2774
  126loPI   C6A 2012  12.742   5.640   7.489 -0.2555  0.1814 -0.1941
  126loPI   C1B 2013  12.329   4.774   9.398  0.2973 -0.0304 -0.0278
  126loPI   C2B 2014  12.289   4.827   8.987  0.2165 -0.0542 -0.2481
  126loPI   C3B 2015  12.232   4.838   8.445 -0.0435  0.2733 -0.1876
  126loPI   C4B 2016  12.330   4.828   8.041  0.1712  0.0200 -0.3098
  127loPI    C1 2017  11.584   3.659  10.097  0.4684  0.1286 -0.0984
  127loPI    C2 2018  11.575   4.046   9.996  0.2800  0.1251 -0.0999
  127loPI    C3 2019  11.572   3.939  10.382 -0.1978  0.1178 -0.1003
  127loPI   PO4 2020  11.450   3.568   9.891 -0.1038 -0.3000  0.0270
  127loPI   GL1 2021  11.457   3.747   9.576  0.2792 -0.1639 -0.1587
  127loPI   GL2 2022  11.701   3.450   9.492 -0.0674 -0.2982 -0.2498
  127loPI   C1A 2023  11.104   3.800   9.359 -0.0785 -0.0346 -0.3402
  127loPI   C2A 2024  10.857   4.059   9.140 -0.0401 -0.0582 -0.2429
  127loPI   C3A 2025  10.579   3.940   8.834  0.1225 -0.1626  0.1022
  127loPI   C4A 2026  10.587   3.972   8.416 -0.0624  0.0715  0.2179
  127loPI   C5A 2027  10.432   3.885   8.048 -0.2224 -0.2969 -0.0178
  127loPI   C6A 2028  10.198   3.571   7.853 -0.3088  0.3213 -0.1274
  127loPI   C1B 2029  11.632   3.524   8.971  0.1700 -0.0153  0.1638
  127loPI   C2B 2030  11.551   3.491   8.529  0.0941 -0.1213 -0.2249
  127loPI   C3B 2031  11.556   3.338   8.131 -0.2386  0.0454 -0.3771
  127loPI   C4B 2032  11.600   3.605   7.862  0.3485 -0.2092  0.3946
  128loPI    C1 2033  10.940  15.617  10.718  0.0809 -0.1778  0.2167
  128loPI    C2 2034  10.646  15.383  10.857  0.0017 -0.2185 -0.0158
  128loPI    C3 2035  10.943  15.496  11.100 -0.3105 -0.0103  0.2779
  128loPI   PO4 2036  10.721  15.808  10.421 -0.1367  0.0343 -0.0271
  128loPI   GL1 2037  10.756  15.936  10.023  0.0046  0.2890 -0.1040
  128loPI   GL2 2038  11.036  15.972  10.004  0.0973 -0.2496 -0.0359
  128loPI   C1A 2039  10.821  15.615   9.703 -0.1757 -0.3548 -0.0439
  128loPI   C2A 2040  10.967  15.606   9.298  0.0713 -0.0770 -0.1610
  128loPI   C3A 2041  11.099  15.625   8.849 -0.2466  0.1273 -0.0362
  128loPI   C4A 2042  11.151  15.592   8.471  0.1424 -0.4080 -0.0581
  128loPI   C5A 2043  11.457  15.694   8.146  0.0079 -0.1326 -0.1524
  128loPI   C6A 2044  11.730  15.636   7.846 -0.0440 -0.3911  0.0927
  128loPI   C1B 2045  11.310  15.686   9.839  0.0519  0.0601 -0.2933
  128loPI   C2B 2046  11.456  15.527   9.518 -0.1256  0.2433 -0.0575
  128loPI   C3B 2047  11.812  15.412   9.286 -0.3017 -0.0883  0.0391
  128loPI   C4B 2048  11.927  15.253   8.855 -0.3190  0.0810  0.3695
  129loPI    C1 2049   4.569  13.736  10.311 -0.1163  0.2357  0.0095
  129loPI    C2 2050   4.961  13.797  10.258 -0.0931 -0.0120 -0.1164
  129loPI    C3 2051   4.810  13.784  10.628  0.0605 -0.1694 -0.0578
  129loPI   PO4 2052   4.336  13.867  10.219  0.1040  0.1505 -0.2623
  129loPI   GL1 2053   4.057  14.082   9.950  0.0419 -0.1611 -0.0188
  129loPI   GL2 2054   4.018  13.778   9.747 -0.0350 -0.0310 -0.0948
  129loPI   C1A 2055   4.009  14.249   9.518 -0.0883  0.1869  0.1060
  129loPI   C2A 2056   3.998  14.080   9.146  0.1477 -0.0373 -0.0280
  129loPI   C3A 2057   3.886  14.023   8.754 -0.2403 -0.1607 -0.0122
  129loPI   C4A 2058   4.043  14.199   8.322  0.0176  0.0929 -0.0565
  129loPI   C5A 2059   3.924  14.215   7.896  0.2315 -0.0110  0.2096
  129loPI   C6A 2060   3.461  14.120   7.766 -0.3179 -0.1785  0.0484
  129loPI   C1B 2061   3.989  13.595   9.302  0.0493  0.1503 -0.2455
  129loPI   C2B 2062   4.042  13.611   8.852  0.0705  0.2289  0.0127
  129loPI   C3B 2063   3.920  13.723   8.323  0.2638  0.0979  0.2206
  129loPI   C4B 2064   3.851  13.639   7.812 -0.0739  0.0190 -0.2074
  130loPI    C1 2065  16.048   6.206  10.467  0.3074 -0.0286  0.1702
  130loPI    C2 2066  16.022   6.601  10.527 -0.0950 -0.0343  0.0652
  130loPI    C3 2067  15.953   6.348  10.829 -0.2289 -0.0298  0.0390
  130loPI   PO4 2068  16.002   6.178  10.263 -0.0350 -0.0172  0.0028
  130loPI   GL1 2069  15.806   6.504  10.011  0.0315 -0.3263  0.3757
  130loPI   GL2 2070  15.998   6.767   9.768 -0.0010 -0.1919  0.2750
  130loPI   C1A 2071  15.653   6.413   9.521 -0.3775 -0.2166 -0.1850
  130loPI   C2A 2072  15.779   6.384   9.129  0.2391 -0.1495 -0.2473
  130loPI   C3A 2073  15.667   6.399   8.607 -0.2369  0.0875 -0.1253
  130loPI   C4A 2074  15.560   6.461   8.194  0.1304 -0.0494  0.0732
  130loPI   C5A 2075  15.690   6.672   7.856  0.0046  0.0588  0.2126
  130loPI   C6A 2076  15.731   6.573   7.460  0.0951 -0.1982  0.1155
  130loPI   C1B 2077  15.862   6.846   9.305 -0.0232 -0.0500  0.0288
  130loPI   C2B 2078  15.884   6.905   8.878  0.1312 -0.0980 -0.0649
  130loPI   C3B 2079  15.812   6.832   8.455 -0.1513 -0.2489 -0.1052
  130loPI   C4B 2080  16.003   7.004   7.982 -0.2370  0.0109  0.1086
  131loPI    C1 2081  10.238   0.465  10.023  0.1229  0.5067  0.0208
  131loPI    C2 2082   9.936   0.417  10.281  0.1007  0.3474 -0.0340
  131loPI    C3 2083  10.314   0.389  10.409  0.0930 -0.3660 -0.1255
  131loPI   PO4 2084  10.233   0.285   9.817  0.1604 -0.1384  0.0615
  131loPI   GL1 2085   9.920   0.150   9.674 -0.0435  0.2300 -0.2362
  131loPI   GL2 2086  10.088  -0.119   9.508 -0.2972  0.0459 -0.1024
  131loPI   C1A 2087   9.685   0.031   9.274  0.1844  0.2228 -0.0460
  131loPI   C2A 2088   9.499  -0.346   9.207  0.0339 -0.0203 -0.1186
  131loPI   C3A 2089   9.318  -0.640   8.863  0.0224 -0.0982 -0.2514
  131loPI   C4A 2090   9.284  -0.681   8.484 -0.4260  0.0631 -0.2792
  131loPI   C5A 2091   9.284  -0.787   8.057  0.3251 -0.2214  0.2060
  131loPI   C6A 2092   9.239  -1.225   7.981  0.0332  0.2369  0.1736
  131loPI   C1B 2093   9.952  -0.416   9.339 -0.2969 -0.4215 -0.2657
  131loPI   C2B 2094   9.907  -0.659   8.957 -0.1193 -0.0545 -0.0960
  131loPI   C3B 2095   9.978  -0.703   8.613  0.2443 -0.1131  0.0089
  131loPI   C4B 2096   9.743  -0.754   8.222  0.1082  0.0650 -0.0167
  132loPI    C1 2097  17.864  13.293  10.375  0.0370  0.0608  0.0027
  132loPI    C2 2098  17.549  13.258  10.132  0.1318 -0.2376 -0.0806
  132loPI    C3 2099  17.508  13.188  10.523  0.0402 -0.0264 -0.0510
  132loPI   PO4 2100  18.034  13.159  10.244 -0.0439  0.3178  0.1410
  132loPI   GL1 2101  18.329  13.386   9.985  0.0002 -0.2677 -0.0457
  132loPI   GL2 2102  18.479  13.171  10.012 -0.1856  0.0732 -0.3225
  132loPI   C1A 2103  18.292  13.487   9.585  0.0043  0.0814 -0.1185
  132loPI   C2A 2104  18.311  13.617   9.137  0.1065 -0.1899  0.1594
  132loPI   C3A 2105  18.527  13.738   8.790 -0.3860  0.0785  0.0703
  132loPI   C4A 2106  18.446  13.939   8.425 -0.2876 -0.4526  0.1036
  132loPI   C5A 2107  18.559  14.137   8.031 -0.3053 -0.0954 -0.1625
  132loPI   C6A 2108  18.950  14.048   7.805  0.0972  0.3040 -0.1960
  132loPI   C1B 2109  18.506  13.066   9.559 -0.0458 -0.0607 -0.0208
  132loPI   C2B 2110  18.499  13.154   9.140  0.1569 -0.2938 -0.1689
  132loPI   C3B 2111  18.530  13.222   8.787 -0.2105  0.5122  0.0548
  132loPI   C4B 2112  18.459  13.445   8.335 -0.1121  0.0371  0.0099
  133loPI    C1 2113   4.514   0.572  10.589  0.0782 -0.0622  0.1183
  133loPI    C2 2114   4.752   0.355  10.827 -0.1085 -0.0642  0.3066
  133loPI    C3 2115   4.734   0.753  10.870  0.1085 -0.0264  0.0714
  133loPI   PO4 2116   4.566   0.533  10.348  0.0745 -0.0365 -0.1447
  133loPI   GL1 2117   4.673   0.601   9.969 -0.3998 -0.2599 -0.0089
  133loPI   GL2 2118   4.566   0.274   9.934 -0.0204  0.2031 -0.1610
  133loPI   C1A 2119   4.761   0.474   9.549  0.0813 -0.1116  0.1745
  133loPI   C2A 2120   4.515   0.710   9.185 -0.1104  0.1202 -0.0550
  133loPI   C3A 2121   4.330   0.875   8.864  0.1177  0.0280  0.0733
  133loPI   C4A 2122   4.297   0.970   8.454  0.1056  0.1019  0.0367
  133loPI   C5A 2123   4.337   1.350   8.121  0.2482 -0.2980  0.0516
  133loPI   C6A 2124   4.319   1.790   7.867  0.2982 -0.0515  0.0180
  133loPI   C1B 2125   4.524   0.088   9.434  0.0393 -0.1838 -0.0180
  133loPI   C2B 2126   4.486   0.132   9.050 -0.2717  0.1897  0.1193
  133loPI   C3B 2127   4.529  -0.068   8.775 -0.0532 -0.4998  0.0948
  133loPI   C4B 2128   4.506  -0.072   8.382  0.1562  0.1165  0.1281
  134loPI    C1 2129   8.786  10.536  10.573  0.0771  0.1856  0.0364
  134loPI    C2 2130   9.096  10.505  10.823  0.0903 -0.0014 -0.0014
  134loPI    C3 2131   8.793  10.246  10.848  0.1907 -0.1547 -0.3151
  134loPI   PO4 2132   8.961  10.483  10.290 -0.1062 -0.1976 -0.3237
  134loPI   GL1 2133   8.880  10.264   9.860 -0.4012 -0.0403 -0.1874
  134loPI   GL2 2134   8.561  10.172   9.948 -0.0961 -0.0221 -0.0246
  134loPI   C1A 2135   8.981   9.948   9.672 -0.3656 -0.2768 -0.2943
  134loPI   C2A 2136   8.934   9.699   9.300 -0.1200 -0.0970 -0.0648
  134loPI   C3A 2137   8.735   9.450   8.959 -0.1684  0.0436  0.1186
  134loPI   C4A 2138   8.952   9.434   8.574 -0.0967 -0.4817 -0.0404
  134loPI   C5A 2139   8.950   9.526   8.119  0.1032 -0.0969  0.0120
  134loPI   C6A 2140   9.114   9.563   7.790 -0.3612  0.0103 -0.0014
  134loPI   C1B 2141   8.539  10.213   9.425 -0.0062  0.2354 -0.2125
  134loPI   C2B 2142   8.541  10.061   8.969 -0.0970 -0.1376 -0.1257
  134loPI   C3B 2143   8.575   9.859   8.568 -0.1668  0.1350  0.2429
  134loPI   C4B 2144   8.488   9.464   8.295 -0.0058  0.5671  0.0339
  135loPI    C1 2145  15.614   5.934  10.445 -0.0005 -0.1656 -0.0848
  135loPI    C2 2146  15.575   5.695  10.763 -0.0109 -0.0416  0.0079
  135loPI    C3 2147  15.319   5.998  10.707  0.1347  0.0832  0.0105
  135loPI   PO4 2148  15.604   5.718  10.220 -0.1757  0.1819 -0.3067
  135loPI   GL1 2149  15.704   5.551   9.834 -0.3104 -0.0458  0.3567
  135loPI   GL2 2150  15.804   5.261   9.711  0.1180 -0.3739  0.0173
  135loPI   C1A 2151  15.778   5.599   9.346  0.1855 -0.2097  0.0994
  135loPI   C2A 2152  15.817   5.463   8.862 -0.0702 -0.1203 -0.3472
  135loPI   C3A 2153  15.853   5.483   8.454  0.2175 -0.1516 -0.2445
  135loPI   C4A 2154  15.750   5.572   7.987  0.1032 -0.1462 -0.2118
  135loPI   C5A 2155  15.533   5.723   7.679  0.1445  0.0173  0.2001
  135loPI   C6A 2156  15.541   5.949   7.398  0.0338 -0.1006  0.2532
  135loPI   C1B 2157  15.729   5.098   9.273 -0.2116 -0.1067 -0.2379
  135loPI   C2B 2158  15.643   4.949   8.865 -0.1025 -0.0696  0.0561
  135loPI   C3B 2159  15.611   5.007   8.444  0.0046 -0.1929 -0.0141
  135loPI   C4B 2160  15.700   4.883   7.939 -0.0347 -0.1506 -0.2694
  136loPI    C1 2161   6.124   3.757  10.556 -0.0555  0.1081 -0.0176
  136loPI    C2 2162   5.814   3.963  10.702  0.2074  0.2631  0.3367
  136loPI    C3 2163   5.911   3.609  10.860 -0.0314  0.0203 -0.0431
  136loPI   PO4 2164   6.147   3.888  10.307  0.0428 -0.1233 -0.2640
  136loPI   GL1 2165   6.256   3.810   9.878  0.0544 -0.0333 -0.0980
  136loPI   GL2 2166   5.964   3.946   9.839  0.3687 -0.1279  0.1163
  136loPI   C1A 2167   6.391   3.822   9.527  0.0099  0.2998  0.0009
  136loPI   C2A 2168   6.413   3.828   9.135  0.1206 -0.1242 -0.0285
  136loPI   C3A 2169   6.354   3.861   8.711 -0.0229 -0.2370 -0.0201
  136loPI   C4A 2170   6.370   3.946   8.294 -0.0419 -0.0630  0.0792
  136loPI   C5A 2171   6.546   3.983   7.791 -0.3559 -0.0540  0.0639
  136loPI   C6A 2172   6.491   3.942   7.307 -0.2493 -0.1157 -0.1148
  136loPI   C1B 2173   5.905   3.852   9.344  0.1829  0.1229  0.1901
  136loPI   C2B 2174   5.858   3.829   8.959 -0.1128  0.1409  0.0214
  136loPI   C3B 2175   5.710   3.834   8.560 -0.1465 -0.1340 -0.2797
  136loPI   C4B 2176   5.392   3.661   8.278 -0.0654 -0.0653  0.1706
  137loPI    C1 2177  13.495   2.133  10.560 -0.0757 -0.4141 -0.0369
  137loPI    C2 2178  13.238   2.315  10.313  0.1335  0.0892  0.1046
  137loPI    C3 2179  13.111   2.173  10.665 -0.0464 -0.1109 -0.0383
  137loPI   PO4 2180  13.759   2.227  10.391 -0.1469 -0.2103  0.3514
  137loPI   GL1 2181  13.721   2.481  10.025  0.2921 -0.1445 -0.0856
  137loPI   GL2 2182  13.444   2.441   9.825  0.0611 -0.4464  0.1289
  137loPI   C1A 2183  14.065   2.591   9.807 -0.1841 -0.2084  0.2270
  137loPI   C2A 2184  14.262   2.523   9.397 -0.1026 -0.0620 -0.0661
  137loPI   C3A 2185  14.233   2.433   9.038  0.0582  0.1833  0.0185
  137loPI   C4A 2186  14.311   2.481   8.649 -0.0894 -0.0407 -0.0512
  137loPI   C5A 2187  14.450   2.683   8.269  0.0253 -0.2021  0.1676
  137loPI   C6A 2188  14.602   2.697   7.801  0.0066  0.2697 -0.2653
  137loPI   C1B 2189  13.579   2.574   9.506 -0.2351  0.2542  0.1230
  137loPI   C2B 2190  13.746   2.449   9.088 -0.5018 -0.0802 -0.0797
  137loPI   C3B 2191  13.711   2.348   8.797  0.3998  0.0394  0.2001
  137loPI   C4B 2192  13.897   2.357   8.398  0.2026  0.0657 -0.0207
  138loPI    C1 2193  16.849  15.172  10.567  0.0162  0.0460 -0.0654
  138loPI    C2 2194  16.452  15.169  10.618  0.0493  0.0438  0.2047
  138loPI    C3 2195  16.683  15.388  10.860  0.1841  0.3434 -0.1854
  138loPI   PO4 2196  16.907  15.193  10.284 -0.2033  0.0219  0.0028
  138loPI   GL1 2197  16.808  15.023   9.905  0.0474  0.3386  0.0919
  138loPI   GL2 2198  16.844  14.708   9.740  0.1348 -0.0133  0.2738
  138loPI   C1A 2199  16.714  15.115   9.421  0.0097  0.0840 -0.0095
  138loPI   C2A 2200  16.647  14.973   8.988 -0.1693 -0.0812 -0.5683
  138loPI   C3A 2201  16.746  14.811   8.586 -0.4333 -0.0658  0.0931
  138loPI   C4A 2202  16.367  14.808   8.391  0.2172  0.0323  0.1679
  138loPI   C5A 2203  16.353  14.674   7.990 -0.2412  0.0701 -0.0938
  138loPI   C6A 2204  16.619  14.338   7.744 -0.1477 -0.1751  0.0351
  138loPI   C1B 2205  17.018  14.766   9.331 -0.0041  0.1219 -0.1506
  138loPI   C2B 2206  17.052  14.523   8.926  0.0390  0.0707 -0.2277
  138loPI   C3B 2207  17.160  14.289   8.502 -0.0507 -0.0441  0.0828
  138loPI   C4B 2208  16.896  13.990   8.211  0.1773 -0.3077  0.1335
  139loPI    C1 2209   3.491  17.514  10.600 -0.0571 -0.0876 -0.2164
  139loPI    C2 2210   3.427  17.214  10.343 -0.1953 -0.0452 -0.2324
  139loPI    C3 2211   3.236  17.220  10.694  0.3007 -0.3193  0.0525
  139loPI   PO4 2212   3.436  17.740  10.443 -0.0732 -0.0756  0.0475
  139loPI   GL1 2213   3.312  17.728  10.017 -0.4426 -0.0101  0.1087
  139loPI   GL2 2214   3.306  17.465   9.942 -0.0991  0.0924  0.1428
  139loPI   C1A 2215   3.410  17.952   9.715 -0.2974  0.2199 -0.4002
  139loPI   C2A 2216   3.512  18.037   9.293 -0.1714  0.0057 -0.2159
  139loPI   C3A 2217   3.469  18.272   8.903  0.1519 -0.0982  0.0735
  139loPI   C4A 2218   3.286  18.275   8.491  0.0829  0.3505 -0.2296
  139loPI   C5A 2219   3.503  18.391   8.235  0.0518 -0.0507  0.0907
  139loPI   C6A 2220   3.598  18.114   7.872 -0.1557  0.0964  0.1516
  139loPI   C1B 2221   3.459  17.489   9.513 -0.0764 -0.0788  0.1382
  139loPI   C2B 2222   3.486  17.569   9.105 -0.0132  0.1198  0.0461
  139loPI   C3B 2223   3.393  17.609   8.648 -0.0321 -0.0286  0.0645
  139loPI   C4B 2224   3.532  17.482   8.207 -0.1034  0.1065  0.0081
  140loPI    C1 2225  11.151  10.826  10.930 -0.0843 -0.0001 -0.1345
  140loPI    C2 2226  11.181  11.182  10.752  0.0679 -0.0486 -0.2077
  140loPI    C3 2227  11.217  11.153  11.150  0.3056 -0.0132 -0.2249
  140loPI   PO4 2228  10.924  10.702  10.772 -0.1678 -0.1650 -0.0823
  140loPI   GL1 2229  10.850  10.973  10.418 -0.2978 -0.1173  0.0890
  140loPI   GL2 2230  10.848  10.586  10.261 -0.3302 -0.1059 -0.0453
  140loPI   C1A 2231  11.056  11.141   9.990  0.4002  0.1242  0.0313
  140loPI   C2A 2232  10.998  11.155   9.476  0.1075  0.0860 -0.1894
  140loPI   C3A 2233  11.003  10.901   9.078 -0.0580  0.2240  0.0360
  140loPI   C4A 2234  10.882  10.794   8.668  0.0505 -0.1994  0.1347
  140loPI   C5A 2235  10.683  10.735   8.307  0.0271  0.0126  0.2401
  140loPI   C6A 2236  10.248  10.515   8.229  0.1490  0.3310 -0.1003
  140loPI   C1B 2237  10.631  10.707   9.934  0.1387 -0.1765  0.1093
  140loPI   C2B 2238  10.627  10.746   9.485  0.4523  0.1534 -0.0498
  140loPI   C3B 2239  10.576  11.100   9.203 -0.0102 -0.0132 -0.1459
  140loPI   C4B 2240  10.694  11.377   8.962  0.1274 -0.1175 -0.1579
  141loPI    C1 2241   4.141   1.105  10.500 -0.0427  0.0183 -0.1447
  141loPI    C2 2242   4.231   1.432  10.288  0.0034  0.0235 -0.1173
  141loPI    C3 2243   4.417   1.361  10.635  0.0950 -0.1033 -0.1915
  141loPI   PO4 2244   4.167   0.937  10.395  0.0351 -0.0218  0.2481
  141loPI   GL1 2245   4.275   0.944  10.023 -0.0712 -0.0347 -0.0900
  141loPI   GL2 2246   4.561   1.095   9.950 -0.0322  0.0758 -0.0461
  141loPI   C1A 2247   4.137   0.791   9.607 -0.4194  0.1535  0.0542
  141loPI   C2A 2248   3.919   0.819   9.187  0.0855 -0.0115 -0.0678
  141loPI   C3A 2249   3.828   0.776   8.761  0.1624  0.1671  0.0627
  141loPI   C4A 2250   3.677   0.914   8.280 -0.0869 -0.0794 -0.1919
  141loPI   C5A 2251   3.613   0.703   7.852 -0.1833 -0.3450  0.0134
  141loPI   C6A 2252   3.369   0.895   7.466 -0.0524  0.2936 -0.0319
  141loPI   C1B 2253   4.596   1.274   9.538  0.0155  0.0211 -0.0039
  141loPI   C2B 2254   4.529   1.423   9.100 -0.2688 -0.1390  0.0753
  141loPI   C3B 2255   4.524   1.376   8.646 -0.0385  0.0831 -0.0314
  141loPI   C4B 2256   4.509   1.722   8.375 -0.0449  0.0172 -0.0146
  142loPI    C1 2257  16.436  11.521  10.294  0.2198 -0.1837  0.1610
  142loPI    C2 2258  16.472  11.509  10.692 -0.0896  0.5173  0.2253
  142loPI    C3 2259  16.111  11.481  10.523  0.0665 -0.0856 -0.0363
  142loPI   PO4 2260  16.642  11.617  10.223  0.1216 -0.0113  0.1303
  142loPI   GL1 2261  16.785  11.552   9.866 -0.0616 -0.0214 -0.0826
  142loPI   GL2 2262  16.994  11.367   9.881 -0.2378  0.0974 -0.3234
  142loPI   C1A 2263  16.683  11.302   9.535  0.1141 -0.3707 -0.2300
  142loPI   C2A 2264  16.902  11.110   9.224  0.3387  0.2178  0.0857
  142loPI   C3A 2265  16.922  10.909   8.838 -0.2619  0.0701  0.0214
  142loPI   C4A 2266  16.907  11.030   8.318  0.0606  0.4414 -0.0467
  142loPI   C5A 2267  16.753  10.937   7.927 -0.0868 -0.1485  0.0766
  142loPI   C6A 2268  17.089  10.740   7.728 -0.0314 -0.0473  0.0421
  142loPI   C1B 2269  17.175  11.380   9.521 -0.1936  0.1783 -0.0474
  142loPI   C2B 2270  17.192  11.562   9.104 -0.1010  0.3871  0.2288
  142loPI   C3B 2271  17.218  11.757   8.689 -0.2077 -0.1235  0.0186
  142loPI   C4B 2272  17.014  11.736   8.393 -0.1016 -0.1336 -0.4279
  143loPI    C1 2273   6.267   6.694  10.395 -0.1269 -0.0412 -0.0083
  143loPI    C2 2274   6.318   6.301  10.336 -0.2299 -0.0192 -0.2581
  143loPI    C3 2275   6.626   6.551  10.289 -0.1120 -0.0895  0.1061
  143loPI   PO4 2276   6.070   6.765  10.270 -0.1893  0.1347  0.1290
  143loPI   GL1 2277   5.852   6.676   9.965 -0.2281  0.1848 -0.1273
  143loPI   GL2 2278   5.563   6.692   9.846  0.2276  0.0003  0.0620
  143loPI   C1A 2279   5.932   6.561   9.541 -0.0648 -0.1315  0.1840
  143loPI   C2A 2280   5.953   6.656   9.062 -0.0950  0.0077 -0.1152
  143loPI   C3A 2281   5.949   6.668   8.631  0.0375 -0.1031  0.2433
  143loPI   C4A 2282   6.034   6.719   8.180  0.2515  0.3431  0.2537
  143loPI   C5A 2283   5.991   6.862   7.786 -0.2785 -0.0234  0.0660
  143loPI   C6A 2284   6.146   6.758   7.369 -0.1519  0.1464 -0.1016
  143loPI   C1B 2285   5.389   6.576   9.359  0.1097 -0.0217 -0.3517
  143loPI   C2B 2286   5.530   6.618   8.865  0.0979 -0.0798 -0.3421
  143loPI   C3B 2287   5.395   6.590   8.495  0.1751  0.0172  0.1872
  143loPI   C4B 2288   5.363   6.490   8.083  0.0805  0.0830  0.0170
  144loPI    C1 2289   8.837   6.674  10.944 -0.0296 -0.1865 -0.1915
  144loPI    C2 2290   8.980   6.732  11.313  0.2084  0.0078 -0.3114
  144loPI    C3 2291   8.604   6.837  11.225  0.1722  0.0223 -0.1426
  144loPI   PO4 2292   9.052   6.693  10.755  0.1185 -0.2058  0.2044
  144loPI   GL1 2293   9.084   6.670  10.329 -0.0079 -0.1943  0.0580
  144loPI   GL2 2294   8.894   6.468  10.215  0.0512  0.2256 -0.0963
  144loPI   C1A 2295   9.458   6.597  10.199  0.4006 -0.0416  0.0570
  144loPI   C2A 2296   9.765   6.816  10.052 -0.1074  0.1270 -0.1871
  144loPI   C3A 2297  10.105   6.922   9.864 -0.3365  0.1534 -0.0245
  144loPI   C4A 2298  10.211   7.053   9.448 -0.3705 -0.0344  0.2607
  144loPI   C5A 2299  10.214   7.041   9.048 -0.2347  0.2906  0.2047
  144loPI   C6A 2300  10.271   7.129   8.688  0.0257  0.1090 -0.1841
  144loPI   C1B 2301   8.920   6.421   9.745  0.1253  0.0651  0.0217
  144loPI   C2B 2302   9.378   6.669   9.642  0.1106  0.0515 -0.0837
  144loPI   C3B 2303   9.847   6.626   9.519 -0.1326  0.1442  0.3588
  144loPI   C4B 2304  10.174   6.560   9.186 -0.0069 -0.0054 -0.0454
  145loPI    C1 2305  18.312  12.527  10.409 -0.2420  0.2631 -0.1762
  145loPI    C2 2306  17.938  12.388  10.443 -0.2696  0.3756 -0.0079
  145loPI    C3 2307  18.248  12.136  10.466 -0.3191  0.3398  0.3049
  145loPI   PO4 2308  18.242  12.696  10.227 -0.0741 -0.2066 -0.0549
  145loPI   GL1 2309  18.352  12.695   9.832  0.0005 -0.1798 -0.1721
  145loPI   GL2 2310  18.022  12.851   9.810 -0.0750 -0.0238  0.0931
  145loPI   C1A 2311  18.421  12.539   9.482 -0.1128 -0.0788  0.2049
  145loPI   C2A 2312  18.475  12.620   9.092  0.0156 -0.2375 -0.0190
  145loPI   C3A 2313  18.510  12.691   8.725 -0.1633  0.2079 -0.0811
  145loPI   C4A 2314  18.314  12.956   8.398  0.0882  0.0302 -0.1219
  145loPI   C5A 2315  17.996  13.164   8.146  0.1364  0.0937 -0.2166
  145loPI   C6A 2316  17.791  13.069   7.873  0.0192 -0.1497  0.0981
  145loPI   C1B 2317  18.099  12.905   9.302  0.0096 -0.2109 -0.0447
  145loPI   C2B 2318  18.066  13.038   8.876 -0.1170  0.1053  0.0594
  145loPI   C3B 2319  17.968  13.405   8.637 -0.1586  0.1234 -0.2477
  145loPI   C4B 2320  17.973  13.690   8.318 -0.0351 -0.0514 -0.1121
  146loPI    C1 2321   1.991   5.776  10.805  0.0968 -0.1869  0.1993
  146loPI    C2 2322   1.716   6.002  10.987 -0.0399 -0.2161  0.0315
  146loPI    C3 2323   1.915   5.724  11.194  0.0618 -0.0081  0.2173
  146loPI   PO4 2324   1.929   5.705  10.555  0.2641 -0.1696 -0.2677
  146loPI   GL1 2325   1.823   5.534  10.077 -0.3494  0.0393  0.0806
  146loPI   GL2 2326   1.751   5.745   9.980  0.3481 -0.0882  0.0236
  146loPI   C1A 2327   1.834   5.434   9.638 -0.2445  0.1698 -0.0108
  146loPI   C2A 2328   1.897   5.395   9.187 -0.0073 -0.1389  0.2651
  146loPI   C3A 2329   1.847   5.581   8.746 -0.1366 -0.1450  0.1233
  146loPI   C4A 2330   1.801   5.558   8.363  0.2096 -0.0368 -0.1951
  146loPI   C5A 2331   1.824   5.497   7.907 -0.0395 -0.2430  0.1934
  146loPI   C6A 2332   1.776   5.279   7.578 -0.3309  0.1353  0.0765
  146loPI   C1B 2333   1.637   5.884   9.615 -0.2090 -0.0612  0.0359
  146loPI   C2B 2334   1.681   5.857   9.151  0.2376  0.1372  0.1141
  146loPI   C3B 2335   1.596   5.980   8.722  0.1504 -0.0089 -0.1374
  146loPI   C4B 2336   1.455   6.022   8.321  0.0305 -0.0443  0.0792
  147loPI    C1 2337  14.179   4.069  10.568  0.0260 -0.1242  0.0439
  147loPI    C2 2338  14.462   3.796  10.643 -0.2068 -0.3478  0.1254
  147loPI    C3 2339  14.201   3.897  10.928 -0.1393 -0.0563  0.0873
  147loPI   PO4 2340  14.328   4.147  10.346 -0.1260 -0.2870  0.2004
  147loPI   GL1 2341  14.566   4.180  10.010 -0.3250 -0.0432 -0.3034
  147loPI   GL2 2342  14.796   4.066   9.694  0.1686  0.0773 -0.2095
  147loPI   C1A 2343  14.501   4.333   9.460  0.1011  0.0740  0.5062
  147loPI   C2A 2344  14.454   4.391   9.042  0.2624  0.1447 -0.0274
  147loPI   C3A 2345  14.442   4.387   8.605  0.2401 -0.1117  0.0182
  147loPI   C4A 2346  14.475   4.266   8.149 -0.1048 -0.0755  0.0100
  147loPI   C5A 2347  14.428   4.231   7.725 -0.1079 -0.1320 -0.1381
  147loPI   C6A 2348  14.439   4.019   7.369 -0.1641 -0.1064  0.2985
  147loPI   C1B 2349  14.789   3.964   9.253  0.1506  0.2232  0.0242
  147loPI   C2B 2350  14.789   3.971   8.865 -0.0567 -0.0183  0.1088
  147loPI   C3B 2351  14.756   3.950   8.493 -0.3598  0.2615  0.3776
  147loPI   C4B 2352  14.780   3.878   8.000  0.0082  0.1184 -0.1572
  148loPI    C1 2353   9.097   0.173   9.843  0.1578  0.2569  0.1345
  148loPI    C2 2354   8.794   0.326   9.633 -0.1395 -0.1009  0.2912
  148loPI    C3 2355   8.792   0.349  10.032  0.1145  0.0218  0.2875
  148loPI   PO4 2356   9.314   0.265   9.724 -0.0214  0.0264 -0.1181
  148loPI   GL1 2357   9.254   0.354   9.278  0.0120 -0.0349 -0.0892
  148loPI   GL2 2358   9.541   0.497   9.342 -0.2153 -0.1521  0.0804
  148loPI   C1A 2359   9.343   0.108   8.956  0.3440  0.0298  0.3036
  148loPI   C2A 2360   9.197   0.136   8.539  0.0718 -0.2575 -0.0320
  148loPI   C3A 2361   9.120   0.404   8.235  0.1676  0.1208 -0.4569
  148loPI   C4A 2362   9.363   0.486   7.762 -0.0914  0.3145 -0.1201
  148loPI   C5A 2363   9.634   0.129   7.641 -0.1273  0.3616  0.1888
  148loPI   C6A 2364   9.650  -0.023   7.300 -0.2491 -0.0837 -0.1505
  148loPI   C1B 2365   9.436   0.787   9.152  0.0350 -0.0892 -0.0255
  148loPI   C2B 2366   9.023   0.996   8.953  0.0143 -0.2549  0.1650
  148loPI   C3B 2367   8.608   1.090   8.712 -0.2611  0.0254 -0.0342
  148loPI   C4B 2368   8.260   1.112   8.553  0.0635  0.1952 -0.0885
  149loPI    C1 2369  16.509  13.737  10.747  0.0011 -0.0457 -0.0413
  149loPI    C2 2370  16.172  13.534  10.818  0.0217 -0.0447  0.0610
  149loPI    C3 2371  16.329  13.768  11.102 -0.0300  0.1555 -0.0732
  149loPI   PO4 2372  16.465  13.793  10.419  0.0904  0.0893  0.1299
  149loPI   GL1 2373  16.693  13.976  10.032  0.0316 -0.0227 -0.0317
  149loPI   GL2 2374  16.813  13.837   9.851 -0.0998  0.0584 -0.1852
  149loPI   C1A 2375  16.422  14.246   9.699  0.0171 -0.1348 -0.0045
  149loPI   C2A 2376  16.007  14.492   9.505 -0.1230  0.0583  0.1180
  149loPI   C3A 2377  15.654  14.434   9.237 -0.2418 -0.0001  0.2604
  149loPI   C4A 2378  15.781  14.606   8.905  0.2514  0.0915 -0.0008
  149loPI   C5A 2379  15.893  14.569   8.544  0.3274  0.2251  0.1756
  149loPI   C6A 2380  15.861  14.738   8.160  0.3090  0.2954 -0.1707
  149loPI   C1B 2381  17.015  13.854   9.487  0.2614 -0.0048  0.1201
  149loPI   C2B 2382  17.525  13.783   9.486 -0.0563  0.1766 -0.0630
  149loPI   C3B 2383  17.936  13.814   9.555 -0.0032 -0.0255  0.2522
  149loPI   C4B 2384  18.154  14.079   9.312  0.0042 -0.0297  0.4755
  150loPI    C1 2385  16.964  14.696  10.341 -0.0516  0.0383 -0.0203
  150loPI    C2 2386  16.576  14.785  10.310 -0.0856 -0.1138 -0.0344
  150loPI    C3 2387  16.716  14.616  10.644 -0.0529 -0.1653 -0.0740
  150loPI   PO4 2388  17.058  14.428  10.169 -0.1207  0.1266 -0.2144
  150loPI   GL1 2389  17.100  14.255   9.786 -0.0398  0.1523 -0.0535
  150loPI   GL2 2390  17.368  14.140   9.921  0.5850 -0.2311  0.2572
  150loPI   C1A 2391  17.187  14.290   9.375  0.1179 -0.0757  0.0518
  150loPI   C2A 2392  17.103  14.018   9.005 -0.1507 -0.3186  0.2047
  150loPI   C3A 2393  17.012  13.700   8.703  0.3827  0.0534  0.2126
  150loPI   C4A 2394  17.043  13.242   8.451  0.1019  0.2505  0.3036
  150loPI   C5A 2395  17.109  12.954   8.015 -0.1888 -0.3422 -0.0625
  150loPI   C6A 2396  17.108  12.543   7.870 -0.1691  0.0713 -0.0078
  150loPI   C1B 2397  17.646  14.264   9.572  0.1129 -0.1905  0.2024
  150loPI   C2B 2398  17.632  14.209   9.123  0.0580 -0.0283  0.0134
  150loPI   C3B 2399  17.568  14.119   8.757  0.0046  0.1025  0.1089
  150loPI   C4B 2400  17.562  13.999   8.247  0.2608  0.2319  0.0633
  151loPI    C1 2401   2.210   7.247  10.209  0.0339  0.0057 -0.0581
  151loPI    C2 2402   1.902   7.291  10.460  0.0649 -0.3967  0.0577
  151loPI    C3 2403   2.266   7.415  10.568 -0.0361  0.0083 -0.0483
  151loPI   PO4 2404   2.125   7.341   9.907 -0.2607  0.0360 -0.0916
  151loPI   GL1 2405   2.222   7.040   9.606  0.1309 -0.0634 -0.2633
  151loPI   GL2 2406   2.428   6.709   9.453 -0.2180  0.0310  0.0178
  151loPI   C1A 2407   2.081   7.107   9.251 -0.2418 -0.0157  0.1756
  151loPI   C2A 2408   2.025   7.178   8.814 -0.1174  0.0564 -0.0501
  151loPI   C3A 2409   1.987   7.239   8.405  0.0124 -0.0394  0.0034
  151loPI   C4A 2410   1.878   7.139   8.007  0.1752  0.1516 -0.2053
  151loPI   C5A 2411   1.792   7.108   7.547  0.0017 -0.2007 -0.2337
  151loPI   C6A 2412   2.138   7.024   7.373 -0.1783 -0.3476 -0.0475
  151loPI   C1B 2413   2.667   7.012   9.178 -0.1006 -0.1484  0.0865
  151loPI   C2B 2414   2.832   7.322   9.046  0.3946 -0.3052 -0.1189
  151loPI   C3B 2415   2.811   7.550   8.729  0.0915 -0.3797  0.1770
  151loPI   C4B 2416   3.094   7.779   8.684 -0.0964 -0.2642  0.2424
  152loPI    C1 2417  16.332  13.052  10.669  0.0228  0.1253  0.0339
  152loPI    C2 2418  16.616  13.288  10.515  0.0289  0.0961  0.0004
  152loPI    C3 2419  16.674  13.111  10.869  0.1819 -0.1554 -0.1476
  152loPI   PO4 2420  16.287  12.890  10.416  0.1219 -0.3045  0.0112
  152loPI   GL1 2421  16.427  12.958  10.028 -0.1041 -0.1017  0.0169
  152loPI   GL2 2422  16.271  13.284   9.893  0.0729  0.0023  0.2039
  152loPI   C1A 2423  16.576  12.900   9.660  0.4363 -0.1069  0.4001
  152loPI   C2A 2424  16.576  12.809   9.238 -0.1967  0.1479  0.1573
  152loPI   C3A 2425  16.569  13.002   8.683  0.3367 -0.0699  0.4120
  152loPI   C4A 2426  16.514  13.250   8.356  0.0509  0.1068  0.2568
  152loPI   C5A 2427  16.196  13.485   8.057  0.1325 -0.0804  0.0406
  152loPI   C6A 2428  16.380  13.880   7.910 -0.2532  0.3333  0.0760
  152loPI   C1B 2429  16.201  13.200   9.403 -0.3634 -0.4257  0.0320
  152loPI   C2B 2430  16.141  13.140   8.941 -0.1723  0.0463  0.1838
  152loPI   C3B 2431  16.045  13.202   8.515  0.1927 -0.2545  0.0059
  152loPI   C4B 2432  15.688  13.366   8.236  0.1462  0.0898 -0.1728
  153loPI    C1 2433   3.764  13.921  10.417 -0.0222  0.0683 -0.0485
  153loPI    C2 2434   3.796  13.554  10.571  0.3127  0.1987  0.2051
  153loPI    C3 2435   3.907  13.622  10.193 -0.0574 -0.0237  0.0512
  153loPI   PO4 2436   3.535  14.086  10.359  0.0100 -0.0163 -0.1926
  153loPI   GL1 2437   3.272  14.198   9.989 -0.3715  0.0547  0.0490
  153loPI   GL2 2438   3.566  13.992   9.916 -0.0517  0.0689  0.0948
  153loPI   C1A 2439   3.148  14.164   9.608  0.2970  0.0166 -0.0181
  153loPI   C2A 2440   3.104  14.069   9.164  0.5247 -0.0051 -0.0062
  153loPI   C3A 2441   3.085  13.978   8.810 -0.0217 -0.0399  0.0727
  153loPI   C4A 2442   3.032  14.223   8.435  0.1404  0.1199 -0.0378
  153loPI   C5A 2443   3.032  14.111   8.049  0.1605  0.0450  0.0501
  153loPI   C6A 2444   2.940  13.814   7.801  0.1379 -0.2100 -0.2243
  153loPI   C1B 2445   3.536  13.916   9.523 -0.0918 -0.0961  0.0774
  153loPI   C2B 2446   3.528  13.819   9.079 -0.3756 -0.1285 -0.2571
  153loPI   C3B 2447   3.491  13.714   8.758  0.2290 -0.1050 -0.1630
  153loPI   C4B 2448   3.403  13.953   8.373  0.1376 -0.4967 -0.0003
  154loPI    C1 2449   8.011   9.263  10.163 -0.1015  0.0996  0.0752
  154loPI    C2 2450   8.121   9.080   9.824 -0.0448  0.3491 -0.0438
  154loPI    C3 2451   7.937   8.873  10.113 -0.2590  0.1735 -0.3017
  154loPI   PO4 2452   8.157   9.425  10.190 -0.0149 -0.1300  0.1958
  154loPI   GL1 2453   8.557   9.495   9.999 -0.0469 -0.0370  0.0523
  154loPI   GL2 2454   8.626   9.263   9.757 -0.3284  0.4607 -0.0150
  154loPI   C1A 2455   8.522   9.775   9.667 -0.3019 -0.1951 -0.0900
  154loPI   C2A 2456   8.333   9.714   9.293  0.3834 -0.0244 -0.2021
  154loPI   C3A 2457   8.247   9.562   8.857 -0.1010 -0.0248  0.0239
  154loPI   C4A 2458   8.033   9.370   8.503 -0.2130 -0.0053  0.0407
  154loPI   C5A 2459   8.028   9.570   8.098  0.0059  0.0770 -0.1443
  154loPI   C6A 2460   7.676   9.663   7.832 -0.0117 -0.1599 -0.1598
  154loPI   C1B 2461   8.488   9.198   9.297  0.1503  0.1813 -0.3765
  154loPI   C2B 2462   8.067   9.021   8.949  0.0515  0.0600 -0.2734
  154loPI   C3B 2463   7.756   8.991   8.676 -0.1427 -0.1283 -0.1467
  154loPI   C4B 2464   7.403   9.167   8.599 -0.2058 -0.1955  0.2839
  155loPI    C1 2465  15.095   4.141  10.845 -0.0443  0.0013 -0.0575
  155loPI    C2 2466  15.462   4.209  10.988 -0.0850 -0.0500  0.0734
  155loPI    C3 2467  15.151   4.186  11.239 -0.1289 -0.3357 -0.0037
  155loPI   PO4 2468  15.080   3.944  10.589  0.1241 -0.4795 -0.1550
  155loPI   GL1 2469  15.269   3.891  10.167 -0.0476  0.2783 -0.0317
  155loPI   GL2 2470  15.155   4.118  10.076  0.1043 -0.0218  0.1888
  155loPI   C1A 2471  15.107   3.648   9.771 -0.0713 -0.0710  0.1162
  155loPI   C2A 2472  15.120   3.578   9.311 -0.3422  0.0251 -0.1275
  155loPI   C3A 2473  15.090   3.487   8.877  0.0107 -0.0085 -0.0049
  155loPI   C4A 2474  15.094   3.532   8.442  0.0035 -0.2409 -0.0691
  155loPI   C5A 2475  15.130   3.414   8.062  0.1137  0.0187  0.0893
  155loPI   C6A 2476  14.979   3.029   7.767  0.0307  0.1822  0.1412
  155loPI   C1B 2477  15.270   4.078   9.568  0.2111 -0.0715  0.0958
  155loPI   C2B 2478  15.254   4.060   9.217 -0.0878 -0.3263  0.1748
  155loPI   C3B 2479  15.250   3.981   8.679  0.1270 -0.0700  0.0155
  155loPI   C4B 2480  15.183   3.947   8.242  0.1277  0.1770  0.0832
  156loPI    C1 2481  13.815   0.164  10.247  0.0409 -0.0902 -0.1144
  156loPI    C2 2482  13.879   0.116  10.639 -0.1136 -0.1734 -0.0988
  156loPI    C3 2483  13.590  -0.092  10.456  0.1693 -0.3774 -0.3223
  156loPI   PO4 2484  14.093   0.095  10.187  0.0700  0.1388 -0.1025
  156loPI   GL1 2485  14.207  -0.055   9.869  0.1967  0.0672  0.0770
  156loPI   GL2 2486  13.917   0.152   9.737  0.1550  0.3154  0.0085
  156loPI   C1A 2487  14.474  -0.124   9.552 -0.0042  0.0158 -0.0487
  156loPI   C2A 2488  14.381  -0.224   9.262  0.0387  0.3353 -0.0436
  156loPI   C3A 2489  14.370  -0.302   8.759 -0.1717 -0.1482 -0.0866
  156loPI   C4A 2490  14.445  -0.390   8.223  0.1308 -0.0372  0.1205
  156loPI   C5A 2491  14.372  -0.100   7.926  0.0008 -0.2052 -0.3656
  156loPI   C6A 2492  14.289   0.296   7.726  0.0911  0.0009  0.3432
  156loPI   C1B 2493  14.096   0.227   9.424  0.2972  0.1038  0.0617
  156loPI   C2B 2494  14.061   0.102   8.976  0.3585 -0.1837  0.1099
  156loPI   C3B 2495  14.039   0.121   8.551  0.0449  0.3884  0.4735
  156loPI   C4B 2496  13.903   0.184   8.121  0.3897 -0.3412 -0.1287
  157loPI    C1 2497   0.819   1.110  10.281 -0.0201  0.0075  0.0126
  157loPI    C2 2498   0.832   0.931  10.639 -0.3332 -0.0300  0.0074
  157loPI    C3 2499   0.591   1.245  10.580 -0.0538  0.1709 -0.0859
  157loPI   PO4 2500   0.930   0.823  10.099  0.1816 -0.2488  0.1168
  157loPI   GL1 2501   1.292   0.763   9.877 -0.1731  0.0604  0.1032
  157loPI   GL2 2502   1.126   0.765   9.568 -0.0339 -0.2439 -0.0935
  157loPI   C1A 2503   1.500   1.135   9.641  0.1666  0.1188  0.2377
  157loPI   C2A 2504   1.616   1.333   9.245  0.2456 -0.4093 -0.0804
  157loPI   C3A 2505   1.642   1.388   8.801 -0.2382 -0.1186  0.0761
  157loPI   C4A 2506   1.622   1.490   8.361  0.3927  0.0236 -0.0401
  157loPI   C5A 2507   1.490   1.459   7.831  0.1339  0.2704 -0.2468
  157loPI   C6A 2508   1.350   1.220   7.536 -0.0834 -0.2431  0.3045
  157loPI   C1B 2509   1.389   0.836   9.174  0.3644  0.1831  0.2505
  157loPI   C2B 2510   1.397   0.966   8.795  0.1672 -0.1637  0.5709
  157loPI   C3B 2511   1.429   1.018   8.276  0.0289  0.2000  0.1284
  157loPI   C4B 2512   1.505   0.810   7.804 -0.0662 -0.1650  0.0802
  158loPI    C1 2513   2.580   9.640  10.080  0.1557  0.1106 -0.0272
  158loPI    C2 2514   2.464   9.928  10.333 -0.1523  0.0556 -0.1020
  158loPI    C3 2515   2.717   9.644  10.456  0.0105  0.2535  0.0257
  158loPI   PO4 2516   2.370   9.561   9.881 -0.2617  0.1871  0.1437
  158loPI   GL1 2517   2.211   9.781   9.621  0.0714  0.1401 -0.0098
  158loPI   GL2 2518   2.146  10.040   9.598 -0.0735 -0.1927 -0.0650
  158loPI   C1A 2519   2.194   9.729   9.128 -0.0134  0.1085  0.1502
  158loPI   C2A 2520   2.318   9.848   8.681 -0.2078  0.0189 -0.0146
  158loPI   C3A 2521   2.226   9.785   8.275 -0.0059  0.0805 -0.2360
  158loPI   C4A 2522   2.111   9.694   7.802  0.2428 -0.0323 -0.1100
  158loPI   C5A 2523   1.798   9.810   7.492  0.0451  0.1461 -0.0637
  158loPI   C6A 2524   1.532  10.174   7.595 -0.0313 -0.1603 -0.1817
  158loPI   C1B 2525   1.919  10.128   9.277  0.2734  0.0722  0.0232
  158loPI   C2B 2526   1.856  10.164   8.810  0.1099 -0.0937 -0.1148
  158loPI   C3B 2527   1.780  10.019   8.434  0.0018 -0.1789 -0.1474
  158loPI   C4B 2528   1.718   9.944   8.037  0.1233 -0.1126  0.2033
  159loPI    C1 2529   9.993   9.262  10.798 -0.1640  0.1218 -0.1667
  159loPI    C2 2530  10.147   9.627  10.855 -0.0176  0.0173  0.1232
  159loPI    C3 2531   9.754   9.567  10.900 -0.0144  0.0999  0.2698
  159loPI   PO4 2532  10.180   9.133  10.811  0.0981 -0.0828  0.0973
  159loPI   GL1 2533  10.399   9.284  10.432  0.3701  0.1075  0.0936
  159loPI   GL2 2534  10.513   9.606  10.384  0.1289  0.2011  0.0121
  159loPI   C1A 2535  10.307   9.286  10.073  0.2446 -0.0162 -0.0853
  159loPI   C2A 2536  10.264   9.371   9.717 -0.3250 -0.2804 -0.0096
  159loPI   C3A 2537  10.313   9.409   9.241  0.0597  0.1968  0.0945
  159loPI   C4A 2538  10.450   9.791   9.005  0.0161  0.2700  0.0817
  159loPI   C5A 2539  10.474   9.807   8.540 -0.1467 -0.0458  0.0316
  159loPI   C6A 2540  10.260   9.951   8.217 -0.1245 -0.3022 -0.1086
  159loPI   C1B 2541  10.616   9.697   9.969 -0.1916 -0.3060 -0.0153
  159loPI   C2B 2542  10.477   9.846   9.643  0.2823  0.0337 -0.1488
  159loPI   C3B 2543  10.562  10.114   9.351 -0.0021 -0.0762 -0.1366
  159loPI   C4B 2544  10.751  10.480   9.092  0.1085 -0.2608  0.1912
  160loPI    C1 2545  17.524   7.780  10.297  0.0829  0.1262 -0.1887
  160loPI    C2 2546  17.824   7.923  10.519 -0.1065  0.1685  0.0439
  160loPI    C3 2547  17.791   7.530  10.458  0.0954  0.1769 -0.1302
  160loPI   PO4 2548  17.417   7.970  10.226  0.2405  0.0958  0.1918
  160loPI   GL1 2549  17.286   8.258   9.837  0.0585 -0.2525 -0.1589
  160loPI   GL2 2550  17.602   8.448   9.823 -0.3260 -0.1585 -0.3113
  160loPI   C1A 2551  17.095   8.131   9.499 -0.1773  0.0371 -0.2637
  160loPI   C2A 2552  16.974   8.135   9.090  0.0398  0.0122 -0.1802
  160loPI   C3A 2553  17.070   8.343   8.811 -0.1150 -0.0954  0.3000
  160loPI   C4A 2554  17.091   8.448   8.357 -0.5120  0.1543 -0.1669
  160loPI   C5A 2555  17.310   8.562   7.967 -0.1284  0.2369  0.0086
  160loPI   C6A 2556  17.710   8.693   7.965  0.1332 -0.1236  0.1211
  160loPI   C1B 2557  17.806   8.056   9.549 -0.0344  0.0926 -0.1252
  160loPI   C2B 2558  17.973   8.203   9.059 -0.0875 -0.0711 -0.3749
  160loPI   C3B 2559  18.090   8.214   8.669 -0.0984 -0.0117 -0.1738
  160loPI   C4B 2560  18.453   8.171   8.416  0.3106  0.3201 -0.0729
  161loPI    C1 2561   6.522   8.169  10.332  0.1254 -0.0067  0.1176
  161loPI    C2 2562   6.679   8.111  10.696 -0.0319  0.0059  0.1886
  161loPI    C3 2563   6.283   8.094  10.644 -0.0143  0.0626  0.0282
  161loPI   PO4 2564   6.725   7.994  10.184  0.0470 -0.0176 -0.2565
  161loPI   GL1 2565   7.000   7.981   9.921 -0.0715  0.1869 -0.2415
  161loPI   GL2 2566   7.273   8.276   9.902 -0.1806  0.0581 -0.0433
  161loPI   C1A 2567   7.275   7.958   9.505 -0.2128 -0.0895  0.3195
  161loPI   C2A 2568   7.337   7.858   9.091 -0.3242  0.2032 -0.1386
  161loPI   C3A 2569   7.329   7.931   8.641  0.0284 -0.0638 -0.2582
  161loPI   C4A 2570   7.510   8.036   8.250 -0.0715 -0.1736 -0.4689
  161loPI   C5A 2571   7.285   8.258   7.942 -0.2457  0.0616  0.0869
  161loPI   C6A 2572   7.114   8.177   7.537  0.0979  0.0067 -0.2272
  161loPI   C1B 2573   6.945   8.437   9.653  0.0177  0.1957 -0.0473
  161loPI   C2B 2574   7.068   8.415   9.278 -0.1765  0.0338 -0.2662
  161loPI   C3B 2575   7.087   8.309   8.876 -0.1640 -0.0592 -0.2101
  161loPI   C4B 2576   7.059   8.348   8.445 -0.2659 -0.0189  0.2179
  162loPI    C1 2577  14.886  16.910  10.527 -0.1348  0.1602  0.2864
  162loPI    C2 2578  14.492  16.912  10.453 -0.0412 -0.3008 -0.3085
  162loPI    C3 2579  14.675  16.570  10.551  0.2390 -0.1176 -0.1784
  162loPI   PO4 2580  14.976  17.057  10.344 -0.1725 -0.1626 -0.0128
  162loPI   GL1 2581  15.167  16.910   9.924  0.2344  0.0995 -0.1442
  162loPI   GL2 2582  15.143  17.283   9.866  0.3791 -0.2921  0.0256
  162loPI   C1A 2583  15.268  16.933   9.548 -0.0614 -0.0239  0.2025
  162loPI   C2A 2584  15.388  17.079   9.174  0.2223  0.0174 -0.1195
  162loPI   C3A 2585  15.420  17.009   8.736 -0.1272 -0.0106  0.1344
  162loPI   C4A 2586  15.436  16.963   8.302 -0.3157 -0.0384 -0.0946
  162loPI   C5A 2587  15.660  16.970   7.857  0.1627  0.0603 -0.0109
  162loPI   C6A 2588  15.944  17.112   7.575  0.0492  0.3727  0.0530
  162loPI   C1B 2589  15.054  17.412   9.482  0.0313 -0.0714 -0.0310
  162loPI   C2B 2590  15.075  17.420   9.045  0.0309  0.3188  0.0502
  162loPI   C3B 2591  15.099  17.458   8.644 -0.0978 -0.0474 -0.2905
  162loPI   C4B 2592  15.061  17.287   8.298 -0.1922  0.0879 -0.2610
  163loPI    C1 2593  15.066  15.760  10.709  0.0286 -0.1392 -0.0416
  163loPI    C2 2594  15.442  15.623  10.726  0.0634 -0.0328  0.0613
  163loPI    C3 2595  15.140  15.397  10.858  0.0983 -0.0924  0.0390
  163loPI   PO4 2596  14.990  15.829  10.421 -0.2205  0.0868 -0.1967
  163loPI   GL1 2597  14.837  15.714  10.089  0.1308  0.1677 -0.1289
  163loPI   GL2 2598  14.552  15.711  10.092 -0.1685 -0.1331 -0.0374
  163loPI   C1A 2599  14.814  15.797   9.660 -0.0208  0.3561  0.3312
  163loPI   C2A 2600  14.985  16.044   9.406 -0.0172  0.1408 -0.1528
  163loPI   C3A 2601  14.960  16.127   8.990  0.0473  0.0572 -0.0351
  163loPI   C4A 2602  15.148  16.061   8.680 -0.0624 -0.1178  0.1389
  163loPI   C5A 2603  15.101  16.280   8.189  0.0460 -0.0071 -0.3857
  163loPI   C6A 2604  14.948  15.878   7.990  0.1745 -0.2542 -0.1829
  163loPI   C1B 2605  14.645  15.292   9.881  0.2645  0.2802 -0.2107
  163loPI   C2B 2606  14.707  15.123   9.473  0.3041  0.1279 -0.3459
  163loPI   C3B 2607  14.805  15.092   8.998 -0.3803  0.1095  0.1153
  163loPI   C4B 2608  14.966  15.038   8.601  0.1967 -0.0288  0.2642
  164loPI    C1 2609   0.171  14.100  10.615  0.0602  0.0125  0.2808
  164loPI    C2 2610  -0.154  14.303  10.728 -0.0878 -0.0878  0.0417
  164loPI    C3 2611  -0.189  13.928  10.592  0.1807 -0.2734  0.4613
  164loPI   PO4 2612   0.318  14.267  10.491 -0.0297 -0.0042  0.0167
  164loPI   GL1 2613   0.320  14.456  10.087 -0.0557  0.0663 -0.0303
  164loPI   GL2 2614   0.125  14.725   9.845  0.1121 -0.0396  0.0080
  164loPI   C1A 2615   0.426  14.124   9.762  0.0796  0.1205  0.2345
  164loPI   C2A 2616   0.699  13.889   9.500 -0.0622 -0.3133  0.2632
  164loPI   C3A 2617   0.915  13.755   9.090  0.3179 -0.0867  0.0608
  164loPI   C4A 2618   0.896  13.712   8.697  0.1123  0.0438  0.0749
  164loPI   C5A 2619   0.840  13.820   8.234 -0.2021 -0.1539  0.4707
  164loPI   C6A 2620   0.934  13.734   7.896  0.3142 -0.1486  0.0009
  164loPI   C1B 2621   0.108  14.490   9.551  0.2591 -0.4811 -0.0774
  164loPI   C2B 2622   0.398  14.464   9.193 -0.2187 -0.1322  0.0181
  164loPI   C3B 2623   0.500  14.545   8.823  0.2935  0.1451  0.2514
  164loPI   C4B 2624   0.107  14.571   8.434  0.0475  0.2133  0.2935
  165loPI    C1 2625  14.241   6.273  10.496 -0.1217 -0.0976  0.1882
  165loPI    C2 2626  14.583   6.431  10.630 -0.1252 -0.0502  0.1412
  165loPI    C3 2627  14.253   6.449  10.855 -0.1170 -0.0220  0.1510
  165loPI   PO4 2628  14.296   6.116  10.337 -0.0785  0.4023 -0.2675
  165loPI   GL1 2629  14.206   6.159   9.845  0.0677  0.0597  0.1581
  165loPI   GL2 2630  14.032   6.345   9.956 -0.0427 -0.0742  0.0459
  165loPI   C1A 2631  13.995   6.119   9.498  0.0910  0.1101  0.0067
  165loPI   C2A 2632  14.099   6.140   9.104 -0.1215  0.1725 -0.0061
  165loPI   C3A 2633  14.095   6.116   8.702  0.0506  0.2448 -0.2518
  165loPI   C4A 2634  14.114   6.114   8.224  0.1140  0.1623 -0.1975
  165loPI   C5A 2635  13.949   6.039   7.799 -0.1221 -0.1649  0.0962
  165loPI   C6A 2636  13.913   6.269   7.535 -0.2607 -0.1147 -0.0511
  165loPI   C1B 2637  14.024   6.592   9.561 -0.3491  0.0489  0.0040
  165loPI   C2B 2638  14.171   6.693   9.228  0.1155  0.0622  0.3344
  165loPI   C3B 2639  14.313   6.557   8.893 -0.2984 -0.0410 -0.1024
  165loPI   C4B 2640  14.358   6.545   8.499 -0.0623 -0.1791  0.1939
  166loPI    C1 2641   4.314  11.281  10.427  0.0135 -0.2764  0.1421
  166loPI    C2 2642   4.534  11.235  10.758 -0.0622 -0.0544  0.2251
  166loPI    C3 2643   4.622  11.527  10.499 -0.0027 -0.2281  0.0478
  166loPI   PO4 2644   4.295  11.069  10.300  0.2014  0.1797  0.1118
  166loPI   GL1 2645   4.524  11.004   9.843 -0.1003  0.2698 -0.0185
  166loPI   GL2 2646   4.684  11.215   9.646  0.1312  0.1181 -0.1804
  166loPI   C1A 2647   4.304  10.961   9.374  0.1876  0.0490 -0.0009
  166loPI   C2A 2648   4.208  10.873   9.019  0.3435 -0.4916 -0.1460
  166loPI   C3A 2649   4.154  11.006   8.575 -0.0370 -0.1268 -0.1890
  166loPI   C4A 2650   3.832  10.783   8.247 -0.4488 -0.2127  0.2085
  166loPI   C5A 2651   3.572  10.586   8.304  0.0432 -0.1318 -0.1335
  166loPI   C6A 2652   3.195  10.443   8.597  0.0936  0.1568 -0.1016
  166loPI   C1B 2653   4.610  11.296   9.245  0.0738 -0.2707 -0.1190
  166loPI   C2B 2654   4.562  11.249   8.796 -0.0273 -0.1591 -0.2260
  166loPI   C3B 2655   4.549  11.294   8.308 -0.1548  0.2134 -0.2457
  166loPI   C4B 2656   4.681  11.163   7.860  0.1039 -0.0898 -0.1428
  167loPI    C1 2657  17.960  14.806  10.581 -0.2119 -0.0240  0.0753
  167loPI    C2 2658  18.086  14.707  10.947 -0.0099  0.3234  0.1044
  167loPI    C3 2659  17.698  14.779  10.882 -0.0695  0.1103  0.2134
  167loPI   PO4 2660  18.013  14.620  10.431  0.3515  0.0717  0.3113
  167loPI   GL1 2661  17.981  14.680  10.095 -0.2619 -0.2257  0.0556
  167loPI   GL2 2662  17.786  15.023  10.186  0.0402  0.4379  0.0440
  167loPI   C1A 2663  18.001  14.448   9.799 -0.3498 -0.0551  0.0924
  167loPI   C2A 2664  18.042  14.537   9.386  0.1127 -0.1757  0.0969
  167loPI   C3A 2665  18.051  14.472   8.977 -0.2604  0.0763  0.3311
  167loPI   C4A 2666  18.141  14.380   8.518 -0.0577  0.1117  0.4426
  167loPI   C5A 2667  18.050  14.427   8.066 -0.0880 -0.0146 -0.0621
  167loPI   C6A 2668  18.013  14.625   7.762 -0.1516 -0.2736 -0.1236
  167loPI   C1B 2669  17.857  14.967   9.682  0.1860 -0.1263 -0.0278
  167loPI   C2B 2670  17.877  15.017   9.264 -0.0718 -0.2432  0.2028
  167loPI   C3B 2671  17.999  14.966   8.878 -0.1593 -0.2710 -0.1996
  167loPI   C4B 2672  18.107  14.873   8.527 -0.4677  0.2051  0.0863
  168loPI    C1 2673  12.920  13.113  10.869  0.0747  0.0693 -0.0513
  168loPI    C2 2674  12.823  13.274  11.222  0.3995  0.2219 -0.0278
  168loPI    C3 2675  13.042  12.940  11.208  0.0661  0.0010 -0.0830
  168loPI   PO4 2676  12.751  13.147  10.748 -0.2547 -0.1142 -0.0560
  168loPI   GL1 2677  12.628  13.457  10.445  0.0532 -0.1345 -0.1556
  168loPI   GL2 2678  12.437  13.590  10.252  0.0954  0.1630  0.0866
  168loPI   C1A 2679  12.972  13.619  10.037 -0.1115 -0.1555  0.1319
  168loPI   C2A 2680  13.009  13.671   9.622 -0.0704  0.0442  0.0897
  168loPI   C3A 2681  13.031  13.716   9.155  0.1030  0.2732  0.1106
  168loPI   C4A 2682  13.213  13.719   8.724  0.1936 -0.1657 -0.1516
  168loPI   C5A 2683  13.218  13.666   8.220  0.2093  0.1101 -0.1864
  168loPI   C6A 2684  13.271  13.662   7.794 -0.2289 -0.0729 -0.2822
  168loPI   C1B 2685  12.487  13.888   9.879 -0.1636  0.1725 -0.3641
  168loPI   C2B 2686  12.617  14.003   9.524 -0.2110 -0.2188 -0.0865
  168loPI   C3B 2687  12.780  14.158   9.087 -0.0190 -0.1750  0.1329
  168loPI   C4B 2688  12.675  13.855   8.778 -0.1986  0.3905 -0.2497
  169loPI    C1 2689   4.197  13.289  10.769 -0.1368 -0.1280  0.1553
  169loPI    C2 2690   4.381  13.469  11.075 -0.0177 -0.1790  0.1144
  169loPI    C3 2691   3.981  13.475  11.050 -0.0138  0.1240  0.0859
  169loPI   PO4 2692   4.260  13.377  10.501  0.6716 -0.0494 -0.1342
  169loPI   GL1 2693   4.283  13.327  10.027  0.0201  0.1313 -0.0264
  169loPI   GL2 2694   4.088  13.082   9.875 -0.2401 -0.0502 -0.1657
  169loPI   C1A 2695   4.308  13.422   9.608  0.0839 -0.1513  0.2394
  169loPI   C2A 2696   4.502  13.374   9.143 -0.0544 -0.0120  0.2518
  169loPI   C3A 2697   4.478  13.305   8.691 -0.0704 -0.2730 -0.1269
  169loPI   C4A 2698   4.373  13.385   8.298 -0.2048 -0.1682  0.2001
  169loPI   C5A 2699   4.432  13.432   7.991 -0.3498  0.0055 -0.1129
  169loPI   C6A 2700   4.258  13.153   7.666  0.0821 -0.3354  0.2254
  169loPI   C1B 2701   4.011  13.097   9.455  0.0809  0.1975 -0.1206
  169loPI   C2B 2702   4.103  13.098   8.999  0.1763 -0.0103 -0.1712
  169loPI   C3B 2703   4.033  13.074   8.566 -0.0334 -0.0359  0.1273
  169loPI   C4B 2704   3.952  13.209   8.103 -0.3160  0.0395 -0.2184
  170loPI    C1 2705  17.132  13.639  10.768  0.0790 -0.1834 -0.2492
  170loPI    C2 2706  17.123  13.260  10.896 -0.1722 -0.0656  0.0973
  170loPI    C3 2707  17.461  13.473  10.923 -0.0713 -0.2169  0.0402
  170loPI   PO4 2708  16.955  13.620  10.571 -0.0833  0.1408 -0.2046
  170loPI   GL1 2709  16.943  13.458  10.181 -0.0136  0.2878 -0.0415
  170loPI   GL2 2710  16.716  13.368  10.056  0.0382  0.0070  0.0528
  170loPI   C1A 2711  17.250  13.495   9.789 -0.1149  0.2635 -0.2166
  170loPI   C2A 2712  17.258  13.328   9.445 -0.1040 -0.1018  0.1498
  170loPI   C3A 2713  17.383  13.528   9.058  0.0268  0.1957  0.2943
  170loPI   C4A 2714  17.479  13.611   8.660  0.1792  0.1076 -0.1246
  170loPI   C5A 2715  17.445  13.504   8.229  0.0126 -0.1616 -0.2432
  170loPI   C6A 2716  17.677  13.627   7.916 -0.1566 -0.0465 -0.1650
  170loPI   C1B 2717  16.720  13.451   9.614  0.3674  0.1834  0.1198
  170loPI   C2B 2718  16.814  13.297   9.201  0.1569  0.3414  0.2610
  170loPI   C3B 2719  16.974  13.006   8.963  0.3059  0.1177 -0.2867
  170loPI   C4B 2720  16.844  12.642   8.769  0.1704 -0.0756  0.1287
  171loPI    C1 2721  12.186   7.377  10.515  0.1446  0.0305  0.0304
  171loPI    C2 2722  11.803   7.342  10.623  0.0888  0.2444 -0.0915
  171loPI    C3 2723  12.093   7.260  10.886 -0.0370 -0.0564 -0.0416
  171loPI   PO4 2724  12.174   7.320  10.285  0.1639  0.2123 -0.2945
  171loPI   GL1 2725  12.302   7.453   9.897  0.4271  0.0913  0.0278
  171loPI   GL2 2726  12.663   7.560   9.808 -0.2019  0.3757  0.1175
  171loPI   C1A 2727  12.199   7.535   9.442  0.4003 -0.5005 -0.1416
  171loPI   C2A 2728  12.164   7.560   8.996 -0.0420 -0.2977  0.1302
  171loPI   C3A 2729  12.229   7.564   8.577 -0.2684 -0.0730  0.2380
  171loPI   C4A 2730  12.160   7.660   8.164 -0.0588  0.0752  0.3162
  171loPI   C5A 2731  11.904   7.618   7.879 -0.2475  0.0255  0.1707
  171loPI   C6A 2732  11.918   7.543   7.515  0.2959 -0.1836  0.4650
  171loPI   C1B 2733  12.642   7.560   9.355 -0.1870 -0.2732  0.1892
  171loPI   C2B 2734  12.627   7.567   8.935  0.0788 -0.0797  0.3999
  171loPI   C3B 2735  12.753   7.595   8.475  0.0795 -0.2043 -0.0775
  171loPI   C4B 2736  12.673   7.773   8.047 -0.1096  0.2205  0.0577
  172loPI    C1 2737  12.423  13.454  11.053  0.0167 -0.0984  0.2204
  172loPI    C2 2738  12.746  13.660  10.938 -0.2840  0.1741 -0.1612
  172loPI    C3 2739  12.540  13.776  11.261 -0.0225  0.0153  0.0678
  172loPI   PO4 2740  12.269  13.438  10.780  0.2228 -0.0889 -0.1123
  172loPI   GL1 2741  12.124  13.214  10.437 -0.0529  0.1402 -0.3562
  172loPI   GL2 2742  12.356  13.037  10.520  0.3783  0.3560  0.0848
  172loPI   C1A 2743  12.113  13.245  10.047  0.0129  0.2407 -0.1822
  172loPI   C2A 2744  12.267  13.024   9.672 -0.1192 -0.0178  0.0520
  172loPI   C3A 2745  12.570  12.831   9.387  0.0108  0.0203  0.0065
  172loPI   C4A 2746  12.634  12.856   8.928 -0.0763  0.0503  0.0500
  172loPI   C5A 2747  12.453  13.078   8.601  0.0482 -0.1510 -0.1105
  172loPI   C6A 2748  12.604  13.119   8.152  0.0330 -0.0480  0.2924
  172loPI   C1B 2749  12.155  12.803  10.235  0.0672  0.1876 -0.0934
  172loPI   C2B 2750  12.083  12.574   9.796 -0.0872 -0.1096 -0.4176
  172loPI   C3B 2751  12.100  12.651   9.345 -0.3481  0.2773  0.1290
  172loPI   C4B 2752  12.212  13.024   9.089 -0.2648 -0.1963 -0.3843
  173loPI    C1 2753   7.034  14.139  10.364 -0.1249  0.1895 -0.0096
  173loPI    C2 2754   7.368  14.348  10.436  0.0238  0.0391 -0.2473
  173loPI    C3 2755   7.177  14.164  10.737  0.3147 -0.1099 -0.1505
  173loPI   PO4 2756   6.907  14.280  10.147 -0.1790  0.2801 -0.1989
  173loPI   GL1 2757   6.930  14.321   9.683 -0.1033  0.0558 -0.1190
  173loPI   GL2 2758   6.747  14.029   9.652  0.3248  0.1613  0.1434
  173loPI   C1A 2759   6.739  14.697   9.411 -0.1288 -0.0340 -0.1889
  173loPI   C2A 2760   6.643  14.676   8.918 -0.1091  0.1543 -0.2930
  173loPI   C3A 2761   6.748  14.725   8.519  0.1436 -0.0107 -0.0020
  173loPI   C4A 2762   6.831  14.705   8.115 -0.1104  0.1505  0.1134
  173loPI   C5A 2763   7.170  14.620   7.814  0.2288  0.1596  0.1971
  173loPI   C6A 2764   7.570  14.661   7.746  0.2220 -0.0788  0.2634
  173loPI   C1B 2765   6.766  14.183   9.147 -0.1117 -0.0010  0.0913
  173loPI   C2B 2766   6.717  14.224   8.747  0.3983  0.1258  0.4292
  173loPI   C3B 2767   6.817  14.265   8.313 -0.1678  0.1475  0.2302
  173loPI   C4B 2768   6.708  14.166   7.895  0.2513 -0.2802  0.4296
  174loPI    C1 2769   6.188   2.145  10.421  0.0329  0.1632 -0.0398
  174loPI    C2 2770   6.282   2.097  10.807 -0.1467  0.1023 -0.0029
  174loPI    C3 2771   5.916   2.220  10.704 -0.1630 -0.0738 -0.1618
  174loPI   PO4 2772   6.184   1.966  10.252 -0.0918 -0.2207 -0.1849
  174loPI   GL1 2773   6.386   1.602  10.052  0.1281 -0.0777  0.0792
  174loPI   GL2 2774   6.454   1.387  10.075 -0.4564  0.0820 -0.1356
  174loPI   C1A 2775   6.204   1.566   9.600 -0.2396 -0.0132  0.2383
  174loPI   C2A 2776   6.101   1.551   9.220 -0.0523 -0.0679  0.1199
  174loPI   C3A 2777   6.121   1.607   8.772 -0.1230 -0.1030  0.0709
  174loPI   C4A 2778   6.039   1.599   8.431 -0.4185 -0.2105  0.1725
  174loPI   C5A 2779   6.030   1.746   8.063  0.0667 -0.0245 -0.1916
  174loPI   C6A 2780   5.844   2.039   7.828 -0.1411  0.1605 -0.0852
  174loPI   C1B 2781   6.469   1.159   9.765 -0.1303  0.1137  0.0695
  174loPI   C2B 2782   6.488   1.147   9.301 -0.0862 -0.0651 -0.3150
  174loPI   C3B 2783   6.415   1.157   8.969  0.2018  0.3048 -0.2505
  174loPI   C4B 2784   6.456   1.132   8.509 -0.0622 -0.1009 -0.1631
  175loPI    C1 2785   1.643   6.868   9.822  0.0168 -0.0435  0.0398
  175loPI    C2 2786   1.518   6.874  10.202  0.2573  0.0216  0.1199
  175loPI    C3 2787   1.909   6.869  10.121  0.2072  0.0072 -0.1281
  175loPI   PO4 2788   1.414   7.030   9.700 -0.0553  0.1321 -0.0183
  175loPI   GL1 2789   1.479   7.040   9.287  0.0649 -0.1619  0.1442
  175loPI   GL2 2790   1.582   6.779   9.280  0.1777 -0.1506 -0.3621
  175loPI   C1A 2791   1.499   7.120   8.855  0.1152 -0.0172 -0.2853
  175loPI   C2A 2792   1.404   7.363   8.439 -0.4244 -0.2175 -0.0147
  175loPI   C3A 2793   1.109   7.269   8.142  0.1135  0.0150  0.0169
  175loPI   C4A 2794   1.005   6.840   8.018  0.3064 -0.0073 -0.1899
  175loPI   C5A 2795   0.757   6.558   7.829 -0.1066  0.0528  0.1907
  175loPI   C6A 2796   0.774   6.049   7.690  0.1875  0.0799  0.1225
  175loPI   C1B 2797   1.883   6.675   9.032 -0.0626  0.3283 -0.0271
  175loPI   C2B 2798   1.963   6.745   8.579 -0.0174  0.0098  0.1001
  175loPI   C3B 2799   2.276   6.873   8.272 -0.2765  0.1218  0.2821
  175loPI   C4B 2800   2.340   7.062   7.866  0.1457 -0.5577 -0.3630
  176loPI    C1 2801  17.458  12.452  10.725 -0.1048  0.1574  0.2396
  176loPI    C2 2802  17.788  12.524  10.939 -0.0041  0.0934  0.1075
  176loPI    C3 2803  17.431  12.507  11.120  0.0449  0.3171  0.2286
  176loPI   PO4 2804  17.520  12.652  10.526  0.2549  0.3630 -0.2384
  176loPI   GL1 2805  17.668  12.801  10.132 -0.1518  0.4585 -0.0610
  176loPI   GL2 2806  17.279  12.795  10.128  0.1772  0.0546 -0.0575
  176loPI   C1A 2807  17.573  12.909   9.711  0.0517 -0.1613 -0.1641
  176loPI   C2A 2808  17.628  12.967   9.253  0.2735  0.1476 -0.2292
  176loPI   C3A 2809  17.542  13.139   8.829 -0.3980 -0.0951 -0.1693
  176loPI   C4A 2810  17.470  12.932   8.444 -0.1598 -0.3665  0.0744
  176loPI   C5A 2811  17.553  12.669   8.001  0.0649 -0.0356  0.0216
  176loPI   C6A 2812  17.347  12.852   7.563  0.0912 -0.0502 -0.2671
  176loPI   C1B 2813  17.064  12.959   9.866  0.3157 -0.3973 -0.2271
  176loPI   C2B 2814  17.045  12.874   9.441 -0.0170 -0.0470 -0.2768
  176loPI   C3B 2815  17.276  12.613   9.225 -0.3828 -0.0512 -0.0415
  176loPI   C4B 2816  17.472  12.623   8.793  0.0503  0.0121  0.2178
  177loPI    C1 2817   4.222   6.429  10.007  0.3835 -0.0032  0.1078
  177loPI    C2 2818   4.024   6.099  10.114  0.0162  0.1296 -0.1408
  177loPI    C3 2819   4.218   6.314  10.389 -0.2858  0.0605  0.1314
  177loPI   PO4 2820   4.045   6.676   9.938 -0.1731 -0.2249  0.2904
  177loPI   GL1 2821   3.887   6.828   9.557  0.0534  0.2057 -0.3521
  177loPI   GL2 2822   3.902   6.540   9.338 -0.2196  0.3322  0.0943
  177loPI   C1A 2823   3.747   7.001   9.182  0.1128  0.1328  0.0736
  177loPI   C2A 2824   3.586   6.906   8.817 -0.1786  0.0235 -0.2065
  177loPI   C3A 2825   3.487   7.072   8.466  0.0195 -0.0117  0.1906
  177loPI   C4A 2826   3.128   7.259   8.302  0.0437  0.3935  0.1967
  177loPI   C5A 2827   3.103   7.586   8.066 -0.0474  0.0415 -0.2836
  177loPI   C6A 2828   3.292   7.941   8.214 -0.0648  0.0369 -0.1642
  177loPI   C1B 2829   3.939   6.547   8.912  0.0761  0.2170  0.3413
  177loPI   C2B 2830   4.018   6.388   8.512  0.0076 -0.0529 -0.0266
  177loPI   C3B 2831   3.969   6.303   8.131  0.0631 -0.1486 -0.2447
  177loPI   C4B 2832   3.793   6.085   7.794 -0.2562 -0.3153 -0.1630
  178loPI    C1 2833  17.900   4.644  10.527  0.2230 -0.0674 -0.2072
  178loPI    C2 2834  17.961   5.038  10.489 -0.0110 -0.0142 -0.0519
  178loPI    C3 2835  18.220   4.814  10.696  0.1331  0.0541 -0.1571
  178loPI   PO4 2836  17.938   4.535  10.338 -0.0031  0.2247 -0.0629
  178loPI   GL1 2837  17.813   4.372   9.995 -0.0193  0.2210 -0.3772
  178loPI   GL2 2838  17.786   4.066   9.892  0.0488 -0.2725 -0.1228
  178loPI   C1A 2839  18.137   4.276   9.639 -0.1644  0.0802  0.3018
  178loPI   C2A 2840  18.439   4.196   9.309  0.3913  0.0853 -0.0278
  178loPI   C3A 2841  18.361   4.286   8.853 -0.1969 -0.1608  0.1575
  178loPI   C4A 2842  18.323   4.337   8.517 -0.0346  0.0580 -0.3478
  178loPI   C5A 2843  18.397   4.250   8.069 -0.2394  0.0164 -0.1504
  178loPI   C6A 2844  18.431   4.539   7.614  0.0964  0.0091  0.0688
  178loPI   C1B 2845  17.695   3.903   9.405 -0.1046 -0.2560 -0.4057
  178loPI   C2B 2846  17.721   3.899   8.949 -0.2117 -0.0290  0.0953
  178loPI   C3B 2847  17.627   3.899   8.437 -0.0004 -0.0753  0.1989
  178loPI   C4B 2848  17.528   3.887   7.985  0.1677  0.0461 -0.0362
  179loPI    C1 2849   2.947  10.186  10.215 -0.0563  0.1806 -0.1507
  179loPI    C2 2850   2.612  10.403  10.215  0.1057  0.4349 -0.1241
  179loPI    C3 2851   2.752  10.252  10.558 -0.0852  0.1609 -0.1632
  179loPI   PO4 2852   3.004  10.344   9.967 -0.1725  0.0492 -0.3762
  179loPI   GL1 2853   3.365  10.349   9.708 -0.0971 -0.0149  0.3308
  179loPI   GL2 2854   3.649  10.592   9.731  0.2899 -0.1311 -0.0902
  179loPI   C1A 2855   3.422  10.524   9.222 -0.1175  0.1441  0.0434
  179loPI   C2A 2856   3.670  10.701   8.988 -0.3139  0.1644 -0.4089
  179loPI   C3A 2857   4.058  10.547   8.686  0.1028  0.1639 -0.1718
  179loPI   C4A 2858   4.338  10.246   8.608 -0.0540 -0.2107 -0.1148
  179loPI   C5A 2859   4.415  10.116   8.197  0.1851  0.1372 -0.0343
  179loPI   C6A 2860   4.457  10.157   7.746 -0.0002 -0.3651  0.0134
  179loPI   C1B 2861   3.952  10.598   9.374 -0.0429  0.1237  0.1805
  179loPI   C2B 2862   4.149  10.336   9.144  0.1237 -0.3320  0.2564
  179loPI   C3B 2863   4.052   9.939   8.817  0.4263  0.0364  0.1454
  179loPI   C4B 2864   4.181   9.684   8.455 -0.1124  0.0671  0.2717
  180loPI    C1 2865  11.556   0.510  10.302 -0.0391  0.2975  0.0253
  180loPI    C2 2866  11.278   0.429  10.578  0.0619 -0.0288  0.0358
  180loPI    C3 2867  11.610   0.629  10.680 -0.0142  0.0686  0.0952
  180loPI   PO4 2868  11.355   0.576  10.086  0.0235  0.0045  0.1884
  180loPI   GL1 2869  11.325   0.649   9.639 -0.0231 -0.0924  0.0827
  180loPI   GL2 2870  11.580   0.824   9.487  0.0968  0.1968  0.1634
  180loPI   C1A 2871  11.450   0.609   9.068  0.2382  0.1835  0.0824
  180loPI   C2A 2872  11.546   0.839   8.703  0.2993 -0.1311 -0.4092
  180loPI   C3A 2873  11.763   0.974   8.350  0.1080 -0.0736  0.1635
  180loPI   C4A 2874  11.866   1.186   7.894  0.5199 -0.1745 -0.0298
  180loPI   C5A 2875  11.782   1.527   7.573  0.1056  0.1305 -0.1295
  180loPI   C6A 2876  11.609   1.429   7.073 -0.4723 -0.1194 -0.0442
  180loPI   C1B 2877  11.713   1.060   9.143  0.0383 -0.1678 -0.5104
  180loPI   C2B 2878  12.053   0.925   8.778 -0.3227 -0.1479 -0.0285
  180loPI   C3B 2879  12.215   0.766   8.482  0.0562 -0.3107  0.1840
  180loPI   C4B 2880  12.147   0.654   8.112  0.1639 -0.0699  0.2099
  181loPI    C1 2881   4.658   4.440  10.343  0.1128 -0.3403 -0.2690
  181loPI    C2 2882   4.341   4.326  10.559  0.2422 -0.1272  0.0403
  181loPI    C3 2883   4.603   4.587  10.711  0.5396 -0.2600 -0.2325
  181loPI   PO4 2884   4.503   4.472  10.044  0.2738  0.0809  0.1720
  181loPI   GL1 2885   4.551   4.354   9.723 -0.0113  0.0157  0.3363
  181loPI   GL2 2886   4.555   4.054   9.581 -0.0937 -0.1108 -0.1203
  181loPI   C1A 2887   4.548   4.453   9.268  0.4359  0.1224 -0.2256
  181loPI   C2A 2888   4.501   4.644   8.955  0.1152  0.0342  0.1614
  181loPI   C3A 2889   4.381   4.870   8.535  0.0540 -0.4144 -0.0317
  181loPI   C4A 2890   4.567   4.820   8.103  0.0128  0.3151 -0.2755
  181loPI   C5A 2891   4.665   4.471   7.839 -0.0395 -0.0741 -0.0085
  181loPI   C6A 2892   4.529   4.059   7.821 -0.0684 -0.3248  0.2233
  181loPI   C1B 2893   4.293   4.001   9.276 -0.0157 -0.1478 -0.0909
  181loPI   C2B 2894   4.126   3.961   8.856  0.2179  0.1184 -0.0200
  181loPI   C3B 2895   4.037   3.959   8.379  0.1240  0.0627 -0.0122
  181loPI   C4B 2896   4.011   3.773   7.914  0.1109  0.0271  0.1787
  182loPI    C1 2897  12.588  11.420  10.968 -0.0519 -0.0689  0.0724
  182loPI    C2 2898  12.398  11.179  11.224  0.1335 -0.2367  0.0548
  182loPI    C3 2899  12.717  11.387  11.346 -0.0766  0.0699  0.0937
  182loPI   PO4 2900  12.629  11.287  10.740  0.1365  0.0064 -0.0387
  182loPI   GL1 2901  12.397  11.261  10.354 -0.4061  0.0873  0.2563
  182loPI   GL2 2902  12.762  11.370  10.253 -0.1289  0.0207  0.0883
  182loPI   C1A 2903  12.291  11.297   9.880  0.6281  0.1278  0.2194
  182loPI   C2A 2904  12.295  11.696   9.615  0.2998  0.1614 -0.0683
  182loPI   C3A 2905  12.363  11.864   9.195  0.2562 -0.0761 -0.1269
  182loPI   C4A 2906  12.213  11.891   8.752 -0.0297  0.0957  0.2295
  182loPI   C5A 2907  12.287  12.156   8.345 -0.0461  0.0391 -0.2362
  182loPI   C6A 2908  11.989  12.460   8.193  0.0476 -0.2680 -0.1729
  182loPI   C1B 2909  12.722  11.478   9.783  0.0833  0.0872  0.0465
  182loPI   C2B 2910  12.620  11.327   9.330 -0.0352  0.1224 -0.1080
  182loPI   C3B 2911  12.673  11.035   8.934  0.1409 -0.0976 -0.2058
  182loPI   C4B 2912  12.948  11.065   8.672 -0.1260  0.2268 -0.0432
  183loPI    C1 2913   0.989  16.852  10.994 -0.0266  0.3601  0.0375
  183loPI    C2 2914   1.047  17.125  11.281  0.0092  0.2491  0.1367
  183loPI    C3 2915   1.322  16.842  11.216 -0.0123  0.2563  0.0119
  183loPI   PO4 2916   0.956  17.031  10.772  0.0642 -0.2436  0.2334
  183loPI   GL1 2917   0.994  17.047  10.257 -0.0869 -0.4319  0.1827
  183loPI   GL2 2918   1.221  16.917  10.090  0.0075 -0.0777 -0.0008
  183loPI   C1A 2919   0.850  17.216   9.894  0.2560  0.0032  0.1013
  183loPI   C2A 2920   0.718  17.365   9.537 -0.1061 -0.2342 -0.1397
  183loPI   C3A 2921   0.676  17.426   9.006  0.1234 -0.1163 -0.1711
  183loPI   C4A 2922   0.388  17.369   8.697  0.2391  0.1882 -0.0293
  183loPI   C5A 2923   0.481  17.287   8.196 -0.1704 -0.0679 -0.2208
  183loPI   C6A 2924   0.413  17.306   7.810  0.2240 -0.1804 -0.4608
  183loPI   C1B 2925   1.364  17.155   9.812 -0.1179 -0.0982  0.0917
  183loPI   C2B 2926   1.534  16.987   9.406 -0.0251 -0.0390  0.0656
  183loPI   C3B 2927   1.635  16.895   9.087  0.0789  0.1629  0.0407
  183loPI   C4B 2928   1.749  16.878   8.659  0.0133 -0.1357  0.0766
  184loPI    C1 2929   0.229   6.945  10.561  0.1993 -0.2485 -0.1938
  184loPI    C2 2930   0.580   7.029  10.732 -0.0407  0.1539  0.1204
  184loPI    C3 2931   0.327   6.777  10.911  0.0053  0.0136 -0.0097
  184loPI   PO4 2932   0.290   6.844  10.349  0.0752 -0.1666  0.2427
  184loPI   GL1 2933   0.357   6.789   9.923  0.0991 -0.2582 -0.0553
  184loPI   GL2 2934   0.062   7.026   9.855 -0.0084  0.1292  0.3183
  184loPI   C1A 2935   0.567   6.807   9.533  0.2915  0.1699 -0.0827
  184loPI   C2A 2936   0.708   6.849   9.096 -0.0316 -0.0450  0.0606
  184loPI   C3A 2937   0.689   6.876   8.697  0.1371  0.0019  0.0933
  184loPI   C4A 2938   0.456   6.793   8.447 -0.0562  0.1496  0.1081
  184loPI   C5A 2939   0.147   6.572   8.059  0.1553 -0.3252  0.0754
  184loPI   C6A 2940  -0.187   6.695   7.898  0.0357 -0.0541 -0.1960
  184loPI   C1B 2941   0.052   6.893   9.451  0.2603  0.0847  0.1649
  184loPI   C2B 2942   0.022   6.822   9.062  0.3351  0.2368  0.0796
  184loPI   C3B 2943  -0.003   6.739   8.654  0.2171  0.0764  0.0540
  184loPI   C4B 2944  -0.213   6.472   8.365  0.1291 -0.0861 -0.0419
  185loPI    C1 2945   3.548   3.780  10.466 -0.0023 -0.1992 -0.1292
  185loPI    C2 2946   3.750   3.855  10.129 -0.0495 -0.1855 -0.1545
  185loPI    C3 2947   3.912   3.946  10.483 -0.1264  0.0858 -0.1864
  185loPI   PO4 2948   3.256   3.757  10.381  0.0700  0.2943 -0.1684
  185loPI   GL1 2949   3.136   3.920  10.061  0.0080  0.2590 -0.0266
  185loPI   GL2 2950   2.931   4.145   9.921  0.0084 -0.0999 -0.0476
  185loPI   C1A 2951   3.417   3.960   9.794 -0.2139 -0.0796 -0.0404
  185loPI   C2A 2952   3.619   4.085   9.537 -0.3344 -0.2453 -0.0808
  185loPI   C3A 2953   3.747   4.025   9.118  0.1001  0.1621 -0.1051
  185loPI   C4A 2954   3.612   3.930   8.726 -0.0084  0.2707  0.1651
  185loPI   C5A 2955   3.549   3.916   8.219  0.2310  0.1067  0.2420
  185loPI   C6A 2956   3.392   3.634   7.869  0.1866  0.1871 -0.3691
  185loPI   C1B 2957   3.078   4.163   9.461  0.2439 -0.0082  0.0318
  185loPI   C2B 2958   3.244   4.044   9.136 -0.0743 -0.2242  0.1331
  185loPI   C3B 2959   3.089   3.902   8.776  0.3962  0.0997 -0.1240
  185loPI   C4B 2960   3.125   4.056   8.429  0.1840  0.2374  0.0695
  186loPI    C1 2961  10.301  17.329  10.147 -0.1508  0.0271 -0.1507
  186loPI    C2 2962  10.077  17.463  10.451  0.0256 -0.0640  0.0219
  186loPI    C3 2963  10.237  17.097  10.467 -0.0138 -0.0930 -0.2095
  186loPI   PO4 2964  10.152  17.411   9.913 -0.0421 -0.2063 -0.1097
  186loPI   GL1 2965  10.241  17.339   9.587 -0.1095 -0.0069  0.1896
  186loPI   GL2 2966   9.979  17.470   9.419 -0.1013 -0.1011 -0.3333
  186loPI   C1A 2967  10.286  17.005   9.285 -0.1057 -0.0929  0.0698
  186loPI   C2A 2968  10.360  16.860   8.886  0.2215  0.1188  0.0877
  186loPI   C3A 2969  10.512  16.658   8.569  0.2151  0.3617 -0.3301
  186loPI   C4A 2970  10.530  16.299   8.353 -0.1166 -0.0538  0.0886
  186loPI   C5A 2971  10.466  16.055   8.006 -0.1823 -0.1134  0.0362
  186loPI   C6A 2972  10.209  16.077   7.663 -0.0144  0.0837  0.0648
  186loPI   C1B 2973  10.073  17.293   8.922  0.2646 -0.1543  0.1131
  186loPI   C2B 2974  10.275  17.215   8.481  0.3284 -0.2900  0.1892
  186loPI   C3B 2975  10.182  16.927   8.221 -0.0459 -0.1317 -0.3110
  186loPI   C4B 2976  10.294  16.555   8.052  0.3306  0.3760  0.1121
  187loPI    C1 2977   5.598   0.536  10.488 -0.0037  0.3335  0.2047
  187loPI    C2 2978   5.291   0.311  10.613  0.0118  0.2797  0.1466
  187loPI    C3 2979   5.596   0.389  10.860  0.0960  0.0801  0.1073
  187loPI   PO4 2980   5.525   0.705  10.299  0.3258 -0.2076  0.2820
  187loPI   GL1 2981   5.620   0.936   9.950  0.2112  0.2012  0.0365
  187loPI   GL2 2982   5.733   0.570   9.790 -0.1679 -0.0366  0.0228
  187loPI   C1A 2983   5.463   1.081   9.508  0.2814  0.2027  0.1917
  187loPI   C2A 2984   5.381   0.982   9.090 -0.2347 -0.1437  0.0249
  187loPI   C3A 2985   5.414   0.984   8.712 -0.2678 -0.0872 -0.0643
  187loPI   C4A 2986   5.411   1.042   8.299  0.0305 -0.2233  0.1257
  187loPI   C5A 2987   5.462   1.121   7.901  0.0856 -0.0434 -0.0388
  187loPI   C6A 2988   5.428   1.585   7.803  0.0559 -0.2445  0.1080
  187loPI   C1B 2989   5.702   0.626   9.322  0.1121 -0.3790  0.3526
  187loPI   C2B 2990   5.671   0.621   8.834 -0.0910 -0.1183  0.3043
  187loPI   C3B 2991   5.684   0.611   8.371 -0.0190  0.1428  0.0307
  187loPI   C4B 2992   5.558   0.624   8.063  0.0007 -0.0802 -0.1834
  188loPI    C1 2993   4.904  17.718  10.767  0.0343  0.0872 -0.1195
  188loPI    C2 2994   4.595  17.710  11.020  0.0563  0.0756 -0.0930
  188loPI    C3 2995   4.896  17.967  11.080  0.1853 -0.1032  0.0389
  188loPI   PO4 2996   4.900  17.480  10.628 -0.0336 -0.3579  0.2759
  188loPI   GL1 2997   4.632  17.438  10.424 -0.2085 -0.1132 -0.0981
  188loPI   GL2 2998   4.379  17.363  10.269 -0.0480  0.2496  0.4062
  188loPI   C1A 2999   4.744  17.441   9.957 -0.2048 -0.1589  0.1709
  188loPI   C2A 3000   4.620  17.442   9.519  0.0772  0.1068  0.2364
  188loPI   C3A 3001   4.392  17.525   9.170  0.1779  0.2618 -0.2683
  188loPI   C4A 3002   4.196  17.493   8.750  0.0182  0.0616 -0.0667
  188loPI   C5A 3003   4.006  17.443   8.310 -0.0146 -0.4817 -0.2143
  188loPI   C6A 3004   4.011  17.739   7.931  0.0345 -0.1745 -0.0066
  188loPI   C1B 3005   4.242  17.417   9.856  0.0515 -0.1549 -0.0443
  188loPI   C2B 3006   4.068  17.429   9.532 -0.0619 -0.0246  0.1340
  188loPI   C3B 3007   3.882  17.288   9.125  0.0637 -0.2205 -0.1273
  188loPI   C4B 3008   3.774  17.292   8.715  0.1946 -0.4060  0.3977
  189loPI    C1 3009   4.343  18.005  10.766  0.2285  0.0787  0.1487
  189loPI    C2 3010   4.068  17.818  10.989 -0.2355  0.0546 -0.4204
  189loPI    C3 3011   4.072  18.218  10.969 -0.1112  0.0616 -0.2718
  189loPI   PO4 3012   4.351  17.836  10.515 -0.2651 -0.0596 -0.0326
  189loPI   GL1 3013   4.539  17.927  10.108 -0.2919  0.0509 -0.1254
  189loPI   GL2 3014   4.762  18.090   9.961  0.2485 -0.2917  0.0127
  189loPI   C1A 3015   4.440  17.862   9.604 -0.1682 -0.1479  0.2290
  189loPI   C2A 3016   4.465  18.068   9.201 -0.2714 -0.0428 -0.0592
  189loPI   C3A 3017   4.254  17.984   8.858 -0.1204  0.1183 -0.2809
  189loPI   C4A 3018   4.259  17.934   8.414 -0.0457  0.1713  0.2470
  189loPI   C5A 3019   4.453  18.031   8.040 -0.0955 -0.0212  0.2873
  189loPI   C6A 3020   4.411  18.018   7.639 -0.3283  0.2779 -0.3048
  189loPI   C1B 3021   4.959  17.856   9.650  0.2922  0.1362 -0.2122
  189loPI   C2B 3022   4.922  17.790   9.198  0.0572 -0.3585  0.0577
  189loPI   C3B 3023   4.730  17.803   8.809  0.1365  0.1812 -0.1250
  189loPI   C4B 3024   4.716  17.960   8.452  0.0253  0.2144  0.1923
  190loPI    C1 3025  12.556   6.417  10.837  0.0609  0.1527  0.1873
  190loPI    C2 3026  12.282   6.390  10.546  0.1013 -0.5524  0.1976
  190loPI    C3 3027  12.170   6.481  10.919 -0.0048 -0.0618  0.0538
  190loPI   PO4 3028  12.777   6.504  10.655 -0.1085 -0.3696  0.2057
  190loPI   GL1 3029  12.770   6.585  10.247  0.0933  0.5282 -0.2107
  190loPI   GL2 3030  12.932   6.270  10.066  0.0557  0.0278 -0.0057
  190loPI   C1A 3031  12.813   6.672   9.756  0.3221  0.2831  0.1270
  190loPI   C2A 3032  12.891   6.768   9.377  0.1624 -0.1485  0.1506
  190loPI   C3A 3033  12.813   6.868   8.929  0.1890 -0.3031  0.4061
  190loPI   C4A 3034  12.853   6.777   8.571  0.1714  0.1260  0.2028
  190loPI   C5A 3035  12.904   6.709   8.119  0.2799 -0.0899 -0.3431
  190loPI   C6A 3036  12.845   6.778   7.703  0.1275 -0.0957  0.0349
  190loPI   C1B 3037  13.151   6.361   9.551 -0.0397  0.1100  0.0154
  190loPI   C2B 3038  13.191   6.435   9.147 -0.0529 -0.1742 -0.4387
  190loPI   C3B 3039  13.251   6.420   8.681  0.0378 -0.0497 -0.1303
  190loPI   C4B 3040  13.336   6.558   8.393  0.1690 -0.1525 -0.2533
  191loPI    C1 3041   1.043  13.196  10.753  0.2434 -0.2049 -0.1474
  191loPI    C2 3042   1.304  13.411  10.967  0.0016 -0.2009  0.1494
  191loPI    C3 3043   0.969  13.273  11.138 -0.2121 -0.1733 -0.2355
  191loPI   PO4 3044   1.149  13.253  10.532 -0.1297  0.0787 -0.1912
  191loPI   GL1 3045   1.444  13.271  10.178 -0.0454 -0.1598 -0.0191
  191loPI   GL2 3046   1.661  13.098   9.987  0.1376 -0.1899  0.1718
  191loPI   C1A 3047   1.225  13.441   9.763 -0.0904  0.2049  0.0252
  191loPI   C2A 3048   1.347  13.523   9.309  0.0094 -0.3060 -0.1702
  191loPI   C3A 3049   1.342  13.529   8.878  0.0667 -0.1011 -0.3070
  191loPI   C4A 3050   1.358  13.378   8.485  0.1147  0.1339 -0.0974
  191loPI   C5A 3051   1.310  13.511   8.072  0.0024 -0.0646  0.1077
  191loPI   C6A 3052   1.126  13.430   7.612 -0.0097  0.0788  0.0726
  191loPI   C1B 3053   1.733  13.237   9.514  0.0187  0.2078  0.0181
  191loPI   C2B 3054   1.771  13.241   9.026  0.1074 -0.1683  0.2250
  191loPI   C3B 3055   1.820  13.263   8.609  0.2020 -0.1048 -0.0547
  191loPI   C4B 3056   1.787  13.320   8.168  0.0009 -0.0218  0.1724
  192loPI    C1 3057  10.425   7.640  10.647 -0.0419  0.0245  0.0269
  192loPI    C2 3058  10.044   7.553  10.561 -0.0264 -0.0316  0.0146
  192loPI    C3 3059  10.130   7.790  10.871 -0.0664 -0.1078  0.0842
  192loPI   PO4 3060  10.533   7.690  10.332 -0.1032 -0.1404 -0.2514
  192loPI   GL1 3061  10.613   8.064  10.098 -0.0180 -0.0627 -0.1843
  192loPI   GL2 3062  10.956   7.935  10.095 -0.2100 -0.1607 -0.0414
  192loPI   C1A 3063  10.590   7.955   9.685 -0.1719 -0.0684 -0.0452
  192loPI   C2A 3064  10.553   8.063   9.189  0.0357 -0.3486  0.1443
  192loPI   C3A 3065  10.668   8.104   8.799 -0.1160  0.1067 -0.0521
  192loPI   C4A 3066  10.592   8.131   8.443  0.0402 -0.0198  0.1339
  192loPI   C5A 3067  10.599   8.441   8.134 -0.2532  0.3229 -0.0828
  192loPI   C6A 3068  10.745   8.817   8.152  0.0051 -0.2216  0.1687
  192loPI   C1B 3069  11.068   8.096   9.762  0.0216  0.0551 -0.2590
  192loPI   C2B 3070  11.102   8.134   9.326  0.3019  0.3178  0.4229
  192loPI   C3B 3071  11.100   8.130   8.910  0.1410  0.0014 -0.3021
  192loPI   C4B 3072  11.071   8.267   8.485 -0.0093  0.0468  0.1559
  193loPI    C1 3073   2.141  13.759  10.635 -0.0664  0.1965  0.2488
  193loPI    C2 3074   1.893  13.535  10.856 -0.1662 -0.0082 -0.0637
  193loPI    C3 3075   2.287  13.524  10.924 -0.2111  0.0725  0.2226
  193loPI   PO4 3076   2.103  13.672  10.418 -0.1321 -0.2841  0.6726
  193loPI   GL1 3077   2.016  13.547   9.999  0.0666  0.0828  0.0473
  193loPI   GL2 3078   1.701  13.649   9.964  0.1352 -0.2248  0.3075
  193loPI   C1A 3079   2.245  13.540   9.663  0.1275  0.3028  0.2357
  193loPI   C2A 3080   2.153  13.497   9.204 -0.1163  0.1467 -0.1336
  193loPI   C3A 3081   2.231  13.579   8.786  0.4746  0.3760  0.2032
  193loPI   C4A 3082   2.195  13.530   8.322 -0.0731  0.2480 -0.0416
  193loPI   C5A 3083   2.120  13.607   7.829  0.2051 -0.0654 -0.0623
  193loPI   C6A 3084   2.072  13.617   7.405 -0.5040  0.1015 -0.0213
  193loPI   C1B 3085   1.684  13.771   9.535  0.1622 -0.1930 -0.0888
  193loPI   C2B 3086   1.809  13.786   9.063 -0.5565 -0.0430 -0.1976
  193loPI   C3B 3087   1.746  13.743   8.598 -0.0084  0.0358  0.1705
  193loPI   C4B 3088   1.716  13.814   8.168 -0.1377 -0.1042  0.1126
  194loPI    C1 3089   7.510   8.321  10.389 -0.0547 -0.1617  0.0296
  194loPI    C2 3090   7.406   8.597  10.659  0.0991 -0.1254  0.0525
  194loPI    C3 3091   7.341   8.209  10.734 -0.0246 -0.1031  0.0634
  194loPI   PO4 3092   7.674   8.445  10.257 -0.0730  0.0003 -0.3187
  194loPI   GL1 3093   7.898   8.355   9.883 -0.0316 -0.2186 -0.4884
  194loPI   GL2 3094   8.009   8.532   9.679 -0.0723  0.0685 -0.0578
  194loPI   C1A 3095   7.740   8.036   9.640  0.0481  0.3078  0.0064
  194loPI   C2A 3096   7.851   7.885   9.266 -0.1712 -0.1548 -0.0846
  194loPI   C3A 3097   7.840   7.867   8.848  0.0473 -0.2952  0.1472
  194loPI   C4A 3098   7.934   8.097   8.519 -0.1579  0.0470  0.0966
  194loPI   C5A 3099   7.865   8.415   8.198  0.0605 -0.1688 -0.2173
  194loPI   C6A 3100   8.097   8.586   7.896  0.1891  0.2007 -0.3587
  194loPI   C1B 3101   7.887   8.903   9.386  0.0583 -0.1021 -0.1264
  194loPI   C2B 3102   7.540   8.977   9.152 -0.1131  0.2375 -0.1610
  194loPI   C3B 3103   7.224   8.761   8.881 -0.0889 -0.4143 -0.0919
  194loPI   C4B 3104   6.787   8.733   8.659 -0.3158 -0.1058  0.1287
  195loPI    C1 3105   6.159  18.348  10.683  0.2234  0.0912  0.0829
  195loPI    C2 3106   6.097  18.532  11.033 -0.0470  0.0341  0.0674
  195loPI    C3 3107   6.343  18.217  11.013  0.0500  0.1018  0.1854
  195loPI   PO4 3108   6.253  18.504  10.442  0.1187 -0.0147  0.0181
  195loPI   GL1 3109   6.342  18.367   9.984  0.0080  0.0736  0.1670
  195loPI   GL2 3110   6.482  18.693  10.001  0.2119  0.2077  0.5215
  195loPI   C1A 3111   6.339  18.165   9.715 -0.0210 -0.2881  0.0817
  195loPI   C2A 3112   6.296  18.335   9.268  0.0082 -0.1761  0.1453
  195loPI   C3A 3113   6.401  18.310   8.875  0.1666 -0.1138 -0.0017
  195loPI   C4A 3114   6.574  18.023   8.624 -0.1235  0.0665  0.1249
  195loPI   C5A 3115   6.486  18.002   8.193  0.0725  0.1331  0.0281
  195loPI   C6A 3116   6.562  17.589   7.940  0.1448  0.1476  0.0100
  195loPI   C1B 3117   6.524  18.713   9.518  0.1387 -0.1238  0.0175
  195loPI   C2B 3118   6.558  18.850   9.145  0.0468  0.0665 -0.2358
  195loPI   C3B 3119   6.492  18.818   8.685 -0.1541 -0.0362  0.2529
  195loPI   C4B 3120   6.536  18.427   8.355 -0.0642 -0.3015 -0.1257
  196loPI    C1 3121   6.395  17.197  10.338  0.0127  0.1318 -0.1707
  196loPI    C2 3122   6.527  17.306  10.700  0.0684  0.0276 -0.1594
  196loPI    C3 3123   6.491  17.579  10.410 -0.0098  0.1179 -0.0655
  196loPI   PO4 3124   6.625  17.041  10.267 -0.2567  0.0376  0.1744
  196loPI   GL1 3125   6.759  16.787   9.982  0.0230  0.0687  0.0213
  196loPI   GL2 3126   7.081  16.540   9.922 -0.0906  0.1584 -0.1276
  196loPI   C1A 3127   6.413  16.697   9.611  0.0383  0.0290  0.1223
  196loPI   C2A 3128   6.295  16.556   9.205 -0.1304 -0.0446  0.0929
  196loPI   C3A 3129   6.127  16.493   8.763  0.1372  0.1456  0.1387
  196loPI   C4A 3130   6.027  16.492   8.278  0.1612  0.2255  0.2439
  196loPI   C5A 3131   6.105  16.253   8.018  0.0862 -0.1994  0.0608
  196loPI   C6A 3132   6.546  16.117   7.906 -0.0738 -0.0437  0.0443
  196loPI   C1B 3133   6.861  16.404   9.543  0.3440  0.0320 -0.0527
  196loPI   C2B 3134   6.712  16.241   9.206  0.1251 -0.1836 -0.1453
  196loPI   C3B 3135   6.600  16.297   8.802  0.1221 -0.1428  0.1318
  196loPI   C4B 3136   6.463  16.354   8.364 -0.2448 -0.1571 -0.0083
  197loPI    C1 3137  13.936  10.343  10.893  0.0685  0.1559  0.0808
  197loPI    C2 3138  13.992   9.949  10.855  0.0407  0.1399  0.2018
  197loPI    C3 3139  14.256  10.170  11.060  0.1789  0.2218 -0.0604
  197loPI   PO4 3140  13.975  10.457  10.638  0.1755 -0.3231  0.1053
  197loPI   GL1 3141  13.988  10.541  10.149 -0.1408 -0.0155  0.0046
  197loPI   GL2 3142  13.937  10.742   9.939 -0.3264  0.1299 -0.1539
  197loPI   C1A 3143  14.338  10.418   9.844 -0.1074 -0.2048  0.3484
  197loPI   C2A 3144  14.345  10.550   9.439 -0.1255  0.1697  0.0700
  197loPI   C3A 3145  14.074  10.963   9.389  0.1095 -0.0915  0.0043
  197loPI   C4A 3146  14.022  11.132   8.990  0.0998 -0.2803 -0.1061
  197loPI   C5A 3147  13.904  11.062   8.552  0.1381  0.0885 -0.0281
  197loPI   C6A 3148  13.922  10.950   8.086  0.3678 -0.1582 -0.5260
  197loPI   C1B 3149  13.644  10.745   9.682 -0.4287  0.2856  0.5013
  197loPI   C2B 3150  13.494  10.885   9.317 -0.0876  0.0327  0.0274
  197loPI   C3B 3151  13.514  10.962   8.918  0.1892 -0.1657  0.0030
  197loPI   C4B 3152  13.434  11.010   8.509 -0.2289 -0.0836  0.0351
  198loPI    C1 3153  14.912   3.431  10.661 -0.1306 -0.0215 -0.0640
  198loPI    C2 3154  14.825   3.041  10.668 -0.0867 -0.0317 -0.0790
  198loPI    C3 3155  14.574   3.299  10.494 -0.1032 -0.0563 -0.0918
  198loPI   PO4 3156  15.210   3.440  10.578 -0.0815  0.2921  0.3776
  198loPI   GL1 3157  15.380   3.387  10.139  0.4192 -0.4040  0.0605
  198loPI   GL2 3158  15.614   3.675   9.882  0.0453  0.3417 -0.1000
  198loPI   C1A 3159  15.382   3.193   9.764 -0.0380 -0.2051  0.4559
  198loPI   C2A 3160  15.448   3.161   9.404  0.2673  0.0820 -0.0997
  198loPI   C3A 3161  15.388   3.092   8.940  0.1693  0.0199  0.2426
  198loPI   C4A 3162  15.427   3.223   8.546  0.1008  0.1021 -0.0355
  198loPI   C5A 3163  15.365   3.009   8.104 -0.2404  0.1488 -0.3658
  198loPI   C6A 3164  15.388   2.788   7.750 -0.0023 -0.0719  0.0099
  198loPI   C1B 3165  15.627   3.598   9.487  0.0403  0.0264  0.1905
  198loPI   C2B 3166  15.522   3.636   9.037 -0.0673  0.4745 -0.2797
  198loPI   C3B 3167  15.595   3.673   8.516 -0.1697 -0.1304  0.0332
  198loPI   C4B 3168  15.686   3.451   8.197  0.1454  0.0500  0.0884
  199loPI    C1 3169   4.503  14.274  10.753  0.2945  0.0714 -0.2128
  199loPI    C2 3170   4.306  14.622  10.772  0.2779  0.0487  0.0631
  199loPI    C3 3171   4.151  14.295  10.942  0.4389 -0.0242  0.0710
  199loPI   PO4 3172   4.599  14.257  10.446  0.0491  0.0171  0.1589
  199loPI   GL1 3173   4.496  14.393  10.027 -0.0411 -0.2658 -0.0755
  199loPI   GL2 3174   4.865  14.215  10.007 -0.0879 -0.0188  0.2190
  199loPI   C1A 3175   4.463  14.421   9.635  0.0143  0.3086 -0.3659
  199loPI   C2A 3176   4.423  14.429   9.194 -0.0084 -0.1124 -0.0155
  199loPI   C3A 3177   4.511  14.461   8.690  0.1072  0.2185  0.0297
  199loPI   C4A 3178   4.535  14.481   8.196 -0.1155  0.0170  0.4139
  199loPI   C5A 3179   4.794  14.174   7.909  0.0028  0.1317  0.0475
  199loPI   C6A 3180   5.256  14.320   7.777  0.1885 -0.1431 -0.0373
  199loPI   C1B 3181   4.882  14.191   9.598  0.2299  0.0701 -0.1615
  199loPI   C2B 3182   4.892  14.150   9.155  0.0964 -0.0895  0.3558
  199loPI   C3B 3183   4.912  14.234   8.791 -0.0996  0.1899  0.3366
  199loPI   C4B 3184   4.930  14.173   8.383  0.0888  0.0664 -0.2755
  200loPI    C1 3185   2.701   7.750   9.983  0.0094 -0.3991  0.2174
  200loPI    C2 3186   2.351   7.728  10.175 -0.0153 -0.0525  0.2173
  200loPI    C3 3187   2.607   8.023  10.259  0.1631 -0.1514  0.0286
  200loPI   PO4 3188   2.680   7.765   9.771 -0.1144 -0.2574  0.1644
  200loPI   GL1 3189   2.931   7.679   9.450  0.1623  0.0176 -0.0057
  200loPI   GL2 3190   3.016   7.950   9.351 -0.0851  0.1403 -0.2377
  200loPI   C1A 3191   3.233   7.549   9.214 -0.0594 -0.0383 -0.0005
  200loPI   C2A 3192   3.417   7.378   8.877 -0.2810 -0.1367  0.1497
  200loPI   C3A 3193   3.520   7.564   8.457 -0.1048 -0.3171  0.2175
  200loPI   C4A 3194   3.541   7.309   8.053 -0.3312  0.0212 -0.1047
  200loPI   C5A 3195   3.839   7.295   7.741 -0.0428 -0.0613  0.0447
  200loPI   C6A 3196   4.050   7.296   7.367  0.0423 -0.0214  0.0266
  200loPI   C1B 3197   2.754   7.953   9.033 -0.2299  0.1106 -0.1382
  200loPI   C2B 3198   2.673   8.060   8.697 -0.1222 -0.0432 -0.2714
  200loPI   C3B 3199   2.776   7.917   8.260  0.0045  0.1745  0.1332
  200loPI   C4B 3200   2.996   8.050   7.816 -0.2107 -0.0208 -0.2592
  201loPI    C1 3201   0.095   1.122  10.370 -0.2947  0.0354  0.0046
  201loPI    C2 3202   0.034   1.332  10.705 -0.1517 -0.0601  0.0914
  201loPI    C3 3203  -0.096   0.955  10.679 -0.3789  0.0263 -0.0521
  201loPI   PO4 3204  -0.078   1.240  10.192 -0.2697 -0.0358 -0.0935
  201loPI   GL1 3205   0.135   1.356   9.905  0.2151 -0.0419 -0.1345
  201loPI   GL2 3206   0.062   1.174   9.656  0.1320 -0.2489  0.0001
  201loPI   C1A 3207   0.270   1.581   9.519 -0.1789  0.0929  0.1250
  201loPI   C2A 3208   0.257   1.623   9.060 -0.1488  0.1448  0.0401
  201loPI   C3A 3209   0.113   1.453   8.717  0.0841 -0.0653 -0.4140
  201loPI   C4A 3210   0.182   1.161   8.322  0.1363 -0.1753 -0.1039
  201loPI   C5A 3211   0.321   0.824   8.042 -0.1157  0.3041  0.2036
  201loPI   C6A 3212   0.089   0.539   7.951  0.0213 -0.0938 -0.0067
  201loPI   C1B 3213   0.075   1.231   9.205 -0.1806 -0.0489 -0.1119
  201loPI   C2B 3214   0.197   0.972   8.844  0.1480 -0.0172  0.0969
  201loPI   C3B 3215   0.422   0.723   8.647 -0.1348 -0.0180  0.0892
  201loPI   C4B 3216   0.629   0.399   8.806 -0.0087  0.1840  0.0010
  202loPI    C1 3217  13.254  13.488  11.160  0.2311  0.1626 -0.0823
  202loPI    C2 3218  13.130  13.857  11.250  0.2483  0.1528 -0.0180
  202loPI    C3 3219  13.149  13.578  11.536 -0.3632 -0.0720 -0.1825
  202loPI   PO4 3220  13.261  13.568  10.842  0.0430 -0.0661 -0.0343
  202loPI   GL1 3221  13.205  13.294  10.466 -0.0799 -0.0377 -0.0502
  202loPI   GL2 3222  13.414  13.456  10.222  0.0956 -0.1096  0.0024
  202loPI   C1A 3223  13.096  13.068  10.062 -0.5901 -0.2078 -0.2461
  202loPI   C2A 3224  12.932  13.072   9.627 -0.0045 -0.1114  0.0031
  202loPI   C3A 3225  13.039  13.092   9.170 -0.2134 -0.0973  0.0979
  202loPI   C4A 3226  12.966  13.202   8.652 -0.3131  0.0965 -0.0590
  202loPI   C5A 3227  12.748  13.516   8.393 -0.0525 -0.1045 -0.0131
  202loPI   C6A 3228  12.726  13.731   8.032  0.0736  0.1248 -0.0401
  202loPI   C1B 3229  13.408  13.377   9.784  0.2252  0.2637  0.0205
  202loPI   C2B 3230  13.425  13.382   9.331 -0.0000 -0.1985  0.4682
  202loPI   C3B 3231  13.501  13.360   8.926  0.4171 -0.1270  0.0054
  202loPI   C4B 3232  13.490  13.303   8.521 -0.3994 -0.0081  0.0679
  203loPI    C1 3233  11.234  11.802  10.770 -0.0821 -0.1456 -0.2674
  203loPI    C2 3234  10.877  11.892  10.927 -0.0169 -0.0305 -0.1833
  203loPI    C3 3235  11.113  12.183  10.787  0.2608 -0.0494  0.2287
  203loPI   PO4 3236  11.220  11.623  10.603 -0.0448  0.1768  0.1135
  203loPI   GL1 3237  11.532  11.520  10.351  0.0358 -0.1292 -0.2175
  203loPI   GL2 3238  11.594  11.214  10.378  0.2409  0.0716  0.0307
  203loPI   C1A 3239  11.419  11.541  10.010 -0.3592  0.0859 -0.2683
  203loPI   C2A 3240  11.397  11.418   9.511  0.1958  0.3441 -0.2204
  203loPI   C3A 3241  11.317  11.447   9.161  0.0956  0.0823  0.2278
  203loPI   C4A 3242  11.198  11.275   8.827 -0.0590  0.1304  0.1505
  203loPI   C5A 3243  11.287  10.996   8.466  0.1222  0.1989  0.0609
  203loPI   C6A 3244  11.357  10.739   8.176  0.1111 -0.1582 -0.0688
  203loPI   C1B 3245  11.623  11.053   9.999  0.0884 -0.0442  0.1596
  203loPI   C2B 3246  11.854  11.039   9.609  0.3188 -0.4222 -0.0393
  203loPI   C3B 3247  12.111  11.305   9.327  0.0416  0.0118  0.2836
  203loPI   C4B 3248  12.371  11.459   8.868  0.0096  0.0334  0.1832
  204loPI    C1 3249  18.016   2.275  10.488  0.1350  0.0687  0.0045
  204loPI    C2 3250  18.410   2.215  10.462  0.0612 -0.4127 -0.1137
  204loPI    C3 3251  18.208   2.083  10.781  0.0195  0.0027  0.0378
  204loPI   PO4 3252  17.959   2.101  10.262 -0.0859 -0.2459  0.2428
  204loPI   GL1 3253  17.722   2.172   9.833  0.3193  0.3621 -0.1238
  204loPI   GL2 3254  17.965   2.106   9.588  0.0471 -0.0477 -0.1257
  204loPI   C1A 3255  17.455   2.256   9.519 -0.3780 -0.1089  0.2983
  204loPI   C2A 3256  17.207   2.527   9.329  0.1332 -0.1304  0.2011
  204loPI   C3A 3257  17.306   2.863   8.997 -0.0573  0.2170  0.2178
  204loPI   C4A 3258  17.210   2.874   8.511 -0.1296  0.0296 -0.2483
  204loPI   C5A 3259  17.173   2.954   8.172 -0.0327 -0.0139 -0.1925
  204loPI   C6A 3260  17.164   2.784   7.731  0.2566 -0.0668 -0.0025
  204loPI   C1B 3261  17.903   1.984   9.212  0.1760  0.3456 -0.0532
  204loPI   C2B 3262  17.794   1.942   8.773  0.0575 -0.0836  0.1129
  204loPI   C3B 3263  17.835   2.039   8.366 -0.0434 -0.0549  0.1509
  204loPI   C4B 3264  17.724   2.187   7.978  0.2825  0.1293  0.2048
  205loPI    C1 3265   5.777   4.372  10.312 -0.1759  0.3068  0.1586
  205loPI    C2 3266   5.904   4.737  10.414  0.3362  0.1897 -0.0270
  205loPI    C3 3267   6.034   4.417  10.615 -0.1799  0.1069  0.1930
  205loPI   PO4 3268   5.756   4.339  10.084 -0.1796  0.0379  0.2648
  205loPI   GL1 3269   5.968   4.527   9.883  0.0720  0.2328  0.0950
  205loPI   GL2 3270   5.735   4.817   9.802  0.2464  0.1991 -0.1459
  205loPI   C1A 3271   6.182   4.312   9.576 -0.1997  0.0052  0.1868
  205loPI   C2A 3272   6.089   4.275   9.048 -0.1565 -0.0280 -0.2369
  205loPI   C3A 3273   6.133   4.386   8.653 -0.4199  0.0907  0.2777
  205loPI   C4A 3274   5.984   4.306   8.169  0.0318 -0.1078 -0.0251
  205loPI   C5A 3275   5.608   4.360   8.013  0.1730 -0.2548 -0.0541
  205loPI   C6A 3276   5.207   4.532   7.877  0.0056 -0.1538  0.2229
  205loPI   C1B 3277   5.849   4.886   9.317  0.4636  0.0070 -0.2495
  205loPI   C2B 3278   5.935   4.856   8.927 -0.0701 -0.0115 -0.2269
  205loPI   C3B 3279   6.379   4.889   8.731  0.0582 -0.0670  0.2556
  205loPI   C4B 3280   6.662   4.950   8.395  0.2385 -0.2413 -0.0612
  206loPI    C1 3281   5.781  17.366  10.516 -0.1224 -0.1084 -0.1800
  206loPI    C2 3282   6.016  17.127  10.734  0.0354  0.0304 -0.1948
  206loPI    C3 3283   5.633  17.029  10.672 -0.0325  0.0242  0.2043
  206loPI   PO4 3284   5.956  17.434  10.339 -0.0028  0.0457 -0.0574
  206loPI   GL1 3285   5.960  17.421   9.937 -0.1626  0.0642 -0.2475
  206loPI   GL2 3286   5.678  17.224   9.955 -0.2574 -0.0996 -0.0401
  206loPI   C1A 3287   5.840  17.443   9.437 -0.3026 -0.0823 -0.1019
  206loPI   C2A 3288   5.711  17.210   9.007  0.1577 -0.3088  0.1201
  206loPI   C3A 3289   5.653  17.250   8.591  0.0805 -0.1248  0.1295
  206loPI   C4A 3290   5.528  17.419   8.191  0.1167  0.0367  0.0074
  206loPI   C5A 3291   5.502  17.379   7.658 -0.3083  0.0349  0.1910
  206loPI   C6A 3292   5.504  17.194   7.246 -0.0831 -0.3034  0.2635
  206loPI   C1B 3293   5.414  16.963   9.625  0.1122 -0.4011 -0.5853
  206loPI   C2B 3294   5.266  16.976   9.141 -0.2721  0.0008 -0.0672
  206loPI   C3B 3295   5.218  17.021   8.638 -0.2128 -0.2532  0.1841
  206loPI   C4B 3296   5.083  17.155   8.252 -0.0880 -0.0043  0.2438
  207loPI    C1 3297  16.703   6.848  10.307 -0.0966 -0.1577 -0.1662
  207loPI    C2 3298  16.775   6.851  10.700  0.0960  0.2862 -0.1987
  207loPI    C3 3299  16.412   6.945  10.562 -0.0515 -0.1433 -0.1201
  207loPI   PO4 3300  16.780   6.602  10.191  0.1872  0.1146  0.0864
  207loPI   GL1 3301  16.646   6.360   9.807  0.3637  0.0195 -0.0270
  207loPI   GL2 3302  16.569   6.647   9.701 -0.0347  0.1666  0.1316
  207loPI   C1A 3303  16.653   6.103   9.366  0.1442  0.2231 -0.1870
  207loPI   C2A 3304  16.537   6.071   8.926 -0.0969  0.0630 -0.0727
  207loPI   C3A 3305  16.459   6.140   8.482  0.1116  0.1619  0.0166
  207loPI   C4A 3306  16.590   6.201   8.056  0.0498  0.1330  0.0930
  207loPI   C5A 3307  16.854   6.502   7.838 -0.0208  0.1600 -0.2367
  207loPI   C6A 3308  16.823   6.927   7.649 -0.0638  0.2321 -0.0361
  207loPI   C1B 3309  16.414   6.872   9.262  0.1770 -0.2166 -0.0912
  207loPI   C2B 3310  16.359   7.027   8.888  0.1290 -0.1377 -0.2547
  207loPI   C3B 3311  16.306   6.992   8.435 -0.0338  0.1738  0.0086
  207loPI   C4B 3312  16.409   6.735   8.059  0.1836 -0.2048 -0.0103
  208loPI    C1 3313   4.937  11.176  10.465  0.2360 -0.0995 -0.1012
  208loPI    C2 3314   4.722  10.841  10.495 -0.2009  0.1889  0.0886
  208loPI    C3 3315   5.030  10.903  10.742 -0.0782 -0.0964  0.0110
  208loPI   PO4 3316   4.794  11.194  10.160  0.0755 -0.2357 -0.0424
  208loPI   GL1 3317   4.496  11.543  10.028  0.0746 -0.0052 -0.0158
  208loPI   GL2 3318   4.195  11.408   9.936  0.0671 -0.0592 -0.1383
  208loPI   C1A 3319   4.800  11.666   9.725  0.2280 -0.2038 -0.0055
  208loPI   C2A 3320   5.003  11.610   9.357 -0.1041 -0.0478  0.0217
  208loPI   C3A 3321   4.986  11.530   8.911 -0.1463  0.0776  0.1015
  208loPI   C4A 3322   4.969  11.480   8.524 -0.0899 -0.0243  0.2722
  208loPI   C5A 3323   4.935  11.610   8.154 -0.1171  0.3876 -0.0184
  208loPI   C6A 3324   5.068  11.692   7.782 -0.1218 -0.1230  0.3581
  208loPI   C1B 3325   4.320  11.570   9.526 -0.1122  0.3537 -0.1303
  208loPI   C2B 3326   4.541  11.815   9.294  0.2169 -0.3690 -0.0522
  208loPI   C3B 3327   4.510  11.715   8.852 -0.1751  0.1609 -0.2339
  208loPI   C4B 3328   4.515  11.806   8.409  0.3346 -0.0206  0.3481
  209loPI    C1 3329  17.385   2.320  10.479 -0.0637  0.0865  0.0666
  209loPI    C2 3330  17.036   2.235  10.654 -0.0169  0.0781  0.1567
  209loPI    C3 3331  17.288   2.495  10.825  0.0195  0.0869  0.0900
  209loPI   PO4 3332  17.385   2.227  10.319 -0.0590  0.1614  0.3753
  209loPI   GL1 3333  17.153   2.037  10.085  0.3255 -0.0070  0.1942
  209loPI   GL2 3334  17.180   1.752  10.025  0.0502 -0.2466  0.4171
  209loPI   C1A 3335  16.950   1.931   9.607  0.1930 -0.1227 -0.3459
  209loPI   C2A 3336  16.768   1.656   9.344 -0.2470 -0.0570  0.0266
  209loPI   C3A 3337  16.840   1.627   8.931  0.1991 -0.1311  0.0596
  209loPI   C4A 3338  16.956   1.633   8.579  0.4157 -0.5526 -0.2455
  209loPI   C5A 3339  17.035   1.660   8.192 -0.0006  0.0984 -0.0717
  209loPI   C6A 3340  17.362   1.880   7.985 -0.1242  0.0210 -0.0158
  209loPI   C1B 3341  17.444   1.794   9.722  0.2719  0.0342 -0.0936
  209loPI   C2B 3342  17.367   1.843   9.353 -0.0545  0.0278 -0.3188
  209loPI   C3B 3343  17.379   1.753   8.940  0.2081  0.3117  0.0062
  209loPI   C4B 3344  17.440   1.706   8.497  0.2781  0.3466 -0.0182
  210loPI    C1 3345  12.962  17.941  10.027 -0.1785 -0.0437 -0.0387
  210loPI    C2 3346  12.754  18.173  10.277  0.1894  0.0782  0.1628
  210loPI    C3 3347  12.764  17.777  10.334 -0.1923  0.0401 -0.0025
  210loPI   PO4 3348  12.946  18.048   9.833 -0.1806 -0.2012  0.1089
  210loPI   GL1 3349  12.876  18.079   9.335 -0.0826 -0.1683 -0.1234
  210loPI   GL2 3350  12.514  18.129   9.468 -0.0354  0.1479  0.3989
  210loPI   C1A 3351  12.950  17.893   8.959 -0.4587 -0.0091 -0.3480
  210loPI   C2A 3352  12.846  17.898   8.528 -0.1918  0.3751 -0.1047
  210loPI   C3A 3353  12.506  17.909   8.308 -0.1587  0.0573  0.2726
  210loPI   C4A 3354  12.141  18.059   8.012 -0.2033 -0.4666 -0.2288
  210loPI   C5A 3355  11.764  18.305   8.072  0.0097  0.0145 -0.0923
  210loPI   C6A 3356  11.474  17.997   8.246  0.0578 -0.1492  0.2009
  210loPI   C1B 3357  12.520  18.152   8.880  0.1012 -0.1015  0.0584
  210loPI   C2B 3358  12.567  18.343   8.469  0.1976  0.1726 -0.4272
  210loPI   C3B 3359  12.525  18.336   8.044 -0.0140 -0.0105  0.4542
  210loPI   C4B 3360  12.451  18.377   7.603  0.3001 -0.0311  0.0317
  211loPI    C1 3361   2.927  17.596  10.408 -0.1614 -0.0148  0.2008
  211loPI    C2 3362   2.843  17.483  10.782  0.1678 -0.0630  0.2633
  211loPI    C3 3363   3.049  17.819  10.717 -0.0429  0.0398  0.1154
  211loPI   PO4 3364   2.999  17.420  10.294  0.4036  0.2794  0.1755
  211loPI   GL1 3365   2.805  17.220  10.044  0.1811 -0.1385 -0.0447
  211loPI   GL2 3366   2.574  17.144  10.057  0.1313 -0.0398 -0.0436
  211loPI   C1A 3367   2.964  17.300   9.663  0.0534 -0.1696 -0.0835
  211loPI   C2A 3368   3.008  17.276   9.209 -0.0698 -0.0637  0.0008
  211loPI   C3A 3369   3.005  17.356   8.798 -0.0017  0.0437 -0.0142
  211loPI   C4A 3370   3.010  17.380   8.329  0.1624  0.0987  0.2333
  211loPI   C5A 3371   2.956  17.582   7.901  0.4684  0.1259 -0.1493
  211loPI   C6A 3372   2.763  17.918   7.713 -0.1724 -0.0737  0.1004
  211loPI   C1B 3373   2.418  16.940   9.664 -0.0868  0.0697  0.0816
  211loPI   C2B 3374   2.494  17.114   9.286  0.1891 -0.0216  0.2352
  211loPI   C3B 3375   2.564  16.996   8.933 -0.3308  0.2136  0.0120
  211loPI   C4B 3376   2.641  17.064   8.514  0.2231  0.1563  0.1315
  212loPI    C1 3377   6.421  14.682  10.770 -0.1722 -0.0835 -0.1321
  212loPI    C2 3378   6.128  14.700  11.043 -0.0230  0.0077  0.0244
  212loPI    C3 3379   6.460  14.490  11.119 -0.1041 -0.2109 -0.2089
  212loPI   PO4 3380   6.306  14.797  10.544 -0.0047  0.0296  0.0131
  212loPI   GL1 3381   5.998  14.893  10.172  0.3103 -0.1190  0.0620
  212loPI   GL2 3382   6.187  15.141  10.201 -0.0799 -0.0941  0.2642
  212loPI   C1A 3383   5.834  14.766   9.752  0.5901 -0.0327 -0.4634
  212loPI   C2A 3384   5.803  14.699   9.313 -0.1376 -0.0837  0.0773
  212loPI   C3A 3385   5.756  14.637   8.879  0.0391 -0.0759  0.3726
  212loPI   C4A 3386   5.780  14.651   8.436 -0.1042 -0.0331  0.0841
  212loPI   C5A 3387   6.015  14.874   8.083  0.0012 -0.0786  0.0848
  212loPI   C6A 3388   6.403  14.828   7.997  0.2092  0.0021 -0.1226
  212loPI   C1B 3389   6.270  14.959   9.708  0.0421  0.1638 -0.1931
  212loPI   C2B 3390   6.275  14.954   9.323 -0.2930 -0.0893 -0.4088
  212loPI   C3B 3391   6.236  14.953   8.900  0.0273  0.1525 -0.0980
  212loPI   C4B 3392   6.264  14.922   8.478  0.1593 -0.1558 -0.1905
  213loPI    C1 3393  12.983   4.613  10.264  0.2125  0.0244 -0.0742
  213loPI    C2 3394  13.054   4.221  10.223 -0.1219 -0.0382 -0.0808
  213loPI    C3 3395  13.217   4.423  10.528 -0.0415 -0.2065 -0.0110
  213loPI   PO4 3396  12.956   4.713  10.017 -0.1399 -0.2498 -0.0696
  213loPI   GL1 3397  13.100   4.561   9.560  0.2194 -0.0555  0.0231
  213loPI   GL2 3398  12.822   4.702   9.528  0.3146  0.1629  0.1108
  213loPI   C1A 3399  13.063   4.499   9.124  0.1789 -0.0720  0.2734
  213loPI   C2A 3400  13.139   4.524   8.706 -0.0426 -0.1061  0.0606
  213loPI   C3A 3401  13.148   4.564   8.276 -0.0206  0.0898  0.2265
  213loPI   C4A 3402  13.219   4.812   7.811 -0.0711  0.1392  0.0352
  213loPI   C5A 3403  13.192   4.949   7.309 -0.0338  0.0995  0.2777
  213loPI   C6A 3404  13.024   4.811   6.893 -0.0241  0.2004  0.3035
  213loPI   C1B 3405  12.818   4.899   9.036 -0.0729 -0.0982 -0.0303
  213loPI   C2B 3406  12.870   4.939   8.587 -0.1001 -0.0100 -0.2681
  213loPI   C3B 3407  12.817   5.004   8.104 -0.0486 -0.1350 -0.1752
  213loPI   C4B 3408  12.980   5.264   7.729  0.2107  0.0187 -0.1141
  214loPI    C1 3409   3.418   9.085   9.850 -0.0064 -0.2893 -0.0893
  214loPI    C2 3410   3.176   8.968  10.146 -0.0029  0.0346  0.0455
  214loPI    C3 3411   3.552   9.077  10.227 -0.0037  0.1304 -0.0770
  214loPI   PO4 3412   3.245   9.274   9.737  0.2895 -0.0147 -0.2115
  214loPI   GL1 3413   3.045   9.088   9.370 -0.1606 -0.2467 -0.0027
  214loPI   GL2 3414   2.740   8.917   9.444  0.3080 -0.1392  0.0740
  214loPI   C1A 3415   3.317   9.230   9.080 -0.0677 -0.0379 -0.1108
  214loPI   C2A 3416   3.336   9.340   8.618 -0.3168  0.1420 -0.1406
  214loPI   C3A 3417   3.180   9.300   8.119  0.1484  0.3734  0.0355
  214loPI   C4A 3418   2.921   9.353   7.758 -0.0246 -0.0290  0.0529
  214loPI   C5A 3419   2.803   9.035   7.428 -0.0223 -0.2249 -0.1678
  214loPI   C6A 3420   2.522   9.082   7.153  0.0319 -0.0293  0.1361
  214loPI   C1B 3421   2.458   8.869   9.048 -0.1094  0.0896 -0.1453
  214loPI   C2B 3422   2.367   9.100   8.723  0.2240 -0.2496 -0.2019
  214loPI   C3B 3423   2.319   9.359   8.460  0.0272  0.0462 -0.3393
  214loPI   C4B 3424   2.555   9.390   8.100  0.0174  0.1332  0.3403
  215loPI    C1 3425   1.457   0.266  10.377  0.0291 -0.0333  0.0410
  215loPI    C2 3426   1.113   0.317  10.180 -0.0327  0.0304  0.1645
  215loPI    C3 3427   1.291   0.629  10.355  0.1759  0.0296 -0.0424
  215loPI   PO4 3428   1.624   0.212  10.149 -0.0292  0.0395  0.0533
  215loPI   GL1 3429   1.538   0.347   9.728  0.1745 -0.2268  0.3853
  215loPI   GL2 3430   1.289   0.190   9.717 -0.1284 -0.0811  0.1410
  215loPI   C1A 3431   1.745   0.465   9.347  0.0930  0.3470  0.3742
  215loPI   C2A 3432   1.762   0.496   8.931 -0.0342  0.2999 -0.1753
  215loPI   C3A 3433   1.625   0.545   8.531  0.2108  0.0191  0.1177
  215loPI   C4A 3434   1.873   0.701   8.096 -0.1488  0.1642  0.0538
  215loPI   C5A 3435   2.042   0.777   7.775  0.1784  0.1151  0.1258
  215loPI   C6A 3436   1.812   0.945   7.411 -0.0519  0.2544  0.1115
  215loPI   C1B 3437   1.209   0.374   9.268  0.0236 -0.1991 -0.3864
  215loPI   C2B 3438   1.237   0.437   8.885 -0.3582  0.3905 -0.0024
  215loPI   C3B 3439   1.013   0.290   8.487 -0.2043  0.2532  0.2574
  215loPI   C4B 3440   0.965   0.065   8.042 -0.1061 -0.0598  0.2045
  216loPI    C1 3441  11.162   8.444  11.106  0.0531  0.0875  0.3536
  216loPI    C2 3442  11.530   8.528  10.974 -0.0235  0.1132  0.1527
  216loPI    C3 3443  11.466   8.199  11.192  0.0206 -0.1991 -0.2933
  216loPI   PO4 3444  10.978   8.472  10.834  0.0304 -0.2502 -0.0633
  216loPI   GL1 3445  10.859   8.715  10.387  0.0829  0.0956  0.1576
  216loPI   GL2 3446  10.497   8.856  10.217 -0.3546  0.1513 -0.2981
  216loPI   C1A 3447  10.770   8.498   9.955  0.1370  0.2715  0.2474
  216loPI   C2A 3448  10.698   8.399   9.538  0.1537 -0.2873 -0.1296
  216loPI   C3A 3449  10.708   8.554   9.163  0.2808 -0.0227 -0.1239
  216loPI   C4A 3450  10.720   8.559   8.714 -0.2599 -0.3629  0.3773
  216loPI   C5A 3451  10.361   8.929   8.530  0.0495  0.3298  0.0292
  216loPI   C6A 3452  10.267   8.901   8.164 -0.0957  0.0527  0.0504
  216loPI   C1B 3453  10.455   8.861   9.861 -0.0184  0.0477  0.1991
  216loPI   C2B 3454  10.499   8.982   9.405  0.2198 -0.3381  0.0878
  216loPI   C3B 3455  10.499   8.993   8.987 -0.0860  0.0450  0.2442
  216loPI   C4B 3456  10.431   9.353   8.767 -0.0805 -0.2177 -0.2607
  217loPI    C1 3457  11.095  15.099  10.818  0.2716  0.0325  0.0176
  217loPI    C2 3458  11.050  14.716  10.924  0.3563 -0.0558 -0.2582
  217loPI    C3 3459  10.987  15.006  11.192 -0.0143 -0.2481 -0.1298
  217loPI   PO4 3460  11.017  15.076  10.568 -0.1773  0.2896  0.1006
  217loPI   GL1 3461  11.307  15.000  10.230 -0.1621  0.1067  0.3004
  217loPI   GL2 3462  11.568  14.932  10.108 -0.3228  0.0546  0.0912
  217loPI   C1A 3463  11.111  15.131   9.862 -0.0289  0.4245  0.0727
  217loPI   C2A 3464  10.749  15.129   9.640 -0.6086  0.1745 -0.3857
  217loPI   C3A 3465  10.540  15.333   9.389  0.2462  0.0249  0.0955
  217loPI   C4A 3466  10.492  15.712   9.242  0.0583  0.2524  0.0922
  217loPI   C5A 3467  10.252  15.919   8.902 -0.1218  0.1248  0.0341
  217loPI   C6A 3468  10.279  15.945   8.572 -0.2087  0.1129 -0.1447
  217loPI   C1B 3469  11.577  14.913   9.626 -0.1449 -0.0124  0.0227
  217loPI   C2B 3470  11.655  14.919   9.125 -0.0307 -0.0108  0.1986
  217loPI   C3B 3471  11.503  14.885   8.738  0.2254  0.2027 -0.2336
  217loPI   C4B 3472  11.483  15.215   8.480  0.1316  0.1437  0.1427
  218loPI    C1 3473  14.646   1.223  10.204 -0.0303  0.0307 -0.1993
  218loPI    C2 3474  14.783   1.389  10.541 -0.2363 -0.2934  0.0509
  218loPI    C3 3475  14.402   1.442  10.432 -0.1453 -0.1076 -0.1883
  218loPI   PO4 3476  14.928   1.112  10.138  0.1787 -0.1047 -0.3608
  218loPI   GL1 3477  15.241   1.201   9.780  0.0488 -0.0218 -0.0123
  218loPI   GL2 3478  14.880   1.349   9.695 -0.0076  0.0051 -0.2074
  218loPI   C1A 3479  15.274   1.314   9.355  0.1666 -0.1025  0.1490
  218loPI   C2A 3480  15.228   1.376   9.000 -0.0080  0.2677  0.3562
  218loPI   C3A 3481  15.289   1.319   8.578  0.1930 -0.0989  0.0510
  218loPI   C4A 3482  15.374   1.288   8.091  0.0974 -0.0492  0.0758
  218loPI   C5A 3483  15.486   0.912   7.900  0.0240  0.1650 -0.0890
  218loPI   C6A 3484  15.199   0.618   7.907 -0.0085  0.1080 -0.2376
  218loPI   C1B 3485  14.762   1.210   9.294 -0.0035 -0.3803 -0.2747
  218loPI   C2B 3486  14.795   1.193   8.833 -0.1592  0.0476 -0.1549
  218loPI   C3B 3487  14.790   1.250   8.448 -0.2345  0.0549 -0.0794
  218loPI   C4B 3488  14.866   1.004   7.973 -0.1642  0.1153  0.2200
  219loPI    C1 3489  11.637   2.721  10.097  0.0202 -0.1391  0.0981
  219loPI    C2 3490  11.848   2.709  10.437 -0.2720 -0.2020  0.2804
  219loPI    C3 3491  11.495   2.521  10.413 -0.3320 -0.0589 -0.0046
  219loPI   PO4 3492  11.803   2.690   9.888  0.0466 -0.1001 -0.0743
  219loPI   GL1 3493  12.164   2.427   9.593 -0.1636 -0.1351 -0.0649
  219loPI   GL2 3494  12.502   2.478   9.649 -0.2301  0.1627 -0.0730
  219loPI   C1A 3495  12.025   2.468   9.163  0.1083  0.0702 -0.4404
  219loPI   C2A 3496  11.732   2.564   8.790  0.1137 -0.1566 -0.2424
  219loPI   C3A 3497  11.839   2.470   8.395  0.0156 -0.3537 -0.1993
  219loPI   C4A 3498  11.765   2.506   7.978 -0.3497 -0.2082  0.0052
  219loPI   C5A 3499  12.026   2.774   7.618 -0.2297  0.3379  0.2449
  219loPI   C6A 3500  12.411   2.972   7.457 -0.3288 -0.0436  0.2472
  219loPI   C1B 3501  12.665   2.502   9.214 -0.1612 -0.0047  0.0456
  219loPI   C2B 3502  12.788   2.622   8.800  0.1080 -0.0375 -0.0895
  219loPI   C3B 3503  12.968   2.666   8.414 -0.1947  0.0421 -0.2821
  219loPI   C4B 3504  13.148   2.617   7.909 -0.1199  0.3317 -0.2291
  220loPI    C1 3505   8.160  17.706  10.203  0.0771  0.0078  0.0833
  220loPI    C2 3506   7.816  17.903  10.148  0.1489  0.0783 -0.1210
  220loPI    C3 3507   8.150  18.104  10.237  0.1329  0.0072  0.1055
  220loPI   PO4 3508   8.171  17.560   9.884  0.1890 -0.1237  0.0914
  220loPI   GL1 3509   7.973  17.089   9.687 -0.0642 -0.2345  0.1239
  220loPI   GL2 3510   8.330  17.061   9.649  0.0355 -0.0910  0.2764
  220loPI   C1A 3511   7.713  16.971   9.355  0.2672  0.1630  0.0219
  220loPI   C2A 3512   7.669  16.698   9.120 -0.3179  0.0785 -0.0368
  220loPI   C3A 3513   7.638  16.720   8.636  0.2556 -0.0940 -0.1412
  220loPI   C4A 3514   7.411  16.839   8.255  0.1138 -0.0864 -0.1518
  220loPI   C5A 3515   7.613  17.031   7.933 -0.3694  0.2563 -0.0430
  220loPI   C6A 3516   7.908  17.085   7.626  0.1839 -0.0435  0.4304
  220loPI   C1B 3517   8.393  17.045   9.200 -0.2994  0.2728  0.0664
  220loPI   C2B 3518   8.086  16.954   8.837  0.2388  0.0709 -0.1334
  220loPI   C3B 3519   8.110  16.731   8.480 -0.1645 -0.1437 -0.0744
  220loPI   C4B 3520   7.949  16.634   8.051 -0.3392 -0.2287 -0.0507
  221loPI    C1 3521  14.780   6.992  10.539 -0.2599  0.1227  0.0931
  221loPI    C2 3522  14.469   6.976  10.789 -0.1463 -0.0139  0.2283
  221loPI    C3 3523  14.833   6.871  10.916 -0.1618 -0.5133 -0.1118
  221loPI   PO4 3524  14.745   6.886  10.379  0.0346 -0.5835 -0.0542
  221loPI   GL1 3525  14.734   6.953   9.946  0.1188 -0.0903  0.0523
  221loPI   GL2 3526  14.947   6.948   9.774  0.0863  0.1268  0.1445
  221loPI   C1A 3527  14.528   6.597   9.822  0.2318 -0.0359 -0.0524
  221loPI   C2A 3528  14.475   6.284   9.498 -0.2746 -0.1106 -0.1716
  221loPI   C3A 3529  14.618   6.202   9.123  0.4220  0.1062  0.4016
  221loPI   C4A 3530  14.744   6.297   8.683 -0.0043  0.0911 -0.0681
  221loPI   C5A 3531  14.588   6.266   8.204 -0.1816 -0.1048  0.0708
  221loPI   C6A 3532  14.398   6.313   7.760 -0.0716  0.2535 -0.2748
  221loPI   C1B 3533  14.876   6.805   9.413  0.2277  0.0082  0.2171
  221loPI   C2B 3534  14.765   6.695   9.092 -0.0858  0.0623 -0.0637
  221loPI   C3B 3535  14.790   6.764   8.687 -0.0422  0.1848  0.3265
  221loPI   C4B 3536  14.829   6.708   8.347 -0.0940 -0.0391 -0.0199
  222loPI    C1 3537  10.610  12.979  11.115  0.2388  0.3377 -0.0094
  222loPI    C2 3538  10.622  13.202  11.447 -0.1822  0.2618  0.0620
  222loPI    C3 3539  10.693  12.809  11.468  0.0193  0.2952  0.0234
  222loPI   PO4 3540  10.694  13.235  10.952  0.0426 -0.1757 -0.2106
  222loPI   GL1 3541  10.823  13.398  10.519 -0.0627 -0.0934  0.0851
  222loPI   GL2 3542  10.903  13.105  10.479 -0.2891 -0.2235  0.0433
  222loPI   C1A 3543  10.911  13.648  10.105  0.1593 -0.0680 -0.2902
  222loPI   C2A 3544  10.956  13.621   9.652 -0.1453  0.1496  0.1787
  222loPI   C3A 3545  10.936  13.746   9.218  0.0339 -0.1095  0.3845
  222loPI   C4A 3546  10.958  13.625   8.879  0.1461 -0.0159  0.2930
  222loPI   C5A 3547  10.974  13.614   8.449 -0.1208  0.1528  0.0002
  222loPI   C6A 3548  10.940  14.055   8.187  0.0166  0.0584  0.0191
  222loPI   C1B 3549  11.024  13.173  10.024 -0.2259  0.2787  0.1343
  222loPI   C2B 3550  11.297  13.207   9.628  0.0990 -0.1282 -0.0825
  222loPI   C3B 3551  11.347  13.425   9.247 -0.0603 -0.0321 -0.0129
  222loPI   C4B 3552  11.451  13.768   8.796  0.0449 -0.2677  0.4264
  223loPI    C1 3553   6.806   2.512  10.250 -0.2032  0.2698  0.1648
  223loPI    C2 3554   6.747   2.438   9.862  0.0572  0.0932  0.1562
  223loPI    C3 3555   6.441   2.414  10.118 -0.0178 -0.2868  0.0375
  223loPI   PO4 3556   6.969   2.704  10.188 -0.2773 -0.1519 -0.3026
  223loPI   GL1 3557   7.106   2.770   9.787  0.3308  0.0070 -0.0209
  223loPI   GL2 3558   6.932   3.059   9.649  0.3248 -0.2273 -0.3675
  223loPI   C1A 3559   7.095   2.547   9.436  0.0284 -0.2300  0.0772
  223loPI   C2A 3560   7.250   2.334   9.087 -0.0854 -0.1438  0.4764
  223loPI   C3A 3561   7.437   2.339   8.740  0.0422  0.0927 -0.0250
  223loPI   C4A 3562   7.821   2.467   8.589 -0.0951 -0.0801 -0.0416
  223loPI   C5A 3563   8.305   2.462   8.339 -0.0621  0.1422  0.2258
  223loPI   C6A 3564   8.672   2.557   8.423  0.2164  0.1943 -0.0848
  223loPI   C1B 3565   6.889   3.007   9.183 -0.0350  0.1119  0.0991
  223loPI   C2B 3566   7.077   2.713   8.850  0.4411 -0.1644 -0.0116
  223loPI   C3B 3567   7.161   2.529   8.360 -0.0155  0.0163  0.0390
  223loPI   C4B 3568   7.135   2.410   7.993  0.1413  0.0964 -0.1031
  224loPI    C1 3569  12.635   0.322   9.810 -0.2038 -0.0679 -0.0947
  224loPI    C2 3570  12.624  -0.076   9.846  0.1916 -0.0946 -0.2200
  224loPI    C3 3571  12.861   0.140  10.084 -0.0148  0.0683 -0.1584
  224loPI   PO4 3572  12.681   0.421   9.632 -0.2008  0.1751  0.1644
  224loPI   GL1 3573  12.841   0.707   9.451 -0.1625 -0.3546  0.0158
  224loPI   GL2 3574  13.093   0.468   9.343  0.0805  0.0531  0.0888
  224loPI   C1A 3575  12.913   0.755   9.015  0.2513  0.2360 -0.1699
  224loPI   C2A 3576  12.791   0.801   8.596  0.2499 -0.0642 -0.0071
  224loPI   C3A 3577  12.797   0.823   8.132  0.2552 -0.3167 -0.4296
  224loPI   C4A 3578  12.798   0.751   7.554  0.0864  0.0301  0.2006
  224loPI   C5A 3579  13.247   0.834   7.424  0.0693 -0.1148  0.3041
  224loPI   C6A 3580  13.628   0.712   7.407  0.1580  0.1762  0.0202
  224loPI   C1B 3581  13.295   0.384   8.979  0.1406  0.0943 -0.1200
  224loPI   C2B 3582  13.082   0.316   8.586 -0.1145 -0.0217  0.0584
  224loPI   C3B 3583  13.185   0.409   8.086  0.0540 -0.0726 -0.1474
  224loPI   C4B 3584  13.124   0.405   7.628  0.2223  0.2064 -0.0296
  225loPI    C1 3585   0.707   8.144  10.213  0.1744  0.0256 -0.0565
  225loPI    C2 3586   0.910   7.953   9.926  0.0334 -0.2728  0.0391
  225loPI    C3 3587   0.860   7.782  10.284 -0.0750 -0.0446  0.1350
  225loPI   PO4 3588   0.615   8.319  10.122  0.1496 -0.0965 -0.0229
  225loPI   GL1 3589   0.397   8.555   9.807 -0.0075  0.3224  0.1439
  225loPI   GL2 3590   0.407   8.221   9.679 -0.2453  0.0183  0.2890
  225loPI   C1A 3591   0.536   8.696   9.446  0.1982 -0.0463  0.0695
  225loPI   C2A 3592   0.431   8.588   9.010 -0.2373  0.5315  0.0799
  225loPI   C3A 3593   0.691   8.527   8.668 -0.1163 -0.0171 -0.0001
  225loPI   C4A 3594   0.874   8.819   8.298 -0.0114 -0.1950  0.2045
  225loPI   C5A 3595   0.977   8.915   7.939 -0.1538 -0.0283  0.3054
  225loPI   C6A 3596   0.789   8.813   7.525  0.2161  0.1218 -0.1271
  225loPI   C1B 3597   0.266   8.231   9.258 -0.3267  0.0312 -0.1462
  225loPI   C2B 3598   0.333   8.126   8.781  0.2018  0.0883  0.0047
  225loPI   C3B 3599   0.455   8.095   8.257 -0.1122 -0.2521  0.2044
  225loPI   C4B 3600   0.545   8.004   7.829  0.0372 -0.0786  0.0265
  226loPI    C1 3601  13.258   6.143  10.652  0.3091 -0.0662  0.0009
  226loPI    C2 3602  13.194   5.824  10.420  0.0025 -0.0415  0.0472
  226loPI    C3 3603  13.280   5.775  10.807  0.1146 -0.0715  0.0188
  226loPI   PO4 3604  13.266   6.420  10.455  0.2667 -0.0893 -0.0673
  226loPI   GL1 3605  13.438   6.687  10.154 -0.1794  0.1744  0.0295
  226loPI   GL2 3606  13.247   6.763   9.942 -0.3080  0.1098  0.0486
  226loPI   C1A 3607  13.609   6.465   9.725 -0.0527  0.0412  0.2329
  226loPI   C2A 3608  13.668   6.460   9.310  0.0669 -0.4238  0.2691
  226loPI   C3A 3609  13.703   6.448   8.912 -0.0289  0.0545  0.0705
  226loPI   C4A 3610  13.880   6.499   8.489  0.0287 -0.3063  0.0021
  226loPI   C5A 3611  14.094   6.569   8.078 -0.0643  0.1381 -0.3379
  226loPI   C6A 3612  14.456   6.722   8.028 -0.1175  0.1053  0.0588
  226loPI   C1B 3613  13.375   6.843   9.543  0.1061 -0.1103 -0.1687
  226loPI   C2B 3614  13.410   6.866   9.065 -0.2732  0.1987  0.3610
  226loPI   C3B 3615  13.574   6.909   8.676  0.0305  0.0770 -0.0637
  226loPI   C4B 3616  13.638   6.842   8.141 -0.2465  0.3033 -0.0858
  227loPI    C1 3617   0.736   2.195  10.212  0.5331 -0.0499 -0.0299
  227loPI    C2 3618   0.538   2.095  10.545  0.0598  0.0480 -0.2733
  227loPI    C3 3619   0.888   2.287  10.571 -0.0012  0.1105  0.1653
  227loPI   PO4 3620   0.751   1.956  10.106 -0.0447  0.2204  0.1464
  227loPI   GL1 3621   0.470   1.910   9.806 -0.1461  0.1096 -0.3346
  227loPI   GL2 3622   0.512   2.063   9.667  0.0163  0.1537 -0.3584
  227loPI   C1A 3623   0.782   1.652   9.453 -0.1317 -0.4508 -0.2670
  227loPI   C2A 3624   0.798   1.714   8.912 -0.0572  0.0730 -0.2633
  227loPI   C3A 3625   0.775   1.775   8.441  0.2051 -0.1304  0.0703
  227loPI   C4A 3626   0.597   1.574   8.053 -0.2928 -0.3090  0.0854
  227loPI   C5A 3627   0.266   1.391   7.842 -0.1668  0.1450 -0.0042
  227loPI   C6A 3628  -0.100   1.065   7.850 -0.0481 -0.1877 -0.0090
  227loPI   C1B 3629   0.485   2.079   9.196 -0.3904  0.2040  0.0192
  227loPI   C2B 3630   0.369   1.981   8.720 -0.1406 -0.0268 -0.0518
  227loPI   C3B 3631   0.491   2.124   8.224  0.0450 -0.1023 -0.0256
  227loPI   C4B 3632   0.273   2.007   7.838  0.1004  0.0349 -0.0442
  228loPI    C1 3633   4.168   2.579  10.620  0.1268 -0.3041 -0.0450
  228loPI    C2 3634   4.374   2.744  10.921  0.0341 -0.2363 -0.0183
  228loPI    C3 3635   4.067   2.500  10.999 -0.1777  0.0139 -0.0552
  228loPI   PO4 3636   4.375   2.543  10.443  0.1868  0.2865  0.1401
  228loPI   GL1 3637   4.253   2.626  10.072 -0.2023 -0.1345  0.0947
  228loPI   GL2 3638   4.559   2.440   9.935 -0.0882  0.1141  0.1396
  228loPI   C1A 3639   4.148   2.682   9.594  0.0887 -0.2234 -0.4091
  228loPI   C2A 3640   4.076   2.622   9.145  0.0644 -0.4255 -0.0369
  228loPI   C3A 3641   4.081   2.590   8.732  0.4409 -0.2101 -0.3435
  228loPI   C4A 3642   3.897   2.615   8.429  0.2267  0.2024 -0.3403
  228loPI   C5A 3643   3.889   2.755   8.013  0.1022  0.4603  0.1611
  228loPI   C6A 3644   4.201   2.775   7.612 -0.2364 -0.2468 -0.1502
  228loPI   C1B 3645   4.425   2.259   9.585  0.0193 -0.3086 -0.0887
  228loPI   C2B 3646   4.396   2.099   9.184  0.1380  0.0602  0.0918
  228loPI   C3B 3647   4.393   2.196   8.763  0.0290  0.0955  0.2151
  228loPI   C4B 3648   4.208   2.178   8.398 -0.1522 -0.0326  0.4422
  229loPI    C1 3649   2.593  15.679  10.768 -0.1844  0.1062 -0.0569
  229loPI    C2 3650   2.830  15.999  10.731  0.1711 -0.1659 -0.1882
  229loPI    C3 3651   2.541  15.995  11.008  0.1870  0.2497 -0.1594
  229loPI   PO4 3652   2.556  15.667  10.498 -0.1686  0.0932 -0.0013
  229loPI   GL1 3653   2.637  15.434  10.112  0.0669  0.1125 -0.0619
  229loPI   GL2 3654   2.544  15.182   9.839  0.2062  0.0821 -0.1837
  229loPI   C1A 3655   2.934  15.713   9.892  0.0676  0.1955  0.1333
  229loPI   C2A 3656   3.004  15.767   9.541 -0.2553  0.0517 -0.1504
  229loPI   C3A 3657   3.030  15.653   9.248  0.0935  0.3471  0.1969
  229loPI   C4A 3658   3.014  15.626   8.824 -0.0806 -0.1018  0.0014
  229loPI   C5A 3659   3.111  15.740   8.394 -0.0132  0.2858  0.1451
  229loPI   C6A 3660   3.152  15.868   7.890 -0.1683  0.1850 -0.0551
  229loPI   C1B 3661   2.512  15.478   9.574 -0.0545  0.0128  0.1076
  229loPI   C2B 3662   2.440  15.363   9.161 -0.2069  0.1984 -0.1513
  229loPI   C3B 3663   2.567  15.307   8.742 -0.0362 -0.3035 -0.1582
  229loPI   C4B 3664   2.599  15.382   8.263  0.1142  0.0921  0.1203
  230loPI    C1 3665  16.667  12.656  10.815 -0.0445  0.1987  0.2033
  230loPI    C2 3666  16.723  12.459  11.158  0.1749 -0.2558 -0.0841
  230loPI    C3 3667  17.007  12.705  11.019  0.0894 -0.0779  0.0517
  230loPI   PO4 3668  16.568  12.494  10.640  0.3891 -0.0108 -0.1998
  230loPI   GL1 3669  16.516  12.360  10.240  0.0275 -0.1459 -0.3997
  230loPI   GL2 3670  16.668  12.062  10.127 -0.2738 -0.0250  0.2015
  230loPI   C1A 3671  16.362  12.461   9.911  0.3456 -0.0776 -0.2514
  230loPI   C2A 3672  16.411  12.392   9.512  0.0406 -0.0413 -0.1857
  230loPI   C3A 3673  16.453  12.182   9.211  0.1405 -0.1031  0.0115
  230loPI   C4A 3674  16.516  12.179   8.725 -0.0154 -0.2368 -0.1136
  230loPI   C5A 3675  16.453  12.335   8.247  0.0050  0.3046 -0.3927
  230loPI   C6A 3676  16.645  12.772   8.256  0.1378  0.0558  0.3619
  230loPI   C1B 3677  16.578  12.003   9.686 -0.1058  0.0971 -0.1826
  230loPI   C2B 3678  16.356  11.705   9.312 -0.1745 -0.0143  0.2217
  230loPI   C3B 3679  16.437  11.318   9.079  0.3180 -0.1842  0.0255
  230loPI   C4B 3680  16.378  11.003   8.755  0.2901  0.3528 -0.1255
  231loPI    C1 3681   1.736  15.089  10.901 -0.0235 -0.0161 -0.0504
  231loPI    C2 3682   1.359  15.082  11.035  0.0319 -0.0421  0.1071
  231loPI    C3 3683   1.623  15.339  11.192  0.0600  0.0330 -0.0597
  231loPI   PO4 3684   1.715  15.089  10.602 -0.0278 -0.0726  0.0704
  231loPI   GL1 3685   1.543  15.235  10.234  0.0832  0.1847  0.0672
  231loPI   GL2 3686   1.815  15.129  10.066 -0.0181  0.3477  0.1348
  231loPI   C1A 3687   1.453  15.321   9.788 -0.2026  0.0151  0.2262
  231loPI   C2A 3688   1.352  15.082   9.389  0.0376 -0.1841 -0.3447
  231loPI   C3A 3689   1.326  14.979   8.991 -0.3587 -0.0518 -0.0726
  231loPI   C4A 3690   1.348  15.034   8.515  0.1400  0.1427  0.0207
  231loPI   C5A 3691   1.213  15.093   8.078  0.1388 -0.3539  0.0216
  231loPI   C6A 3692   0.990  15.155   7.730  0.2693 -0.1586 -0.0528
  231loPI   C1B 3693   1.887  15.432   9.664 -0.0801  0.1020  0.0824
  231loPI   C2B 3694   1.783  15.342   9.273 -0.0137  0.0372  0.1710
  231loPI   C3B 3695   1.730  15.332   8.800  0.3058 -0.2033 -0.0389
  231loPI   C4B 3696   1.606  15.427   8.424 -0.2348  0.1407 -0.1210
  232loPI    C1 3697   3.905   3.139  10.899  0.1340  0.1852 -0.0418
  232loPI    C2 3698   4.043   2.971  11.234  0.1676  0.1487 -0.0739
  232loPI    C3 3699   3.739   3.231  11.251 -0.2129 -0.2837 -0.0723
  232loPI   PO4 3700   3.788   2.921  10.810  0.1345 -0.0737  0.0573
  232loPI   GL1 3701   3.780   2.768  10.373 -0.0750 -0.2184  0.2155
  232loPI   GL2 3702   3.862   3.015  10.169 -0.1875  0.1077 -0.0226
  232loPI   C1A 3703   3.757   2.598   9.905  0.2635  0.0544  0.2842
  232loPI   C2A 3704   3.579   2.653   9.468 -0.0446  0.0560  0.2907
  232loPI   C3A 3705   3.513   2.530   9.082  0.1814  0.1735 -0.2093
  232loPI   C4A 3706   3.467   2.548   8.570 -0.0991  0.0743 -0.0393
  232loPI   C5A 3707   3.440   2.733   8.169 -0.0940 -0.0111  0.1109
  232loPI   C6A 3708   3.241   2.958   7.782 -0.2013  0.0624 -0.1736
  232loPI   C1B 3709   3.770   3.078   9.692 -0.0377  0.2195 -0.0058
  232loPI   C2B 3710   3.788   3.079   9.221 -0.1166  0.0064  0.2259
  232loPI   C3B 3711   3.713   3.010   8.841 -0.0663  0.1178  0.1663
  232loPI   C4B 3712   3.561   3.079   8.478  0.1075 -0.2007  0.1975
  233loPI    C1 3713  11.071   0.238   9.898 -0.0423  0.0579 -0.2179
  233loPI    C2 3714  11.045  -0.152   9.984 -0.1604  0.0860 -0.1227
  233loPI    C3 3715  11.067   0.117  10.279  0.0129  0.1461 -0.1890
  233loPI   PO4 3716  10.929   0.292   9.787  0.2227 -0.0196 -0.1261
  233loPI   GL1 3717  10.827   0.324   9.449 -0.1137 -0.0633 -0.2439
  233loPI   GL2 3718  10.502   0.277   9.417  0.0623  0.0916 -0.3447
  233loPI   C1A 3719  10.993   0.463   9.060 -0.0207  0.0481  0.2566
  233loPI   C2A 3720  11.017   0.681   8.687  0.1197  0.0598  0.3316
  233loPI   C3A 3721  11.224   0.695   8.301 -0.1426  0.0781 -0.1626
  233loPI   C4A 3722  11.398   0.852   7.837 -0.1057  0.0565  0.0745
  233loPI   C5A 3723  11.161   1.189   7.591  0.1559 -0.3594 -0.3550
  233loPI   C6A 3724  11.178   1.656   7.463  0.1574 -0.2666 -0.3803
  233loPI   C1B 3725  10.217   0.019   9.041  0.0076  0.0796  0.1397
  233loPI   C2B 3726   9.845  -0.119   8.809  0.0307  0.0366  0.0072
  233loPI   C3B 3727   9.566  -0.301   8.517 -0.3303 -0.1455  0.0531
  233loPI   C4B 3728   9.323  -0.272   8.196  0.0111 -0.2968  0.0490
  234loPI    C1 3729  16.766  18.073  10.403 -0.2577 -0.0335  0.0329
  234loPI    C2 3730  16.647  17.731  10.573  0.1313 -0.1698  0.0402
  234loPI    C3 3731  16.817  18.017  10.795 -0.2266  0.0490  0.0409
  234loPI   PO4 3732  16.836  17.999  10.147  0.1153 -0.1742  0.0977
  234loPI   GL1 3733  16.841  18.128   9.779  0.1685  0.0022 -0.0766
  234loPI   GL2 3734  16.817  18.518   9.754 -0.0074  0.2180  0.1755
  234loPI   C1A 3735  16.889  18.240   9.380  0.3067  0.0441 -0.3115
  234loPI   C2A 3736  16.808  18.267   8.865 -0.4375  0.0729  0.2111
  234loPI   C3A 3737  16.828  18.309   8.434  0.0801 -0.1651  0.2898
  234loPI   C4A 3738  17.134  18.244   8.039 -0.0668  0.1025 -0.0756
  234loPI   C5A 3739  17.128  17.882   7.761  0.2575  0.0256 -0.0689
  234loPI   C6A 3740  16.917  17.518   7.812  0.0838  0.2384 -0.1485
  234loPI   C1B 3741  17.030  18.720   9.424  0.2104 -0.1699 -0.1658
  234loPI   C2B 3742  16.946  18.783   8.985  0.0997  0.2906  0.1452
  234loPI   C3B 3743  16.910  18.795   8.539  0.2149 -0.1825  0.2122
  234loPI   C4B 3744  16.647  18.865   8.190  0.1885 -0.1397  0.0305
  235loPI    C1 3745  12.634   3.842  10.354 -0.2953  0.0271 -0.1751
  235loPI    C2 3746  12.852   3.970  10.665 -0.0575  0.2175 -0.4145
  235loPI    C3 3747  12.813   3.578  10.595 -0.2278  0.1686 -0.0682
  235loPI   PO4 3748  12.679   3.845  10.166  0.2382 -0.2238 -0.1186
  235loPI   GL1 3749  12.527   3.957   9.844  0.1325 -0.1340 -0.0812
  235loPI   GL2 3750  12.696   4.229   9.687 -0.2769 -0.1448  0.0455
  235loPI   C1A 3751  12.499   3.920   9.414 -0.2579  0.1251  0.3291
  235loPI   C2A 3752  12.454   3.919   8.884 -0.0837 -0.1626  0.0687
  235loPI   C3A 3753  12.516   3.998   8.509 -0.2170 -0.1993  0.0278
  235loPI   C4A 3754  12.312   4.238   8.209 -0.0391  0.2053  0.2742
  235loPI   C5A 3755  12.241   4.405   7.786 -0.0891  0.0760  0.2574
  235loPI   C6A 3756  12.422   4.392   7.326  0.2625  0.0990  0.4889
  235loPI   C1B 3757  12.612   4.381   9.239  0.1069 -0.1701  0.0247
  235loPI   C2B 3758  12.640   4.541   8.783 -0.1953 -0.1794 -0.1905
  235loPI   C3B 3759  12.685   4.506   8.413  0.1207  0.4113  0.1333
  235loPI   C4B 3760  12.724   4.471   7.982  0.2576  0.1089  0.4319
  236loPI    C1 3761   0.023   0.146   9.992  0.0451  0.1850 -0.0076
  236loPI    C2 3762   0.259  -0.130  10.159 -0.2242 -0.1595 -0.1827
  236loPI    C3 3763   0.039   0.111  10.390  0.0651 -0.0396 -0.0269
  236loPI   PO4 3764   0.263   0.236   9.785 -0.1842  0.2531  0.0591
  236loPI   GL1 3765   0.435   0.203   9.346 -0.1860  0.4172  0.0869
  236loPI   GL2 3766   0.603  -0.070   9.563  0.1394 -0.3079  0.2982
  236loPI   C1A 3767   0.449  -0.073   8.963  0.1094  0.0090 -0.1406
  236loPI   C2A 3768   0.625  -0.124   8.502  0.1408 -0.0706  0.2992
  236loPI   C3A 3769   0.481  -0.184   8.122  0.1332 -0.1448  0.2203
  236loPI   C4A 3770   0.022  -0.049   7.947 -0.2300  0.2716  0.1555
  236loPI   C5A 3771  -0.149  -0.122   7.567 -0.1529 -0.2117  0.3735
  236loPI   C6A 3772  -0.588  -0.225   7.420 -0.1211 -0.4667 -0.2347
  236loPI   C1B 3773   0.988  -0.031   9.286  0.0195  0.1102 -0.2722
  236loPI   C2B 3774   1.080  -0.131   8.911 -0.2523 -0.0760  0.1179
  236loPI   C3B 3775   1.105  -0.245   8.484  0.1464 -0.0080  0.0195
  236loPI   C4B 3776   0.860  -0.444   8.188 -0.2445  0.4339 -0.2344
  237loPI    C1 3777   9.906  16.657  10.321 -0.1197  0.0445 -0.0180
  237loPI    C2 3778   9.806  16.456  10.653 -0.1752 -0.1099 -0.1273
  237loPI    C3 3779   9.569  16.748  10.516 -0.1038  0.0190  0.0217
  237loPI   PO4 3780  10.043  16.479  10.215  0.3248 -0.1775 -0.0337
  237loPI   GL1 3781  10.377  16.334   9.892  0.0334 -0.2025 -0.1806
  237loPI   GL2 3782  10.736  16.423   9.854 -0.0116 -0.0204  0.1654
  237loPI   C1A 3783  10.294  16.530   9.565  0.3440 -0.0080  0.1127
  237loPI   C2A 3784  10.577  16.527   9.232  0.0275 -0.1361  0.0694
  237loPI   C3A 3785  10.619  16.258   8.893  0.1531  0.2065 -0.1488
  237loPI   C4A 3786  10.687  15.808   8.760 -0.0281  0.0099  0.0323
  237loPI   C5A 3787  10.630  15.438   8.633 -0.1832  0.3119 -0.1607
  237loPI   C6A 3788  10.564  14.966   8.564  0.0356  0.0236 -0.1059
  237loPI   C1B 3789  10.735  16.144   9.587  0.2191  0.1730 -0.0861
  237loPI   C2B 3790  10.970  16.092   9.238 -0.2522 -0.3705 -0.2081
  237loPI   C3B 3791  11.149  16.099   8.843 -0.0350  0.0063  0.3313
  237loPI   C4B 3792  11.410  16.101   8.400 -0.0674  0.0538 -0.2139
  238loPI    C1 3793  10.449   1.363   9.904 -0.1687  0.0181  0.0556
  238loPI    C2 3794  10.770   1.602   9.913 -0.0589 -0.1318  0.1593
  238loPI    C3 3795  10.408   1.756   9.840  0.0569  0.0156 -0.1196
  238loPI   PO4 3796  10.548   1.207   9.732 -0.2514  0.2860 -0.1393
  238loPI   GL1 3797  10.440   0.980   9.415 -0.0164 -0.0686 -0.0106
  238loPI   GL2 3798  10.209   1.245   9.283  0.1307  0.1635  0.3247
  238loPI   C1A 3799  10.565   0.638   9.087 -0.1247 -0.3332 -0.1356
  238loPI   C2A 3800  10.453   0.412   8.800 -0.0448  0.6060 -0.1751
  238loPI   C3A 3801  10.214   0.317   8.445 -0.1203 -0.3070 -0.4148
  238loPI   C4A 3802  10.192   0.137   8.091  0.2120  0.3041  0.2734
  238loPI   C5A 3803  10.128  -0.110   7.735  0.1665 -0.1696 -0.0127
  238loPI   C6A 3804  10.278  -0.254   7.392 -0.1240 -0.0104  0.2823
  238loPI   C1B 3805  10.376   1.443   8.885 -0.1024  0.1296 -0.0505
  238loPI   C2B 3806  10.371   1.748   8.561  0.0166  0.3676 -0.0035
  238loPI   C3B 3807  10.453   1.888   8.067 -0.4150 -0.0728  0.2201
  238loPI   C4B 3808  10.396   2.174   7.712 -0.0045 -0.1359  0.1170
  239loPI    C1 3809  16.937   8.676  10.324  0.0165  0.0186  0.0032
  239loPI    C2 3810  16.992   8.566  10.704  0.2137  0.2405  0.0408
  239loPI    C3 3811  16.636   8.705  10.586 -0.0076 -0.3185  0.0173
  239loPI   PO4 3812  17.135   8.880  10.284 -0.3550 -0.0656  0.1192
  239loPI   GL1 3813  17.169   8.796   9.802  0.2866  0.1622  0.2985
  239loPI   GL2 3814  17.440   8.948   9.934  0.1905  0.1516  0.4768
  239loPI   C1A 3815  17.317   8.592   9.423  0.1096 -0.2218 -0.0986
  239loPI   C2A 3816  17.428   8.365   9.184  0.1987  0.0391 -0.0561
  239loPI   C3A 3817  17.525   8.096   8.881  0.1454 -0.2419  0.0484
  239loPI   C4A 3818  17.724   7.906   8.537 -0.0296 -0.2247  0.0684
  239loPI   C5A 3819  18.075   8.050   8.152  0.1598 -0.4778  0.1825
  239loPI   C6A 3820  18.125   8.092   7.659 -0.2884 -0.1631  0.1048
  239loPI   C1B 3821  17.611   9.023   9.474  0.4116 -0.1106 -0.0409
  239loPI   C2B 3822  17.524   8.944   9.074  0.0062  0.1528 -0.0960
  239loPI   C3B 3823  17.457   8.671   8.639 -0.0749 -0.1205 -0.1906
  239loPI   C4B 3824  17.615   8.382   8.387  0.0164 -0.0515  0.1152
  240loPI    C1 3825   7.669   3.592  10.354 -0.3215 -0.0780  0.1387
  240loPI    C2 3826   7.682   3.199  10.425  0.2585 -0.1262 -0.1744
  240loPI    C3 3827   7.856   3.454  10.679 -0.0121 -0.0778 -0.0348
  240loPI   PO4 3828   7.773   3.581  10.140  0.4007  0.1659 -0.2190
  240loPI   GL1 3829   7.552   3.572   9.729 -0.0800 -0.0351  0.0645
  240loPI   GL2 3830   7.249   3.409   9.661 -0.2891  0.0430 -0.1288
  240loPI   C1A 3831   7.699   3.390   9.355  0.1233  0.0168 -0.0667
  240loPI   C2A 3832   7.741   3.278   9.003  0.0545  0.0281  0.1865
  240loPI   C3A 3833   7.623   3.405   8.611  0.1216  0.2513  0.1176
  240loPI   C4A 3834   7.667   3.273   8.228 -0.2425 -0.0547  0.0227
  240loPI   C5A 3835   7.942   3.296   7.813  0.0261 -0.0215 -0.0596
  240loPI   C6A 3836   7.857   3.545   7.442 -0.4039  0.2415 -0.2723
  240loPI   C1B 3837   7.173   3.391   9.153 -0.0568 -0.1652 -0.1721
  240loPI   C2B 3838   7.169   3.171   8.763 -0.0873 -0.0840 -0.2326
  240loPI   C3B 3839   7.194   3.261   8.326  0.0001 -0.4690  0.1577
  240loPI   C4B 3840   6.934   3.584   8.084  0.1558  0.2836 -0.1055
  241loPI    C1 3841  10.256  15.719  10.882  0.1056  0.0584  0.0093
  241loPI    C2 3842  10.571  15.965  10.867  0.2491 -0.1179  0.0923
  241loPI    C3 3843  10.511  15.737  11.190 -0.0616  0.0410  0.1504
  241loPI   PO4 3844  10.266  15.603  10.587  0.1481 -0.2842  0.3449
  241loPI   GL1 3845  10.107  15.442  10.142 -0.1426 -0.3471  0.3589
  241loPI   GL2 3846  10.346  15.657  10.017 -0.1206 -0.1957  0.0029
  241loPI   C1A 3847  10.140  15.451   9.659  0.1211  0.1267  0.1861
  241loPI   C2A 3848  10.004  15.551   9.237  0.0620  0.4028  0.1748
  241loPI   C3A 3849  10.098  15.356   8.826  0.0310  0.0058 -0.3526
  241loPI   C4A 3850  10.059  15.134   8.431  0.1402  0.0830  0.0131
  241loPI   C5A 3851   9.784  14.767   8.349  0.2352  0.1160  0.0884
  241loPI   C6A 3852   9.358  14.789   8.499  0.0217 -0.1273 -0.1054
  241loPI   C1B 3853  10.344  15.901   9.712  0.0572  0.1596  0.0103
  241loPI   C2B 3854  10.245  16.112   9.332 -0.2178 -0.1811  0.0377
  241loPI   C3B 3855  10.155  16.360   9.075  0.2037  0.2604 -0.2946
  241loPI   C4B 3856  10.072  16.417   8.647 -0.0121 -0.0130 -0.4480
  242loPI    C1 3857  17.240  11.350  10.324 -0.0554  0.0033 -0.1640
  242loPI    C2 3858  16.866  11.213  10.365 -0.0733  0.0859 -0.0453
  242loPI    C3 3859  16.991  11.521  10.586  0.0590  0.0724 -0.1003
  242loPI   PO4 3860  17.352  11.117  10.335 -0.2062  0.0806  0.1111
  242loPI   GL1 3861  17.364  10.711  10.187  0.1223 -0.0207 -0.0673
  242loPI   GL2 3862  17.130  10.724  10.049  0.2283 -0.0716 -0.1839
  242loPI   C1A 3863  17.700  10.706   9.909 -0.2562 -0.1964 -0.0157
  242loPI   C2A 3864  17.984  10.770   9.593  0.0375  0.1049 -0.2446
  242loPI   C3A 3865  18.013  10.807   9.164 -0.0678 -0.1080  0.2192
  242loPI   C4A 3866  18.095  10.735   8.821 -0.0372 -0.0610 -0.3017
  242loPI   C5A 3867  17.826  10.808   8.515  0.0816 -0.0687 -0.0668
  242loPI   C6A 3868  17.817  10.847   8.088 -0.0335 -0.0248  0.0086
  242loPI   C1B 3869  17.050  10.871   9.659  0.4153  0.0974  0.0644
  242loPI   C2B 3870  17.180  10.676   9.236  0.1003  0.1074 -0.1180
  242loPI   C3B 3871  17.082  10.207   9.284 -0.1292 -0.1339 -0.0931
  242loPI   C4B 3872  16.974  10.016   9.718  0.0752 -0.0994 -0.1184
  243loPI    C1 3873   6.719   2.009  10.179  0.1072  0.1157  0.1076
  243loPI    C2 3874   7.040   1.977  10.415  0.0992  0.1410  0.1218
  243loPI    C3 3875   6.705   2.145  10.555  0.0391  0.0008  0.1473
  243loPI   PO4 3876   6.746   1.909   9.972  0.1017  0.0869 -0.1570
  243loPI   GL1 3877   6.498   2.031   9.700  0.1896 -0.0892 -0.1833
  243loPI   GL2 3878   6.221   2.020   9.780 -0.1681 -0.1560  0.1807
  243loPI   C1A 3879   6.342   2.107   9.343  0.1098  0.0435  0.0190
  243loPI   C2A 3880   6.313   2.039   8.858  0.1956  0.1933  0.0935
  243loPI   C3A 3881   6.336   2.050   8.398  0.0436  0.0796  0.2750
  243loPI   C4A 3882   6.370   2.082   8.009 -0.0350  0.0124  0.2659
  243loPI   C5A 3883   6.385   1.743   7.643  0.1879  0.0285  0.4781
  243loPI   C6A 3884   6.364   1.238   7.489  0.0621  0.0922 -0.1835
  243loPI   C1B 3885   5.863   1.999   9.510 -0.4578 -0.1171  0.1312
  243loPI   C2B 3886   5.798   2.105   9.145 -0.1301 -0.3283  0.1614
  243loPI   C3B 3887   5.795   1.990   8.758  0.0109 -0.2572 -0.3293
  243loPI   C4B 3888   5.806   2.188   8.319 -0.1194  0.2193  0.1755
  244loPI    C1 3889  10.134   2.182  10.298  0.0527 -0.1112 -0.0856
  244loPI    C2 3890   9.765   2.035  10.251  0.0780 -0.1527 -0.1545
  244loPI    C3 3891   9.950   2.003  10.605 -0.0640  0.0499 -0.0600
  244loPI   PO4 3892  10.185   2.195  10.005  0.1076  0.0543  0.0568
  244loPI   GL1 3893  10.380   2.153   9.531 -0.3007 -0.3346 -0.1816
  244loPI   GL2 3894  10.634   2.114   9.488 -0.4605 -0.0122 -0.0153
  244loPI   C1A 3895  10.211   2.233   9.182  0.1791 -0.0561 -0.0236
  244loPI   C2A 3896   9.979   2.468   8.870 -0.0194 -0.1237  0.2095
  244loPI   C3A 3897   9.771   2.562   8.469 -0.2318  0.1098  0.6414
  244loPI   C4A 3898   9.620   2.450   7.971 -0.1999 -0.1659 -0.1215
  244loPI   C5A 3899   9.339   2.400   7.602 -0.3181 -0.1688  0.1012
  244loPI   C6A 3900   9.349   2.530   7.211  0.0169 -0.0620 -0.1324
  244loPI   C1B 3901  10.763   2.354   9.125  0.0425  0.1483  0.1424
  244loPI   C2B 3902  10.482   2.547   8.800 -0.0941 -0.0817  0.1791
  244loPI   C3B 3903  10.238   2.655   8.423  0.0708  0.0506  0.0533
  244loPI   C4B 3904  10.084   2.617   7.996  0.3012 -0.1346  0.0091
  245loPI    C1 3905   5.781   5.713  10.799 -0.0961  0.0345  0.1078
  245loPI    C2 3906   6.051   6.007  10.770 -0.1411  0.0603 -0.0645
  245loPI    C3 3907   5.697   6.076  10.944  0.0073 -0.0063  0.2719
  245loPI   PO4 3908   5.743   5.627  10.516  0.0374  0.1265 -0.0534
  245loPI   GL1 3909   5.516   5.671  10.138 -0.0046 -0.0182  0.0295
  245loPI   GL2 3910   5.741   5.744   9.862  0.0452 -0.3178  0.3539
  245loPI   C1A 3911   5.248   5.675   9.760 -0.1319 -0.0885  0.4956
  245loPI   C2A 3912   5.401   5.709   9.322 -0.4289 -0.1776  0.0783
  245loPI   C3A 3913   5.488   5.765   8.794 -0.0052  0.2334  0.1266
  245loPI   C4A 3914   5.528   5.851   8.414 -0.0885 -0.2025 -0.1027
  245loPI   C5A 3915   5.468   5.966   8.059 -0.2221 -0.3912 -0.1358
  245loPI   C6A 3916   5.638   6.115   7.658  0.2373 -0.0085  0.0909
  245loPI   C1B 3917   5.872   5.761   9.419 -0.1248 -0.0168 -0.0160
  245loPI   C2B 3918   5.971   5.697   8.937 -0.0774  0.1841  0.1232
  245loPI   C3B 3919   6.036   5.833   8.475  0.0988  0.1488  0.1463
  245loPI   C4B 3920   5.922   5.793   8.048  0.4336 -0.2506  0.1205
  246loPI    C1 3921   4.056  18.382  10.383 -0.0646  0.1124  0.2351
  246loPI    C2 3922   4.443  18.436  10.297 -0.1335  0.0505 -0.1271
  246loPI    C3 3923   4.289  18.595  10.630  0.2048  0.0635  0.0278
  246loPI   PO4 3924   3.975  18.402  10.124 -0.1415 -0.2420  0.2017
  246loPI   GL1 3925   3.686  18.394   9.769 -0.1396  0.1443  0.3908
  246loPI   GL2 3926   3.417  18.451   9.890 -0.0071 -0.3050  0.0174
  246loPI   C1A 3927   3.973  18.339   9.384  0.3114  0.1766  0.3208
  246loPI   C2A 3928   3.997  18.366   8.981  0.2572  0.2510 -0.1242
  246loPI   C3A 3929   3.935  18.352   8.540  0.1586 -0.0280 -0.2695
  246loPI   C4A 3930   4.002  18.295   8.092 -0.1993  0.2926  0.0895
  246loPI   C5A 3931   3.776  18.606   7.784 -0.0079  0.0444 -0.3467
  246loPI   C6A 3932   4.047  18.977   7.640 -0.0783  0.0365 -0.4894
  246loPI   C1B 3933   3.226  18.749   9.607  0.2846  0.0141  0.1499
  246loPI   C2B 3934   3.087  18.865   9.223  0.3295 -0.0010  0.0771
  246loPI   C3B 3935   3.090  18.714   8.725  0.0515 -0.0687  0.0356
  246loPI   C4B 3936   3.022  18.624   8.250 -0.1157 -0.0507  0.1686
  247loPI    C1 3937  14.116  17.551  10.804 -0.2525 -0.0225  0.5707
  247loPI    C2 3938  14.151  17.158  10.743  0.1111  0.0623  0.1863
  247loPI    C3 3939  13.800  17.312  10.855 -0.0998 -0.3397  0.0962
  247loPI   PO4 3940  14.207  17.714  10.541  0.0621  0.1131 -0.0262
  247loPI   GL1 3941  14.066  17.680  10.047  0.0121 -0.1885 -0.4989
  247loPI   GL2 3942  14.116  17.906   9.780 -0.0403 -0.0078 -0.0504
  247loPI   C1A 3943  14.160  17.404   9.780 -0.0894  0.0422 -0.0403
  247loPI   C2A 3944  14.057  17.311   9.365 -0.0383  0.0153  0.2391
  247loPI   C3A 3945  14.014  17.323   8.966  0.2853  0.1242 -0.0921
  247loPI   C4A 3946  14.036  17.154   8.544 -0.0876 -0.1232  0.2154
  247loPI   C5A 3947  14.054  17.065   8.129 -0.0415  0.0376 -0.0297
  247loPI   C6A 3948  14.180  16.632   7.893 -0.0538 -0.0291  0.1795
  247loPI   C1B 3949  14.239  17.834   9.398  0.0944 -0.0554 -0.0946
  247loPI   C2B 3950  14.196  17.779   8.988 -0.0042 -0.1440  0.1324
  247loPI   C3B 3951  14.226  17.638   8.639  0.1307  0.0898  0.3010
  247loPI   C4B 3952  14.208  17.631   8.227  0.3084  0.3314  0.0870
  248loPI    C1 3953   7.251   0.151  10.291  0.2776 -0.0226 -0.0470
  248loPI    C2 3954   7.281   0.201  10.687  0.5196 -0.1628 -0.0459
  248loPI    C3 3955   7.515   0.412  10.440  0.2822  0.0157 -0.1220
  248loPI   PO4 3956   7.251  -0.194  10.217  0.0546 -0.0876 -0.1352
  248loPI   GL1 3957   7.506  -0.319   9.755  0.1352  0.4305 -0.1343
  248loPI   GL2 3958   7.382  -0.017   9.704 -0.2953  0.1835 -0.2092
  248loPI   C1A 3959   7.237  -0.501   9.380  0.4018 -0.1967 -0.3030
  248loPI   C2A 3960   7.278  -0.544   8.931 -0.1696 -0.2111 -0.2967
  248loPI   C3A 3961   7.464  -0.776   8.704  0.1095  0.0275  0.0050
  248loPI   C4A 3962   7.438  -0.767   8.240  0.0974 -0.2483 -0.0258
  248loPI   C5A 3963   7.251  -1.114   8.081 -0.1351  0.0467  0.0693
  248loPI   C6A 3964   7.007  -1.106   7.762  0.0480 -0.1619 -0.0265
  248loPI   C1B 3965   7.469  -0.046   9.265 -0.1583 -0.0168  0.3826
  248loPI   C2B 3966   7.368   0.017   8.837  0.0609 -0.3334  0.0255
  248loPI   C3B 3967   7.344   0.134   8.543  0.1865 -0.3125 -0.1607
  248loPI   C4B 3968   7.439   0.454   8.098 -0.1320 -0.0585 -0.0596
  249loPI    C1 3969   0.312   2.704  10.499  0.0526  0.1749  0.1074
  249loPI    C2 3970   0.246   2.512  10.844 -0.1860  0.1285  0.0381
  249loPI    C3 3971   0.223   2.911  10.830  0.2942  0.1678  0.1786
  249loPI   PO4 3972   0.518   2.657  10.406  0.1048  0.1734  0.3496
  249loPI   GL1 3973   0.719   2.614   9.960  0.1162  0.0483 -0.1271
  249loPI   GL2 3974   0.961   2.713  10.102  0.0389  0.3864 -0.0833
  249loPI   C1A 3975   0.682   2.555   9.487  0.0742  0.2723  0.2784
  249loPI   C2A 3976   0.722   2.522   9.162  0.0669 -0.1964 -0.1238
  249loPI   C3A 3977   0.655   2.633   8.757 -0.1540  0.0712  0.0669
  249loPI   C4A 3978   0.652   2.622   8.347  0.0768 -0.0153 -0.3595
  249loPI   C5A 3979   0.615   2.876   8.026 -0.1026  0.0324 -0.1559
  249loPI   C6A 3980   0.687   3.298   7.916  0.1501  0.2856  0.1658
  249loPI   C1B 3981   1.022   2.881   9.703  0.3271 -0.1296 -0.1091
  249loPI   C2B 3982   0.905   3.002   9.282  0.1938  0.0699 -0.1921
  249loPI   C3B 3983   0.861   3.174   8.885  0.0181  0.3295  0.3414
  249loPI   C4B 3984   0.843   3.141   8.431  0.2174 -0.0730  0.0074
  250loPI    C1 3985   2.394  11.267  10.285  0.1860 -0.0742  0.0442
  250loPI    C2 3986   2.146  11.553  10.416  0.1291 -0.0196 -0.1776
  250loPI    C3 3987   2.098  11.174  10.537  0.1439  0.0465  0.0401
  250loPI   PO4 3988   2.549  11.447  10.153 -0.0920 -0.4525 -0.0810
  250loPI   GL1 3989   2.372  11.817   9.963 -0.2363  0.0163 -0.2060
  250loPI   GL2 3990   2.103  11.964   9.945 -0.0362  0.1738 -0.3562
  250loPI   C1A 3991   2.333  11.928   9.528  0.2127 -0.2381  0.1373
  250loPI   C2A 3992   2.265  12.013   9.072  0.1888  0.0561 -0.1413
  250loPI   C3A 3993   2.265  12.015   8.655  0.2469 -0.1427  0.0185
  250loPI   C4A 3994   2.157  12.024   8.228  0.1249 -0.1072 -0.0207
  250loPI   C5A 3995   2.224  11.884   7.807  0.0688  0.0879 -0.0712
  250loPI   C6A 3996   2.318  11.691   7.433 -0.0531  0.0530  0.3890
  250loPI   C1B 3997   2.204  12.349   9.771  0.4981 -0.1415 -0.0765
  250loPI   C2B 3998   2.288  12.585   9.364  0.2306 -0.1101 -0.2796
  250loPI   C3B 3999   2.208  12.521   8.897  0.0548 -0.1475  0.4361
  250loPI   C4B 4000   2.300  12.458   8.443  0.0865 -0.0283 -0.0747
  251loPI    C1 4001  12.214   8.738  10.679  0.0735  0.0339  0.0164
  251loPI    C2 4002  12.081   8.582  11.022 -0.0900 -0.0768 -0.0963
  251loPI    C3 4003  12.473   8.634  10.965 -0.0681  0.0384  0.1474
  251loPI   PO4 4004  11.863   8.630  10.534 -0.2061  0.0145 -0.0405
  251loPI   GL1 4005  11.843   8.426  10.121  0.0387  0.0545 -0.1432
  251loPI   GL2 4006  11.589   8.148  10.009 -0.3113 -0.3547  0.0173
  251loPI   C1A 4007  12.015   8.326   9.797  0.1329  0.2194  0.2538
  251loPI   C2A 4008  12.035   8.362   9.359 -0.1343  0.0110  0.1443
  251loPI   C3A 4009  12.056   8.376   8.945 -0.0040 -0.1450  0.1770
  251loPI   C4A 4010  12.128   8.444   8.492 -0.2198  0.1496  0.1330
  251loPI   C5A 4011  12.129   8.615   8.113 -0.1080 -0.1485 -0.0945
  251loPI   C6A 4012  11.971   8.894   7.696  0.0943  0.0433 -0.0094
  251loPI   C1B 4013  11.578   8.219   9.468 -0.1278 -0.0931 -0.0109
  251loPI   C2B 4014  11.582   8.233   9.025 -0.2481  0.1169  0.2615
  251loPI   C3B 4015  11.656   8.320   8.584  0.1267  0.1201 -0.3174
  251loPI   C4B 4016  11.532   8.460   8.295  0.1451 -0.0227 -0.0537
  252loPI    C1 4017   6.963   5.404  10.615 -0.1630  0.1077 -0.0353
  252loPI    C2 4018   6.735   5.531  10.918 -0.2744  0.0026 -0.0744
  252loPI    C3 4019   7.012   5.250  10.981 -0.2004  0.0827 -0.0407
  252loPI   PO4 4020   7.064   5.652  10.475 -0.0481 -0.0853 -0.0524
  252loPI   GL1 4021   7.218   5.781  10.094 -0.3295 -0.1530 -0.1406
  252loPI   GL2 4022   7.411   5.989  10.082  0.1613  0.0117  0.3340
  252loPI   C1A 4023   7.479   5.674   9.645  0.3345  0.4428 -0.0472
  252loPI   C2A 4024   7.474   5.685   9.161 -0.3780 -0.5048 -0.3696
  252loPI   C3A 4025   7.375   5.707   8.691  0.2374 -0.0171  0.0512
  252loPI   C4A 4026   7.350   5.663   8.263 -0.2156 -0.3234 -0.0151
  252loPI   C5A 4027   7.505   5.479   7.899 -0.0588 -0.0554  0.0190
  252loPI   C6A 4028   7.615   5.086   7.711  0.0031  0.0625  0.2014
  252loPI   C1B 4029   7.310   6.148   9.641  0.3075  0.1450  0.0998
  252loPI   C2B 4030   7.308   6.167   9.124 -0.2095 -0.0569  0.1094
  252loPI   C3B 4031   7.199   6.192   8.750 -0.0333  0.1465  0.0859
  252loPI   C4B 4032   7.271   6.130   8.337 -0.1487 -0.2050  0.2164
  253loPI    C1 4033   0.461  13.719  10.753  0.0121 -0.1265  0.1553
  253loPI    C2 4034   0.465  13.335  10.865  0.0821 -0.1363  0.1196
  253loPI    C3 4035   0.602  13.618  11.113  0.3674 -0.1725  0.0073
  253loPI   PO4 4036   0.602  13.729  10.474 -0.1564 -0.3962 -0.1493
  253loPI   GL1 4037   0.572  13.665   9.978  0.0644 -0.1550  0.2516
  253loPI   GL2 4038   0.264  13.602   9.801 -0.0989 -0.0936  0.1831
  253loPI   C1A 4039   0.740  13.355   9.675  0.0348 -0.0982  0.2715
  253loPI   C2A 4040   0.920  13.264   9.260 -0.1114  0.0759 -0.0488
  253loPI   C3A 4041   0.891  13.178   8.758 -0.4113 -0.2376 -0.3029
  253loPI   C4A 4042   0.881  13.325   8.346 -0.0516 -0.2170 -0.1778
  253loPI   C5A 4043   0.663  13.331   8.025 -0.2240 -0.1148  0.1776
  253loPI   C6A 4044   0.550  13.585   7.624 -0.0137 -0.0830  0.3293
  253loPI   C1B 4045   0.388  13.498   9.404 -0.2811  0.1770  0.2188
  253loPI   C2B 4046   0.512  13.403   8.968  0.0384  0.2279  0.1708
  253loPI   C3B 4047   0.454  13.547   8.570 -0.0773 -0.2646 -0.1640
  253loPI   C4B 4048   0.353  13.716   8.141  0.2039  0.1294 -0.1908
  254loPI    C1 4049   5.414  16.148  10.334 -0.0530  0.0848  0.0096
  254loPI    C2 4050   5.679  15.860  10.416 -0.1166  0.0128 -0.0373
  254loPI    C3 4051   5.617  16.155  10.679 -0.1829 -0.1147  0.0921
  254loPI   PO4 4052   5.167  16.014  10.323 -0.0466 -0.0764  0.1423
  254loPI   GL1 4053   5.020  15.860   9.890  0.2466  0.0664 -0.2459
  254loPI   GL2 4054   4.768  15.665   9.782  0.2457 -0.2156  0.1174
  254loPI   C1A 4055   5.037  16.014   9.513  0.0325 -0.0997  0.3231
  254loPI   C2A 4056   5.180  15.956   9.174 -0.0665  0.0711 -0.4029
  254loPI   C3A 4057   5.293  16.047   8.807 -0.1570 -0.0805  0.1090
  254loPI   C4A 4058   5.216  15.903   8.298 -0.0400 -0.0661 -0.4562
  254loPI   C5A 4059   5.377  15.688   7.921 -0.3674 -0.1085 -0.3594
  254loPI   C6A 4060   5.639  15.553   7.647  0.0454 -0.2733 -0.2005
  254loPI   C1B 4061   4.767  15.623   9.350  0.0540 -0.1448 -0.1391
  254loPI   C2B 4062   4.819  15.680   8.882  0.1001 -0.0979 -0.1414
  254loPI   C3B 4063   4.782  15.680   8.400  0.1646 -0.0757  0.1801
  254loPI   C4B 4064   4.834  15.532   7.908  0.4087 -0.1443  0.2718
  255loPI    C1 4065   0.235   4.182  10.605  0.1068 -0.1503 -0.2996
  255loPI    C2 4066   0.177   4.557  10.480  0.1598 -0.0692 -0.0848
  255loPI    C3 4067  -0.136   4.331  10.584  0.1491  0.0203  0.0819
  255loPI   PO4 4068   0.419   4.110  10.452 -0.0090 -0.1472 -0.1522
  255loPI   GL1 4069   0.377   4.344  10.024  0.1726 -0.1208 -0.3976
  255loPI   GL2 4070   0.567   4.487   9.805 -0.2348  0.1707  0.5217
  255loPI   C1A 4071   0.209   4.055   9.755 -0.4118 -0.1557 -0.3796
  255loPI   C2A 4072   0.200   3.811   9.325 -0.2754 -0.0960  0.2018
  255loPI   C3A 4073   0.221   3.929   8.942  0.1726 -0.2586 -0.2369
  255loPI   C4A 4074   0.204   3.937   8.520 -0.1417  0.2507 -0.1088
  255loPI   C5A 4075   0.300   3.889   8.080  0.1161  0.0030 -0.0708
  255loPI   C6A 4076   0.407   4.226   7.836 -0.1928  0.0776 -0.1343
  255loPI   C1B 4077   0.461   4.355   9.441  0.0231 -0.0965  0.0925
  255loPI   C2B 4078   0.381   4.407   9.090  0.0208 -0.0143 -0.3707
  255loPI   C3B 4079   0.470   4.536   8.625 -0.0658 -0.1031 -0.1181
  255loPI   C4B 4080   0.336   4.351   8.273 -0.0163  0.0058 -0.1952
  256loPI    C1 4081  14.915  12.795  10.913 -0.0579 -0.0336  0.0144
  256loPI    C2 4082  15.113  13.064  11.133 -0.1164  0.1713 -0.1800
  256loPI    C3 4083  14.826  12.841  11.301  0.0485  0.1083  0.0229
  256loPI   PO4 4084  14.898  12.852  10.756  0.2024 -0.0945  0.0512
  256loPI   GL1 4085  15.018  12.922  10.416  0.0869  0.0226  0.1806
  256loPI   GL2 4086  15.309  12.894  10.291 -0.1978 -0.0213 -0.2018
  256loPI   C1A 4087  14.891  13.289  10.258  0.0218 -0.0859  0.2500
  256loPI   C2A 4088  14.799  13.388   9.880 -0.1847  0.1514 -0.2432
  256loPI   C3A 4089  14.781  13.323   9.407 -0.2103  0.1032 -0.1433
  256loPI   C4A 4090  14.912  13.287   8.921 -0.0351 -0.0155  0.3257
  256loPI   C5A 4091  15.051  13.262   8.517  0.0828 -0.2675  0.3246
  256loPI   C6A 4092  14.831  12.928   8.270  0.1858 -0.1301 -0.1954
  256loPI   C1B 4093  15.139  12.908   9.895 -0.2472 -0.1189  0.0355
  256loPI   C2B 4094  15.201  13.002   9.387 -0.3706  0.0818  0.0456
  256loPI   C3B 4095  15.245  12.896   8.972  0.0642 -0.2779 -0.0213
  256loPI   C4B 4096  15.659  12.938   8.701  0.1605  0.2966  0.0472
  257loPI    C1 4097  13.406   1.511  10.323  0.1760  0.0569  0.3050
  257loPI    C2 4098  13.186   1.836  10.248 -0.0137 -0.1557 -0.0884
  257loPI    C3 4099  13.226   1.705  10.623  0.0758  0.3238  0.0766
  257loPI   PO4 4100  13.398   1.365  10.053  0.2053  0.2347  0.0747
  257loPI   GL1 4101  13.755   1.273   9.826 -0.0213  0.1752 -0.1180
  257loPI   GL2 4102  13.914   1.002   9.673  0.1718  0.0819  0.1086
  257loPI   C1A 4103  13.495   1.301   9.430 -0.2574  0.1798 -0.4138
  257loPI   C2A 4104  13.431   1.353   9.027  0.0365  0.0884  0.1222
  257loPI   C3A 4105  13.377   1.370   8.558 -0.1833  0.1849 -0.2196
  257loPI   C4A 4106  13.451   1.346   8.026  0.0388 -0.1608 -0.2388
  257loPI   C5A 4107  13.250   1.506   7.610  0.0956  0.0420  0.0605
  257loPI   C6A 4108  13.344   1.824   7.281  0.0245  0.1473 -0.4140
  257loPI   C1B 4109  13.831   1.024   9.204 -0.0039 -0.1223  0.0152
  257loPI   C2B 4110  13.873   1.071   8.748 -0.2526 -0.1611  0.1950
  257loPI   C3B 4111  13.807   1.036   8.277  0.1936 -0.0768  0.1612
  257loPI   C4B 4112  14.004   1.044   7.838  0.1849 -0.0446  0.0458
  258loPI    C1 4113  10.548  18.237   9.969  0.4145  0.0284 -0.2474
  258loPI    C2 4114  10.609  18.605  10.115  0.0439  0.0528 -0.1448
  258loPI    C3 4115  10.292  18.392  10.234  0.2064 -0.2670 -0.2714
  258loPI   PO4 4116  10.498  18.294   9.708  0.0773 -0.0184 -0.1810
  258loPI   GL1 4117  10.598  18.229   9.308 -0.1778 -0.3162 -0.2480
  258loPI   GL2 4118  10.924  18.338   9.453  0.2020  0.0789 -0.0770
  258loPI   C1A 4119  10.701  18.426   8.982 -0.2118  0.0994 -0.2567
  258loPI   C2A 4120  10.810  18.660   8.625 -0.0378 -0.1895  0.3625
  258loPI   C3A 4121  10.668  18.864   8.196 -0.0572  0.0344  0.3997
  258loPI   C4A 4122  10.605  18.805   7.837 -0.0303 -0.0022 -0.2678
  258loPI   C5A 4123  10.603  19.013   7.477 -0.0953 -0.0884 -0.0242
  258loPI   C6A 4124  10.719  19.462   7.556 -0.3807 -0.0369 -0.1395
  258loPI   C1B 4125  11.206  18.413   8.958  0.2069  0.0533 -0.3417
  258loPI   C2B 4126  11.370  18.738   8.648 -0.0441 -0.2190 -0.1803
  258loPI   C3B 4127  11.227  18.716   8.134  0.3312  0.2837  0.1241
  258loPI   C4B 4128  11.129  18.793   7.666 -0.1471 -0.1143 -0.1185
  259loPI    C1 4129   7.546   6.301  10.453  0.1726  0.0021 -0.0389
  259loPI    C2 4130   7.561   6.365  10.848 -0.0425 -0.0077 -0.0277
  259loPI    C3 4131   7.479   5.999  10.708 -0.0418  0.0125 -0.0810
  259loPI   PO4 4132   7.620   6.498  10.294  0.0264  0.3429 -0.0426
  259loPI   GL1 4133   7.547   6.514   9.898  0.5380 -0.4347 -0.1002
  259loPI   GL2 4134   7.437   6.777   9.947  0.0184  0.2819  0.1070
  259loPI   C1A 4135   7.596   6.535   9.380  0.0536 -0.1188 -0.0999
  259loPI   C2A 4136   7.665   6.577   8.973 -0.0323 -0.1282  0.2810
  259loPI   C3A 4137   7.455   6.572   8.493 -0.1047  0.0716 -0.0523
  259loPI   C4A 4138   7.624   6.705   8.083  0.1238 -0.0673  0.0270
  259loPI   C5A 4139   7.388   6.878   7.805  0.0436 -0.0492 -0.2144
  259loPI   C6A 4140   6.951   6.834   7.750 -0.2692 -0.2040 -0.1585
  259loPI   C1B 4141   7.286   6.930   9.622 -0.0238 -0.2023  0.0048
  259loPI   C2B 4142   7.291   6.999   9.146  0.1811  0.0136  0.0586
  259loPI   C3B 4143   7.285   7.023   8.692 -0.4153 -0.1197  0.0775
  259loPI   C4B 4144   7.393   7.075   8.325 -0.0917 -0.1105 -0.0706
  260loPI    C1 4145   4.455   7.657  10.179  0.0347  0.0505  0.0607
  260loPI    C2 4146   4.348   8.036  10.108  0.0135  0.0784  0.2392
  260loPI    C3 4147   4.645   7.956  10.364  0.2405 -0.0112 -0.0466
  260loPI   PO4 4148   4.430   7.584   9.964 -0.1354 -0.3657 -0.0882
  260loPI   GL1 4149   4.488   7.431   9.585  0.0306 -0.0220 -0.1066
  260loPI   GL2 4150   4.850   7.475   9.731 -0.1490  0.0259  0.0337
  260loPI   C1A 4151   4.407   7.614   9.240  0.0400  0.2885  0.2912
  260loPI   C2A 4152   4.382   7.512   8.884  0.1095 -0.0261  0.0583
  260loPI   C3A 4153   4.009   7.424   8.643  0.1131  0.1164  0.0013
  260loPI   C4A 4154   4.092   7.401   8.203 -0.1418  0.0928  0.2099
  260loPI   C5A 4155   4.368   7.338   7.886 -0.1143  0.1578 -0.1104
  260loPI   C6A 4156   4.721   7.424   7.634 -0.1714  0.1962 -0.0546
  260loPI   C1B 4157   4.928   7.490   9.314 -0.3631  0.0924 -0.1999
  260loPI   C2B 4158   4.992   7.480   8.931 -0.1148  0.0565  0.0449
  260loPI   C3B 4159   4.907   7.440   8.506 -0.2042 -0.0508  0.0279
  260loPI   C4B 4160   4.804   7.444   8.106  0.0082  0.2916  0.3589
  261loPI    C1 4161  18.333  10.133  10.392  0.3163  0.1185  0.0752
  261loPI    C2 4162  18.128  10.103  10.734 -0.0031 -0.0405 -0.1242
  261loPI    C3 4163  18.317  10.443  10.643 -0.1903  0.1146  0.0581
  261loPI   PO4 4164  18.124  10.038  10.203 -0.1629 -0.0719 -0.1550
  261loPI   GL1 4165  17.772  10.201   9.913  0.2618 -0.1790 -0.0669
  261loPI   GL2 4166  18.035  10.337   9.848 -0.0673 -0.0747  0.1490
  261loPI   C1A 4167  17.636   9.989   9.597  0.0896  0.1417 -0.0974
  261loPI   C2A 4168  17.599  10.025   9.227 -0.1468  0.4416  0.1481
  261loPI   C3A 4169  17.634  10.004   8.896  0.0959 -0.0005  0.1323
  261loPI   C4A 4170  17.521  10.311   8.506  0.0349 -0.0182 -0.1968
  261loPI   C5A 4171  17.591  10.412   8.110  0.0294  0.1151  0.1740
  261loPI   C6A 4172  17.477  10.405   7.775 -0.0485  0.1317 -0.1697
  261loPI   C1B 4173  18.145  10.328   9.424 -0.1187  0.2137 -0.0093
  261loPI   C2B 4174  18.032  10.269   9.027 -0.0870 -0.3334 -0.0249
  261loPI   C3B 4175  18.067  10.204   8.616 -0.1893 -0.0643  0.2632
  261loPI   C4B 4176  18.062   9.893   8.142 -0.0727 -0.0795  0.1139
  262loPI    C1 4177  14.651   9.207  10.360  0.0762 -0.0454 -0.0446
  262loPI    C2 4178  14.531   8.837  10.267 -0.1086  0.0110 -0.0358
  262loPI    C3 4179  14.631   8.926  10.644 -0.2499  0.0194  0.0000
  262loPI   PO4 4180  14.808   9.255  10.185 -0.1762  0.1794 -0.0130
  262loPI   GL1 4181  14.715   9.078   9.826  0.2580 -0.1169 -0.1154
  262loPI   GL2 4182  14.845   8.823   9.685  0.3148 -0.1251 -0.1558
  262loPI   C1A 4183  14.547   9.179   9.433 -0.0577 -0.1262  0.2458
  262loPI   C2A 4184  14.430   9.049   9.027  0.2228 -0.1977 -0.2808
  262loPI   C3A 4185  14.412   9.205   8.625 -0.1728 -0.1076  0.0294
  262loPI   C4A 4186  14.648   9.249   8.233  0.0713  0.2256  0.0864
  262loPI   C5A 4187  14.962   9.494   8.083  0.0528 -0.2007  0.1471
  262loPI   C6A 4188  15.230   9.259   7.847  0.2602  0.0826 -0.1189
  262loPI   C1B 4189  14.879   8.790   9.245  0.0727 -0.0993 -0.2652
  262loPI   C2B 4190  15.103   8.551   9.123  0.1764  0.2336 -0.3398
  262loPI   C3B 4191  15.347   8.246   8.841  0.0048 -0.0063 -0.0286
  262loPI   C4B 4192  15.658   8.368   8.480  0.0922  0.2030  0.1373
  263loPI    C1 4193   9.611   5.199  10.613 -0.0553 -0.0253  0.1597
  263loPI    C2 4194   9.247   5.357  10.663  0.0296  0.1845  0.1220
  263loPI    C3 4195   9.442   5.203  10.976 -0.0791  0.0976  0.1476
  263loPI   PO4 4196   9.598   5.054  10.404 -0.4286 -0.0508  0.1214
  263loPI   GL1 4197   9.438   4.921  10.013  0.1101 -0.0187  0.2378
  263loPI   GL2 4198   9.222   4.699   9.906  0.2094  0.3520  0.0187
  263loPI   C1A 4199   9.491   5.219   9.649  0.0578 -0.1240 -0.2454
  263loPI   C2A 4200   9.298   5.095   9.227  0.2698 -0.1287 -0.1576
  263loPI   C3A 4201   9.288   5.144   8.855 -0.1133 -0.0518 -0.2318
  263loPI   C4A 4202   9.005   5.437   8.643  0.1867  0.4361  0.2308
  263loPI   C5A 4203   8.943   5.441   8.130 -0.1005  0.1113 -0.0357
  263loPI   C6A 4204   9.125   5.179   7.774 -0.2862 -0.1991 -0.1499
  263loPI   C1B 4205   9.077   4.690   9.467 -0.0161  0.2922 -0.0954
  263loPI   C2B 4206   9.005   4.765   9.032 -0.0940  0.0810  0.1769
  263loPI   C3B 4207   8.873   4.828   8.584  0.1078 -0.0122 -0.1480
  263loPI   C4B 4208   9.089   4.991   8.215  0.2496  0.0741 -0.2384
  264loPI    C1 4209  13.272  16.274  10.762  0.0823  0.1617  0.0631
  264loPI    C2 4210  13.361  16.473  11.097  0.1158 -0.1060  0.2160
  264loPI    C3 4211  13.013  16.278  11.066  0.1999 -0.2514  0.1757
  264loPI   PO4 4212  13.310  16.420  10.500  0.1837 -0.1152 -0.1505
  264loPI   GL1 4213  13.616  16.400  10.301  0.0911 -0.0265 -0.1362
  264loPI   GL2 4214  13.455  16.642   9.950 -0.0745 -0.0093  0.0696
  264loPI   C1A 4215  13.930  16.480   9.875  0.0969  0.0595  0.3640
  264loPI   C2A 4216  14.064  16.396   9.350  0.2410  0.2436 -0.1773
  264loPI   C3A 4217  14.176  16.472   8.860 -0.0407 -0.1513  0.1443
  264loPI   C4A 4218  14.178  16.315   8.386 -0.0832 -0.1129 -0.0574
  264loPI   C5A 4219  13.992  16.185   7.962  0.1184  0.1944 -0.0716
  264loPI   C6A 4220  13.697  16.068   7.609 -0.1270  0.3450 -0.1335
  264loPI   C1B 4221  13.371  16.786   9.553 -0.3302 -0.0356 -0.2986
  264loPI   C2B 4222  13.381  16.691   9.092 -0.2391 -0.2251 -0.1636
  264loPI   C3B 4223  13.288  16.665   8.670 -0.1000  0.0936 -0.1172
  264loPI   C4B 4224  13.320  16.614   8.311 -0.2574 -0.3154  0.1981
  265loPI    C1 4225  10.403  10.908  10.583  0.1642  0.1390 -0.1288
  265loPI    C2 4226  10.411  10.687  10.916 -0.1201  0.0158 -0.2004
  265loPI    C3 4227  10.471  10.515  10.560 -0.1281  0.0925 -0.2390
  265loPI   PO4 4228  10.130  11.058  10.541 -0.3144  0.1222 -0.0887
  265loPI   GL1 4229   9.888  11.208  10.268 -0.0403 -0.5289  0.1365
  265loPI   GL2 4230   9.779  10.883  10.225 -0.2836  0.0923 -0.0596
  265loPI   C1A 4231   9.552  11.232   9.907 -0.0442  0.2888  0.0608
  265loPI   C2A 4232   9.507  11.101   9.505  0.4208 -0.2660  0.0930
  265loPI   C3A 4233   9.526  11.027   9.049  0.2158 -0.2148  0.0446
  265loPI   C4A 4234   9.595  10.724   8.685  0.2186 -0.0194 -0.1147
  265loPI   C5A 4235   9.756  10.422   8.433  0.1132 -0.1746  0.0394
  265loPI   C6A 4236   9.846  10.188   8.178 -0.0632  0.0674  0.0462
  265loPI   C1B 4237   9.845  10.734   9.735  0.1447  0.1006  0.1528
  265loPI   C2B 4238   9.721  10.619   9.332  0.2760 -0.3007  0.0081
  265loPI   C3B 4239   9.594  10.216   9.024 -0.0519 -0.0125 -0.0933
  265loPI   C4B 4240   9.646   9.966   8.639  0.0371 -0.1795  0.5458
  266loPI    C1 4241   7.199  16.932  10.499  0.2343 -0.0077  0.0806
  266loPI    C2 4242   6.859  16.944  10.710  0.0181  0.2063 -0.2709
  266loPI    C3 4243   7.156  16.702  10.824 -0.2826 -0.0472 -0.0066
  266loPI   PO4 4244   7.104  16.946  10.258  0.1379  0.0348 -0.0657
  266loPI   GL1 4245   7.099  17.197   9.965 -0.0048 -0.1971  0.2802
  266loPI   GL2 4246   7.186  17.310   9.726  0.0581  0.0553 -0.4131
  266loPI   C1A 4247   6.948  16.917   9.536  0.0275 -0.0312 -0.0009
  266loPI   C2A 4248   6.822  17.000   9.197  0.2220  0.1069 -0.3086
  266loPI   C3A 4249   6.691  16.800   8.935 -0.1990  0.0079 -0.2292
  266loPI   C4A 4250   6.499  16.802   8.484  0.0037 -0.1829  0.1957
  266loPI   C5A 4251   6.661  16.692   8.057 -0.1951  0.2315  0.4961
  266loPI   C6A 4252   6.985  16.461   7.860  0.5436  0.1491 -0.0886
  266loPI   C1B 4253   6.895  17.536   9.402  0.0015  0.1988 -0.1509
  266loPI   C2B 4254   6.933  17.529   8.905  0.1212 -0.0039 -0.2519
  266loPI   C3B 4255   7.016  17.733   8.533  0.0426 -0.1466 -0.0827
  266loPI   C4B 4256   7.017  17.838   7.996 -0.2577 -0.2068  0.1367
  267loPI    C1 4257   5.988   6.496  10.813  0.0735 -0.0316 -0.2477
  267loPI    C2 4258   5.756   6.560  11.132 -0.1267 -0.0503 -0.3872
  267loPI    C3 4259   6.099   6.358  11.171 -0.0669  0.0922 -0.1553
  267loPI   PO4 4260   5.800   6.483  10.577 -0.3100  0.2574 -0.4117
  267loPI   GL1 4261   5.895   6.162  10.107 -0.2010  0.0117  0.2320
  267loPI   GL2 4262   5.571   6.240   9.986 -0.0211  0.2751  0.0528
  267loPI   C1A 4263   6.069   6.064   9.690 -0.1421 -0.0770 -0.2180
  267loPI   C2A 4264   6.188   6.241   9.274 -0.1190  0.0474  0.2140
  267loPI   C3A 4265   6.248   6.251   8.851 -0.1488 -0.1200 -0.1827
  267loPI   C4A 4266   6.353   6.213   8.408 -0.1515 -0.0982 -0.2495
  267loPI   C5A 4267   6.366   6.147   7.995  0.0994  0.0972  0.4355
  267loPI   C6A 4268   6.087   6.370   7.743 -0.2176 -0.1228  0.1330
  267loPI   C1B 4269   5.602   6.190   9.623  0.1564 -0.0478  0.3994
  267loPI   C2B 4270   5.749   6.247   9.184 -0.2917  0.0656  0.2775
  267loPI   C3B 4271   5.772   6.201   8.734  0.0771 -0.0737 -0.1633
  267loPI   C4B 4272   5.803   6.258   8.257 -0.3410 -0.0054 -0.0384
  268loPI    C1 4273   5.844   2.309  10.151  0.1516 -0.1191  0.0460
  268loPI    C2 4274   5.727   1.977   9.960 -0.0753 -0.0494  0.0614
  268loPI    C3 4275   5.617   2.040  10.340 -0.2091  0.1409 -0.0075
  268loPI   PO4 4276   5.942   2.424   9.960 -0.1378 -0.3009 -0.2230
  268loPI   GL1 4277   6.263   2.555   9.680  0.1884 -0.0314 -0.1433
  268loPI   GL2 4278   5.999   2.507   9.463 -0.0027 -0.0813  0.2412
  268loPI   C1A 4279   6.573   2.500   9.375 -0.0871 -0.3248 -0.2357
  268loPI   C2A 4280   6.534   2.472   8.976 -0.2003 -0.0275  0.0962
  268loPI   C3A 4281   6.633   2.373   8.528  0.1400 -0.0134 -0.1868
  268loPI   C4A 4282   6.670   2.515   8.128 -0.2550 -0.0416  0.0250
  268loPI   C5A 4283   6.653   2.348   7.712 -0.1048  0.0924  0.2621
  268loPI   C6A 4284   6.459   2.555   7.392  0.1888 -0.1994  0.2114
  268loPI   C1B 4285   6.083   2.501   9.106 -0.0474 -0.1418  0.0697
  268loPI   C2B 4286   6.073   2.438   8.709  0.3361 -0.1317 -0.0742
  268loPI   C3B 4287   6.154   2.514   8.210 -0.1477 -0.0092 -0.0026
  268loPI   C4B 4288   6.038   2.455   7.774 -0.0479 -0.1949 -0.1088
  269loPI    C1 4289   6.907   8.774  10.655 -0.0389  0.1239 -0.0836
  269loPI    C2 4290   6.576   8.619  10.819  0.0357 -0.0020 -0.0507
  269loPI    C3 4291   6.934   8.461  10.903  0.1254  0.2611  0.0741
  269loPI   PO4 4292   6.871   8.923  10.528 -0.3225 -0.1577  0.2253
  269loPI   GL1 4293   6.736   9.069  10.100 -0.1132  0.0004 -0.0659
  269loPI   GL2 4294   6.906   8.731   9.998 -0.0091 -0.0339  0.3369
  269loPI   C1A 4295   6.530   9.190   9.746  0.2300  0.0027 -0.0222
  269loPI   C2A 4296   6.503   9.333   9.269 -0.3806 -0.1530  0.1086
  269loPI   C3A 4297   6.397   9.554   8.974 -0.0071  0.2505  0.1508
  269loPI   C4A 4298   6.412   9.530   8.530 -0.3855  0.3470  0.3963
  269loPI   C5A 4299   6.560   9.574   8.054 -0.2387  0.0231 -0.1775
  269loPI   C6A 4300   6.720   9.995   7.889 -0.0442 -0.0219  0.0279
  269loPI   C1B 4301   6.943   8.912   9.573 -0.0483 -0.1101 -0.0731
  269loPI   C2B 4302   6.841   8.866   9.192  0.1379  0.1761  0.2798
  269loPI   C3B 4303   6.415   8.949   8.998  0.2817 -0.0164  0.2859
  269loPI   C4B 4304   6.408   9.034   8.564 -0.0576 -0.0349  0.2619
  270loPI    C1 4305   1.623  17.430  10.668  0.0003 -0.1715  0.0316
  270loPI    C2 4306   1.402  17.118  10.550 -0.1337 -0.0672  0.0042
  270loPI    C3 4307   1.342  17.280  10.910 -0.1920  0.0434 -0.0547
  270loPI   PO4 4308   1.934  17.424  10.560 -0.2159  0.0423  0.1390
  270loPI   GL1 4309   2.080  17.321  10.084 -0.0662  0.0356 -0.1059
  270loPI   GL2 4310   1.699  17.419  10.066 -0.0373 -0.2016  0.0661
  270loPI   C1A 4311   2.044  17.260   9.678  0.1636 -0.0965 -0.0601
  270loPI   C2A 4312   1.995  17.222   9.224 -0.1715  0.2919  0.0989
  270loPI   C3A 4313   2.159  17.219   8.791 -0.1053 -0.1519 -0.1559
  270loPI   C4A 4314   2.088  17.230   8.350  0.2284 -0.1773  0.0421
  270loPI   C5A 4315   2.081  17.240   7.891  0.2053 -0.1787  0.1271
  270loPI   C6A 4316   2.521  17.332   7.662  0.0602 -0.1959 -0.2428
  270loPI   C1B 4317   1.640  17.487   9.597 -0.1855 -0.0065  0.0427
  270loPI   C2B 4318   1.638  17.507   9.151 -0.1406  0.1017  0.0752
  270loPI   C3B 4319   1.648  17.413   8.786  0.1599  0.1190  0.0469
  270loPI   C4B 4320   1.424  17.324   8.333  0.0765 -0.0266 -0.0159
  271loPI    C1 4321   9.316  11.056  10.915  0.1061 -0.0500  0.0344
  271loPI    C2 4322   9.258  10.818  11.231  0.1402 -0.1559 -0.0384
  271loPI    C3 4323   9.000  11.114  11.153  0.0397 -0.2347 -0.0077
  271loPI   PO4 4324   9.326  10.912  10.650  0.0729  0.2108  0.0090
  271loPI   GL1 4325   9.274  10.868  10.239  0.0159  0.3030  0.0428
  271loPI   GL2 4326   9.004  11.060  10.169  0.0849 -0.1380  0.4417
  271loPI   C1A 4327   9.328  10.750   9.767  0.2302  0.1081  0.1989
  271loPI   C2A 4328   9.165  10.726   9.377 -0.0084 -0.2694  0.1676
  271loPI   C3A 4329   9.225  10.556   8.964 -0.0945 -0.1512  0.2755
  271loPI   C4A 4330   9.281  10.353   8.637  0.0767 -0.5473 -0.0273
  271loPI   C5A 4331   9.175  10.277   8.257 -0.0849 -0.1938  0.0328
  271loPI   C6A 4332   9.003  10.624   7.890  0.2452 -0.1042  0.0420
  271loPI   C1B 4333   9.023  11.200   9.703 -0.0783  0.1624 -0.1216
  271loPI   C2B 4334   9.060  11.161   9.108 -0.0850  0.0867  0.0914
  271loPI   C3B 4335   9.187  11.048   8.665 -0.1651 -0.2779  0.3422
  271loPI   C4B 4336   9.074  10.974   8.243 -0.0815 -0.1093  0.0492
  272loPI    C1 4337   1.360   2.338  10.518  0.0645 -0.1458 -0.1335
  272loPI    C2 4338   1.648   2.068  10.453  0.0756 -0.1464 -0.0819
  272loPI    C3 4339   1.312   1.961  10.644  0.1647 -0.0768  0.1167
  272loPI   PO4 4340   1.356   2.438  10.287  0.1903  0.1597  0.1023
  272loPI   GL1 4341   1.254   2.402   9.833 -0.1299 -0.0764 -0.1864
  272loPI   GL2 4342   1.057   2.162   9.728 -0.3466 -0.4709  0.0689
  272loPI   C1A 4343   1.216   2.618   9.354  0.1595 -0.1100  0.3995
  272loPI   C2A 4344   1.176   2.646   8.887  0.0669  0.0191 -0.1730
  272loPI   C3A 4345   1.159   2.738   8.491  0.0228 -0.2345 -0.0336
  272loPI   C4A 4346   1.129   2.829   8.026 -0.3432  0.2012 -0.0482
  272loPI   C5A 4347   1.077   3.064   7.618  0.3686  0.0870  0.1765
  272loPI   C6A 4348   1.203   3.254   7.235 -0.0935  0.2046  0.1662
  272loPI   C1B 4349   0.959   2.120   9.312  0.2712 -0.1455 -0.0245
  272loPI   C2B 4350   0.923   2.190   8.899  0.0772  0.2944  0.0014
  272loPI   C3B 4351   1.014   2.251   8.525  0.0152 -0.1729  0.0353
  272loPI   C4B 4352   1.035   2.305   8.086 -0.3796  0.1220  0.0248
  273loPI    C1 4353   6.985  16.136  10.619 -0.0710 -0.1420 -0.1941
  273loPI    C2 4354   6.946  15.783  10.803  0.0223  0.0362  0.1782
  273loPI    C3 4355   6.701  16.084  10.896  0.0766  0.1325  0.0138
  273loPI   PO4 4356   7.057  16.058  10.391 -0.1031 -0.0153  0.2313
  273loPI   GL1 4357   6.824  16.147  10.084 -0.2040  0.1768 -0.4455
  273loPI   GL2 4358   6.585  16.327   9.975 -0.2730 -0.0640 -0.0270
  273loPI   C1A 4359   6.684  15.967   9.630  0.2314 -0.0629 -0.0830
  273loPI   C2A 4360   6.688  15.747   9.194 -0.2121 -0.0022  0.0449
  273loPI   C3A 4361   6.696  15.812   8.753  0.2444  0.1412  0.0472
  273loPI   C4A 4362   6.595  15.660   8.345  0.0845 -0.0845  0.0816
  273loPI   C5A 4363   6.531  15.595   7.828  0.1441  0.2493  0.0181
  273loPI   C6A 4364   6.156  15.249   7.796  0.1275  0.2344  0.1425
  273loPI   C1B 4365   6.296  16.218   9.628 -0.3231  0.2226 -0.5154
  273loPI   C2B 4366   6.251  15.986   9.274  0.0488 -0.3282 -0.0492
  273loPI   C3B 4367   6.214  15.955   8.833  0.4058  0.0944 -0.1107
  273loPI   C4B 4368   6.175  15.939   8.419  0.0748 -0.3361  0.0857
  274loPI    C1 4369  15.937  12.218  10.826 -0.3874  0.1614  0.2522
  274loPI    C2 4370  15.950  12.247  11.225  0.0197  0.0893  0.2487
  274loPI    C3 4371  16.235  12.419  11.003 -0.1243  0.0054 -0.0045
  274loPI   PO4 4372  15.664  12.376  10.784  0.2136 -0.2136 -0.2247
  274loPI   GL1 4373  15.546  12.415  10.449 -0.0859 -0.1698 -0.0073
  274loPI   GL2 4374  15.439  12.205  10.297  0.1069  0.1150  0.3175
  274loPI   C1A 4375  15.570  12.593  10.026 -0.3415 -0.0398  0.1139
  274loPI   C2A 4376  15.570  12.601   9.463  0.3129 -0.2008  0.1313
  274loPI   C3A 4377  15.641  12.500   9.013  0.2514 -0.0825  0.2160
  274loPI   C4A 4378  15.624  12.425   8.512 -0.1959 -0.0158 -0.1951
  274loPI   C5A 4379  15.508  12.211   8.142 -0.1806 -0.1784 -0.0936
  274loPI   C6A 4380  15.466  12.443   7.806  0.3724  0.0835 -0.1094
  274loPI   C1B 4381  15.415  12.094   9.920 -0.1032 -0.0835  0.0822
  274loPI   C2B 4382  15.495  12.115   9.501 -0.0820 -0.2042 -0.1732
  274loPI   C3B 4383  15.410  12.015   9.090 -0.0852 -0.1711 -0.0424
  274loPI   C4B 4384  15.656  11.906   8.671  0.0708  0.1757 -0.2853
  275loPI    C1 4385  11.340   6.311  10.688 -0.3018 -0.0046  0.1015
  275loPI    C2 4386  11.706   6.281  10.846 -0.2573  0.2621  0.0548
  275loPI    C3 4387  11.390   6.133  11.042 -0.0662 -0.4635 -0.1531
  275loPI   PO4 4388  11.384   6.248  10.447 -0.1929  0.3647  0.0143
  275loPI   GL1 4389  11.359   6.403  10.098  0.0917  0.4239 -0.0273
  275loPI   GL2 4390  11.087   6.494   9.871  0.0647  0.2692 -0.0373
  275loPI   C1A 4391  11.511   6.764   9.734 -0.1805 -0.0811 -0.1739
  275loPI   C2A 4392  11.572   6.800   9.302  0.1209  0.0299  0.1562
  275loPI   C3A 4393  11.581   6.905   8.914 -0.1739  0.3321 -0.1548
  275loPI   C4A 4394  11.524   6.930   8.490 -0.0767 -0.0106  0.0392
  275loPI   C5A 4395  11.585   7.122   8.068 -0.2522 -0.2798  0.0936
  275loPI   C6A 4396  11.771   7.064   7.699  0.1677 -0.1597  0.1609
  275loPI   C1B 4397  11.144   6.703   9.465  0.2182  0.2665 -0.1270
  275loPI   C2B 4398  11.132   6.745   9.056 -0.0221 -0.1056 -0.3844
  275loPI   C3B 4399  11.035   6.750   8.552 -0.1678 -0.1880 -0.0840
  275loPI   C4B 4400  11.151   6.944   8.121 -0.1345  0.2552 -0.2103
  276loPI    C1 4401  15.037   4.676  10.214  0.0280  0.0303 -0.1815
  276loPI    C2 4402  14.927   4.664  10.598  0.1704 -0.1151 -0.1443
  276loPI    C3 4403  14.851   4.353  10.359  0.0694 -0.0190 -0.2380
  276loPI   PO4 4404  15.221   4.776  10.191 -0.3083 -0.4900  0.1867
  276loPI   GL1 4405  15.227   5.041   9.836  0.0201 -0.1659 -0.0340
  276loPI   GL2 4406  14.962   5.011   9.790 -0.2734  0.3153  0.0069
  276loPI   C1A 4407  15.336   5.310   9.470 -0.2234 -0.4436  0.0383
  276loPI   C2A 4408  15.302   5.542   9.129 -0.4000 -0.0064 -0.4211
  276loPI   C3A 4409  15.297   5.432   8.710 -0.1214 -0.0334  0.0362
  276loPI   C4A 4410  15.326   5.404   8.343 -0.2676 -0.0056 -0.1674
  276loPI   C5A 4411  15.319   5.332   7.905  0.0462  0.1478 -0.0453
  276loPI   C6A 4412  15.056   5.534   7.662 -0.2777  0.1045  0.2037
  276loPI   C1B 4413  15.039   4.936   9.384  0.0869 -0.1891 -0.1954
  276loPI   C2B 4414  15.116   5.021   8.949  0.0171 -0.3197 -0.2376
  276loPI   C3B 4415  15.110   4.840   8.576 -0.1417 -0.2671 -0.0127
  276loPI   C4B 4416  15.148   4.881   8.165 -0.0013  0.1009 -0.2183
  277loPI    C1 4417   1.154   3.324  10.607  0.2487 -0.0198 -0.0111
  277loPI    C2 4418   1.338   3.164  10.925  0.0904 -0.0092  0.0867
  277loPI    C3 4419   0.948   3.252  10.942  0.0974  0.0597 -0.0864
  277loPI   PO4 4420   1.306   3.662  10.516 -0.1304 -0.0049 -0.0934
  277loPI   GL1 4421   1.387   3.666  10.195  0.0839  0.1845 -0.1503
  277loPI   GL2 4422   1.326   3.975  10.168 -0.0430  0.2555  0.2965
  277loPI   C1A 4423   1.556   3.607   9.824  0.0564 -0.3423  0.1401
  277loPI   C2A 4424   1.566   3.563   9.371  0.3470  0.1602 -0.0074
  277loPI   C3A 4425   1.575   3.601   8.879  0.0498 -0.1186 -0.1561
  277loPI   C4A 4426   1.527   3.677   8.458  0.0149 -0.0112 -0.0452
  277loPI   C5A 4427   1.366   3.702   8.087  0.4242  0.1390 -0.3172
  277loPI   C6A 4428   1.181   3.624   7.712 -0.0183 -0.1834 -0.2215
  277loPI   C1B 4429   1.292   4.005   9.740  0.1740  0.1192  0.1006
  277loPI   C2B 4430   1.258   4.005   9.331 -0.2287  0.0812 -0.0587
  277loPI   C3B 4431   1.154   4.098   8.815  0.1959  0.1349 -0.4221
  277loPI   C4B 4432   1.219   4.105   8.374 -0.0884 -0.0976 -0.1643
  278loPI    C1 4433  10.661  11.418  10.721 -0.0059 -0.2405 -0.0475
  278loPI    C2 4434  10.605  11.462  11.115  0.0641  0.0859 -0.0717
  278loPI    C3 4435  10.709  11.106  10.966  0.2047  0.0001  0.2248
  278loPI   PO4 4436  10.429  11.510  10.665 -0.2248 -0.1762 -0.0425
  278loPI   GL1 4437  10.336  11.493  10.260  0.1619  0.2080  0.0978
  278loPI   GL2 4438  10.499  11.178  10.103  0.1257 -0.1258 -0.3471
  278loPI   C1A 4439  10.094  11.485   9.885  0.0664  0.1876 -0.0399
  278loPI   C2A 4440  10.037  11.260   9.562 -0.2745 -0.0863 -0.0195
  278loPI   C3A 4441  10.043  11.105   9.155  0.0513  0.2894 -0.2205
  278loPI   C4A 4442   9.891  11.139   8.680  0.0071 -0.0017 -0.2702
  278loPI   C5A 4443   9.609  11.149   8.331  0.0717  0.2274 -0.0076
  278loPI   C6A 4444   9.319  11.380   8.009 -0.1717 -0.2504 -0.0199
  278loPI   C1B 4445  10.553  11.295   9.663  0.2468 -0.0394  0.1319
  278loPI   C2B 4446  10.406  11.588   9.342  0.1058 -0.1255  0.1304
  278loPI   C3B 4447  10.204  11.483   8.898  0.1097 -0.0714 -0.1304
  278loPI   C4B 4448  10.136  11.556   8.481 -0.1270  0.2189  0.3495
  279loPI    C1 4449   9.250  17.184  10.166  0.3491 -0.0094  0.1284
  279loPI    C2 4450   9.036  17.394  10.431  0.0559 -0.2405  0.0798
  279loPI    C3 4451   9.435  17.382  10.461  0.0786  0.3104  0.0885
  279loPI   PO4 4452   9.147  17.184   9.991  0.0016  0.0912  0.1578
  279loPI   GL1 4453   9.199  16.963   9.615 -0.0008 -0.2511 -0.0067
  279loPI   GL2 4454   9.431  17.092   9.290  0.1753 -0.0847  0.2657
  279loPI   C1A 4455   9.276  16.613   9.389  0.0624  0.1443 -0.1011
  279loPI   C2A 4456   9.080  16.359   9.081  0.0185 -0.3505 -0.0835
  279loPI   C3A 4457   8.831  16.037   8.938  0.1047 -0.4784  0.2981
  279loPI   C4A 4458   8.415  16.049   8.713  0.0545  0.0426 -0.1485
  279loPI   C5A 4459   8.404  16.019   8.250  0.0394 -0.0338  0.1759
  279loPI   C6A 4460   8.584  15.797   7.887  0.0491 -0.2102  0.0794
  279loPI   C1B 4461   9.268  16.922   8.861  0.1704 -0.0827 -0.0917
  279loPI   C2B 4462   9.077  16.574   8.653 -0.1478  0.1440  0.0988
  279loPI   C3B 4463   9.061  16.188   8.513  0.0374 -0.2066  0.0986
  279loPI   C4B 4464   8.850  16.177   8.006 -0.0469 -0.1845  0.0168
  280loPI    C1 4465  15.952   5.168  10.498 -0.0359  0.1042 -0.2038
  280loPI    C2 4466  16.256   5.286  10.729 -0.2222  0.1454  0.0239
  280loPI    C3 4467  16.022   4.984  10.846 -0.1719  0.0067 -0.2271
  280loPI   PO4 4468  16.050   5.169  10.251 -0.1169  0.0234  0.0879
  280loPI   GL1 4469  16.071   4.961   9.982  0.1174  0.3872 -0.1393
  280loPI   GL2 4470  16.274   5.244   9.806 -0.1039  0.0454  0.0569
  280loPI   C1A 4471  16.004   4.801   9.617 -0.0719 -0.4405  0.1512
  280loPI   C2A 4472  16.021   4.730   9.187  0.0419  0.0050 -0.1292
  280loPI   C3A 4473  16.013   4.631   8.652  0.0593  0.0080 -0.3678
  280loPI   C4A 4474  16.009   4.490   8.257 -0.1464  0.0929 -0.2256
  280loPI   C5A 4475  15.856   4.385   7.823 -0.0706 -0.3148  0.2010
  280loPI   C6A 4476  15.924   4.394   7.402 -0.0495  0.1389  0.1074
  280loPI   C1B 4477  16.206   5.291   9.356  0.2348 -0.1661 -0.0996
  280loPI   C2B 4478  16.185   5.094   8.881  0.1715  0.2687 -0.1506
  280loPI   C3B 4479  16.170   5.106   8.388 -0.0436 -0.2214 -0.0229
  280loPI   C4B 4480  16.147   5.324   8.033 -0.0931 -0.0314 -0.1886
  281loPI    C1 4481   0.608  16.635  10.531  0.3287  0.0824  0.3126
  281loPI    C2 4482   0.989  16.585  10.421  0.2392 -0.2241  0.1295
  281loPI    C3 4483   0.864  16.446  10.774  0.3013 -0.1006  0.2011
  281loPI   PO4 4484   0.398  16.464  10.287 -0.4424 -0.0101  0.1590
  281loPI   GL1 4485   0.487  16.199   9.918  0.1154 -0.1386  0.1840
  281loPI   GL2 4486   0.711  15.988   9.975  0.2595 -0.0635 -0.0867
  281loPI   C1A 4487   0.650  16.357   9.518  0.0167  0.0803 -0.3925
  281loPI   C2A 4488   0.736  16.442   9.066  0.0211 -0.1764 -0.1106
  281loPI   C3A 4489   0.771  16.343   8.623 -0.1439  0.1448 -0.0837
  281loPI   C4A 4490   0.640  16.424   8.216 -0.1145  0.0368  0.2018
  281loPI   C5A 4491   0.576  16.117   7.931  0.3029  0.1136 -0.4486
  281loPI   C6A 4492   0.640  15.714   7.731 -0.3443  0.0123  0.2343
  281loPI   C1B 4493   0.775  15.893   9.501 -0.2625 -0.1605 -0.0747
  281loPI   C2B 4494   0.823  15.856   9.042  0.3407  0.2391  0.0950
  281loPI   C3B 4495   0.890  15.795   8.626 -0.2238  0.0089  0.0184
  281loPI   C4B 4496   0.809  15.686   8.181 -0.0232 -0.2091 -0.0247
  282loPI    C1 4497   5.232  12.108  10.449  0.1598  0.0866 -0.0283
  282loPI    C2 4498   5.354  12.285  10.786 -0.3138  0.1727  0.1055
  282loPI    C3 4499   5.613  12.075  10.565  0.0449  0.2707  0.4221
  282loPI   PO4 4500   5.107  12.308  10.366 -0.0684 -0.0876  0.0667
  282loPI   GL1 4501   5.245  12.492   9.960  0.0852 -0.2598  0.0243
  282loPI   GL2 4502   4.948  12.514   9.777  0.2051 -0.0508 -0.1510
  282loPI   C1A 4503   5.405  12.297   9.556 -0.4358  0.1967  0.2351
  282loPI   C2A 4504   5.386  12.393   9.078 -0.1092 -0.0965  0.2080
  282loPI   C3A 4505   5.379  12.354   8.646 -0.1100 -0.0569 -0.1711
  282loPI   C4A 4506   5.481  12.282   8.148  0.0559  0.2726 -0.0035
  282loPI   C5A 4507   5.275  12.605   7.755  0.4524  0.3211  0.1245
  282loPI   C6A 4508   5.225  12.906   7.336  0.0490  0.1078  0.1902
  282loPI   C1B 4509   4.892  12.693   9.314  0.1095 -0.0845  0.0299
  282loPI   C2B 4510   4.932  12.554   9.077 -0.0498 -0.0725 -0.0367
  282loPI   C3B 4511   4.901  12.604   8.683  0.1098  0.1849  0.0859
  282loPI   C4B 4512   5.158  12.674   8.280  0.1127  0.0868 -0.3281
  283loPI    C1 4513  11.764   1.406   9.791 -0.2002  0.0940 -0.0362
  283loPI    C2 4514  11.929   1.557  10.122  0.0353 -0.0796 -0.0716
  283loPI    C3 4515  11.941   1.765   9.781  0.0704 -0.0376 -0.0448
  283loPI   PO4 4516  11.974   1.007   9.758 -0.1471 -0.1074 -0.0766
  283loPI   GL1 4517  12.147   0.893   9.371  0.3466 -0.0607  0.1382
  283loPI   GL2 4518  12.375   0.657   9.325 -0.0635  0.0464 -0.4023
  283loPI   C1A 4519  12.504   1.065   9.093  0.1057  0.0577 -0.0458
  283loPI   C2A 4520  12.490   1.180   8.741  0.0997  0.3284  0.0694
  283loPI   C3A 4521  12.246   1.355   8.362  0.1267  0.0305  0.0363
  283loPI   C4A 4522  12.356   1.371   7.937 -0.1135 -0.2730  0.2479
  283loPI   C5A 4523  12.240   1.132   7.548 -0.0689 -0.2703  0.2161
  283loPI   C6A 4524  12.025   0.739   7.585 -0.0164 -0.3060 -0.0456
  283loPI   C1B 4525  12.428   0.534   8.942  0.2008 -0.2217 -0.3468
  283loPI   C2B 4526  12.477   0.338   8.650  0.0283 -0.0454  0.1190
  283loPI   C3B 4527  12.662   0.382   8.269 -0.2461  0.1415  0.1461
  283loPI   C4B 4528  12.579   0.404   7.872  0.0664  0.4739  0.2641
  284loPI    C1 4529   7.068   6.179  10.495 -0.1446  0.0224  0.0677
  284loPI    C2 4530   6.964   6.013  10.844  0.0197 -0.2415 -0.0064
  284loPI    C3 4531   7.079   6.395  10.832  0.2268 -0.2923  0.2661
  284loPI   PO4 4532   6.934   6.119  10.251  0.1576  0.0360 -0.3476
  284loPI   GL1 4533   6.973   6.285   9.965  0.2072 -0.0680 -0.0528
  284loPI   GL2 4534   6.964   6.522   9.747  0.3025  0.0256  0.0222
  284loPI   C1A 4535   6.655   6.172   9.566  0.0803 -0.2130  0.3344
  284loPI   C2A 4536   6.716   6.231   9.063  0.0707 -0.0974  0.1234
  284loPI   C3A 4537   6.716   6.210   8.692 -0.1279  0.3079  0.0048
  284loPI   C4A 4538   6.818   6.207   8.301  0.0353  0.0580 -0.1131
  284loPI   C5A 4539   6.968   5.918   8.031  0.0144  0.0059  0.0159
  284loPI   C6A 4540   7.177   5.743   7.621 -0.0084  0.0196 -0.0714
  284loPI   C1B 4541   7.086   6.521   9.371 -0.1088  0.0098 -0.1357
  284loPI   C2B 4542   7.029   6.654   8.942  0.0047 -0.1128 -0.0588
  284loPI   C3B 4543   6.921   6.626   8.553  0.0867  0.0821  0.2582
  284loPI   C4B 4544   7.084   6.680   8.151 -0.3198  0.0099 -0.0873
  285loPI    C1 4545  17.137  16.638  10.420 -0.0781  0.0117 -0.0431
  285loPI    C2 4546  16.803  16.446  10.526 -0.0969  0.0862  0.0332
  285loPI    C3 4547  17.030  16.621  10.805  0.0854 -0.0923 -0.0009
  285loPI   PO4 4548  17.313  16.497  10.309 -0.0838  0.0898  0.1538
  285loPI   GL1 4549  17.367  16.522   9.926  0.2044  0.0673  0.1937
  285loPI   GL2 4550  17.244  16.240   9.880  0.3399 -0.0797  0.4792
  285loPI   C1A 4551  17.047  16.626   9.569 -0.0013 -0.1369 -0.1112
  285loPI   C2A 4552  16.705  16.905   9.396 -0.2958 -0.1062  0.0976
  285loPI   C3A 4553  16.438  16.815   9.157 -0.0166  0.0870 -0.0666
  285loPI   C4A 4554  16.297  16.749   8.815 -0.0859 -0.0640  0.1721
  285loPI   C5A 4555  16.366  16.760   8.385 -0.2478 -0.0027  0.1682
  285loPI   C6A 4556  16.136  16.888   7.966  0.0375 -0.2205  0.2720
  285loPI   C1B 4557  17.096  16.125   9.423 -0.0484 -0.2258 -0.0455
  285loPI   C2B 4558  16.956  16.042   9.007 -0.0143 -0.2184 -0.0817
  285loPI   C3B 4559  16.981  16.016   8.512 -0.0480 -0.1354 -0.1189
  285loPI   C4B 4560  17.067  15.782   8.165 -0.0816  0.0626  0.0879
  286loPI    C1 4561   2.206   6.456  10.420 -0.1068 -0.1219  0.0134
  286loPI    C2 4562   1.883   6.648  10.556 -0.1827 -0.2065 -0.0459
  286loPI    C3 4563   1.922   6.255  10.619 -0.0497 -0.1806  0.0359
  286loPI   PO4 4564   2.266   6.531  10.173  0.0128  0.0299 -0.0464
  286loPI   GL1 4565   2.188   6.249   9.813 -0.2786 -0.1660  0.2431
  286loPI   GL2 4566   2.025   6.552   9.631  0.2425 -0.2024  0.0961
  286loPI   C1A 4567   2.142   5.828   9.626 -0.0907 -0.1508  0.0101
  286loPI   C2A 4568   2.227   5.835   9.199 -0.0676 -0.0884  0.0361
  286loPI   C3A 4569   2.500   5.976   8.881 -0.0869  0.0472  0.1488
  286loPI   C4A 4570   2.678   6.040   8.497 -0.4064 -0.1124 -0.0970
  286loPI   C5A 4571   2.655   5.963   8.125  0.0721 -0.0523  0.1323
  286loPI   C6A 4572   2.917   6.162   7.758 -0.0190 -0.0928 -0.0519
  286loPI   C1B 4573   2.063   6.254   9.343 -0.2424  0.2527  0.1143
  286loPI   C2B 4574   2.050   6.180   8.878  0.1709  0.2422 -0.0644
  286loPI   C3B 4575   2.321   6.413   8.551  0.2240  0.0073 -0.0892
  286loPI   C4B 4576   2.395   6.355   8.265  0.1175 -0.3646  0.2258
  287loPI    C1 4577   3.353   1.369  10.816  0.0943 -0.1402 -0.1293
  287loPI    C2 4578   3.285   1.576  10.481 -0.0374  0.0276 -0.0006
  287loPI    C3 4579   3.104   1.683  10.822  0.3268  0.0443  0.1916
  287loPI   PO4 4580   3.287   1.077  10.717  0.1224 -0.0462  0.1156
  287loPI   GL1 4581   3.249   0.979  10.326 -0.0303  0.1450  0.0929
  287loPI   GL2 4582   3.303   1.191  10.118  0.1577 -0.2312 -0.1672
  287loPI   C1A 4583   3.288   0.799   9.796 -0.1923  0.2321  0.0867
  287loPI   C2A 4584   3.323   0.732   9.390  0.1130  0.0129 -0.2087
  287loPI   C3A 4585   3.295   0.879   9.011 -0.0932 -0.2702  0.1174
  287loPI   C4A 4586   3.251   0.708   8.608  0.1245  0.1421  0.3228
  287loPI   C5A 4587   3.285   0.585   8.220 -0.0873 -0.1945 -0.1491
  287loPI   C6A 4588   3.323   0.295   7.895  0.1777  0.0432 -0.0802
  287loPI   C1B 4589   3.312   1.342   9.660 -0.0275  0.0275 -0.1760
  287loPI   C2B 4590   3.180   1.590   9.240 -0.0172  0.0722 -0.0714
  287loPI   C3B 4591   3.080   1.661   8.779 -0.1981 -0.3136 -0.0845
  287loPI   C4B 4592   3.038   1.758   8.359 -0.0862 -0.1148  0.1298
  288loPI    C1 4593  13.481   2.655  10.644 -0.3082  0.1755  0.1064
  288loPI    C2 4594  13.825   2.760  10.819 -0.0733 -0.0528 -0.2073
  288loPI    C3 4595  13.614   2.451  10.961  0.0698 -0.1801 -0.2693
  288loPI   PO4 4596  13.440   2.843  10.553  0.0256  0.2029 -0.1267
  288loPI   GL1 4597  13.641   3.026  10.165  0.1354  0.2276  0.0223
  288loPI   GL2 4598  13.587   3.340  10.035 -0.0575  0.1056  0.3230
  288loPI   C1A 4599  13.786   2.935   9.755  0.0094  0.0454  0.1917
  288loPI   C2A 4600  13.880   2.926   9.296  0.0836  0.4150  0.0853
  288loPI   C3A 4601  13.923   2.829   8.911 -0.3116 -0.2478 -0.0552
  288loPI   C4A 4602  13.968   2.890   8.535  0.1011 -0.1250 -0.0880
  288loPI   C5A 4603  14.131   2.991   8.100  0.1216 -0.1381  0.1412
  288loPI   C6A 4604  13.910   3.246   7.772 -0.2526 -0.2726 -0.1358
  288loPI   C1B 4605  13.607   3.306   9.512  0.1675 -0.0469  0.1055
  288loPI   C2B 4606  13.602   3.301   9.064 -0.2420 -0.1216  0.0708
  288loPI   C3B 4607  13.617   3.306   8.675 -0.0817 -0.2037 -0.0698
  288loPI   C4B 4608  13.633   3.313   8.333  0.0447  0.0659 -0.0191
  289loPI    C1 4609   7.670  16.833  10.812  0.1249 -0.2885  0.2200
  289loPI    C2 4610   7.446  17.149  10.912  0.2003 -0.0967 -0.1976
  289loPI    C3 4611   7.768  17.056  11.130 -0.0057 -0.0834  0.1186
  289loPI   PO4 4612   7.715  16.926  10.487  0.1207 -0.3740 -0.1981
  289loPI   GL1 4613   7.730  16.824  10.076  0.0016 -0.1856  0.0328
  289loPI   GL2 4614   7.486  16.922   9.861  0.0843  0.3879 -0.4180
  289loPI   C1A 4615   7.935  16.617   9.746 -0.1937  0.1403 -0.1106
  289loPI   C2A 4616   8.086  16.570   9.359  0.2008  0.1084  0.4125
  289loPI   C3A 4617   8.056  16.403   8.911  0.3586 -0.1686  0.0425
  289loPI   C4A 4618   8.002  16.232   8.462  0.0484  0.0191  0.0054
  289loPI   C5A 4619   8.002  16.084   8.004  0.4660  0.0336 -0.0353
  289loPI   C6A 4620   8.302  16.147   7.725 -0.1911  0.0689 -0.1839
  289loPI   C1B 4621   7.412  16.607   9.597 -0.0940 -0.1070 -0.0545
  289loPI   C2B 4622   7.157  16.499   9.148 -0.1446 -0.0106  0.0948
  289loPI   C3B 4623   7.175  16.601   8.717  0.0172 -0.3032  0.2182
  289loPI   C4B 4624   6.968  16.555   8.368 -0.1473 -0.0742  0.4303
  290loPI    C1 4625   3.013  12.365  10.651  0.1479  0.1457  0.2808
  290loPI    C2 4626   3.119  11.981  10.612  0.2127  0.1952 -0.0641
  290loPI    C3 4627   2.891  12.095  10.920 -0.0675 -0.1754 -0.1265
  290loPI   PO4 4628   3.259  12.505  10.589  0.0966 -0.0001 -0.2712
  290loPI   GL1 4629   3.591  12.600  10.244  0.0630  0.0233 -0.2560
  290loPI   GL2 4630   3.915  12.445  10.158  0.1740 -0.0667  0.1976
  290loPI   C1A 4631   3.509  12.457   9.809 -0.2685  0.0809 -0.3155
  290loPI   C2A 4632   3.662  12.334   9.353  0.1833  0.2676  0.0546
  290loPI   C3A 4633   3.562  12.227   8.975 -0.0300  0.1337  0.1345
  290loPI   C4A 4634   3.631  12.278   8.556  0.1166  0.0237 -0.0744
  290loPI   C5A 4635   3.701  12.320   8.053 -0.1550  0.1479 -0.3812
  290loPI   C6A 4636   3.990  12.254   7.790 -0.0932  0.2205 -0.1463
  290loPI   C1B 4637   3.986  12.648   9.711 -0.1006  0.2014  0.1606
  290loPI   C2B 4638   4.108  12.587   9.216  0.2358 -0.1897 -0.1641
  290loPI   C3B 4639   4.007  12.573   8.847 -0.3921 -0.1597 -0.0797
  290loPI   C4B 4640   4.122  12.522   8.396  0.1657  0.0032  0.1340
  291loPI    C1 4641  10.867   5.425  10.428 -0.0948  0.2390  0.0912
  291loPI    C2 4642  10.860   5.140  10.708 -0.1377  0.0513 -0.0987
  291loPI    C3 4643  10.747   5.512  10.800 -0.2224 -0.0250  0.1140
  291loPI   PO4 4644  10.782   5.226  10.212 -0.0347 -0.1097  0.1755
  291loPI   GL1 4645  10.885   5.339   9.794 -0.2171  0.3754 -0.0016
  291loPI   GL2 4646  10.828   4.939   9.785 -0.0994  0.1482 -0.0127
  291loPI   C1A 4647  11.070   5.382   9.333 -0.2302  0.1887  0.0249
  291loPI   C2A 4648  11.206   5.465   8.911 -0.1477 -0.1191 -0.3906
  291loPI   C3A 4649  11.358   5.488   8.468 -0.0763 -0.0435  0.2951
  291loPI   C4A 4650  11.625   5.647   8.128 -0.0307  0.1083  0.0034
  291loPI   C5A 4651  11.780   5.685   7.708  0.1066  0.0690  0.0364
  291loPI   C6A 4652  12.251   5.780   7.606  0.2513  0.0427 -0.0638
  291loPI   C1B 4653  10.885   4.936   9.452  0.0059 -0.0422 -0.1898
  291loPI   C2B 4654  10.769   5.160   9.008 -0.2038 -0.1741  0.0433
  291loPI   C3B 4655  10.897   5.238   8.602 -0.0946 -0.3144  0.0964
  291loPI   C4B 4656  11.106   5.080   8.264 -0.2858  0.0972 -0.0283
  292loPI    C1 4657  11.431  15.559  10.825 -0.1071  0.1798  0.2430
  292loPI    C2 4658  11.476  15.268  11.095  0.0842 -0.1492 -0.1327
  292loPI    C3 4659  11.405  15.643  11.215  0.1331 -0.2928  0.3680
  292loPI   PO4 4660  11.508  15.449  10.614 -0.2579  0.2652  0.1414
  292loPI   GL1 4661  11.654  15.543  10.177 -0.1689 -0.2010 -0.1336
  292loPI   GL2 4662  11.922  15.518  10.225 -0.1964  0.2154 -0.1548
  292loPI   C1A 4663  11.887  15.356   9.758  0.4802  0.3119 -0.0378
  292loPI   C2A 4664  12.251  15.304   9.472  0.0285 -0.0497 -0.1393
  292loPI   C3A 4665  12.355  15.442   9.000 -0.0152 -0.1621  0.0829
  292loPI   C4A 4666  12.582  15.512   8.576 -0.1447 -0.3086 -0.1323
  292loPI   C5A 4667  12.736  15.580   8.203 -0.0400 -0.1977  0.0544
  292loPI   C6A 4668  13.069  15.805   8.001  0.0019 -0.0607  0.2564
  292loPI   C1B 4669  12.097  15.772   9.927  0.3133  0.0544  0.1570
  292loPI   C2B 4670  12.359  15.825   9.407 -0.1089 -0.0935  0.2364
  292loPI   C3B 4671  12.562  15.955   9.006  0.0485 -0.0457 -0.3079
  292loPI   C4B 4672  12.601  16.068   8.511 -0.3068 -0.0462 -0.1111
  293loPI    C1 4673   8.446  14.928  10.743  0.0552  0.0115 -0.2534
  293loPI    C2 4674   8.261  14.598  10.872  0.1347  0.0708  0.0173
  293loPI    C3 4675   8.077  14.953  10.893  0.1735  0.0903  0.0310
  293loPI   PO4 4676   8.466  14.890  10.497 -0.2361  0.1017 -0.0050
  293loPI   GL1 4677   8.569  14.809  10.195 -0.0068 -0.1308 -0.0732
  293loPI   GL2 4678   8.842  14.734  10.098 -0.1738 -0.1226  0.0644
  293loPI   C1A 4679   8.446  14.551   9.862 -0.1899 -0.3557  0.0609
  293loPI   C2A 4680   8.338  14.198   9.405  0.0208  0.0035 -0.3201
  293loPI   C3A 4681   8.187  13.969   9.139 -0.2252 -0.1979  0.1165
  293loPI   C4A 4682   8.052  14.035   8.637  0.2106  0.0061 -0.0591
  293loPI   C5A 4683   8.416  13.974   8.291 -0.0896 -0.2063 -0.3074
  293loPI   C6A 4684   8.851  13.955   8.205  0.2413 -0.1463  0.1492
  293loPI   C1B 4685   8.800  14.896   9.682  0.1497  0.0077  0.1307
  293loPI   C2B 4686   8.574  14.604   9.406 -0.0186 -0.2428 -0.0077
  293loPI   C3B 4687   8.533  14.395   9.015 -0.1146 -0.2728  0.1240
  293loPI   C4B 4688   8.527  14.373   8.547 -0.2057  0.0019 -0.2679
  294loPI    C1 4689   8.974   9.485  10.544 -0.0148  0.2275 -0.0479
  294loPI    C2 4690   8.848   9.757  10.808 -0.1267 -0.1079  0.2513
  294loPI    C3 4691   9.194   9.565  10.868  0.0896  0.1615 -0.1017
  294loPI   PO4 4692   8.736   9.367  10.436  0.2211  0.1970 -0.0409
  294loPI   GL1 4693   8.988   9.119  10.113  0.0160 -0.0835 -0.1554
  294loPI   GL2 4694   9.000   8.845  10.059 -0.1050 -0.2966  0.2089
  294loPI   C1A 4695   9.082   9.457   9.737  0.1681  0.0289  0.0976
  294loPI   C2A 4696   9.130   9.274   9.382  0.0710 -0.1651  0.0670
  294loPI   C3A 4697   9.164   9.221   8.986 -0.0249 -0.0354  0.1157
  294loPI   C4A 4698   9.048   8.994   8.695 -0.3277 -0.0088  0.1516
  294loPI   C5A 4699   8.885   8.927   8.297  0.1415  0.1257  0.0720
  294loPI   C6A 4700   8.516   8.692   8.281  0.1110  0.1306 -0.0946
  294loPI   C1B 4701   9.018   8.863   9.602  0.0113 -0.3309  0.0467
  294loPI   C2B 4702   8.920   8.792   9.217  0.2821 -0.0628  0.1130
  294loPI   C3B 4703   8.564   8.850   8.937 -0.1292  0.1116  0.0920
  294loPI   C4B 4704   8.548   9.095   8.601  0.0084  0.0143 -0.0989
  295loPI    C1 4705   3.426  11.541  10.470  0.1128  0.1640  0.1428
  295loPI    C2 4706   3.466  11.229  10.718 -0.0441 -0.0317 -0.0736
  295loPI    C3 4707   3.323  11.577  10.855  0.1365 -0.0511  0.1704
  295loPI   PO4 4708   3.291  11.453  10.316  0.1115 -0.1774 -0.0884
  295loPI   GL1 4709   2.933  11.719  10.058 -0.1738 -0.0019 -0.0686
  295loPI   GL2 4710   3.000  11.354   9.877 -0.0417 -0.0399  0.2863
  295loPI   C1A 4711   2.772  11.767   9.588 -0.0277  0.3312 -0.1443
  295loPI   C2A 4712   2.797  11.707   9.189  0.0785 -0.0380 -0.1785
  295loPI   C3A 4713   2.752  11.671   8.717 -0.1286 -0.2865  0.2264
  295loPI   C4A 4714   2.466  11.625   8.364  0.2216  0.0789  0.1532
  295loPI   C5A 4715   2.225  11.241   8.170  0.0029 -0.0454 -0.0381
  295loPI   C6A 4716   1.980  11.030   8.001  0.1225  0.3164  0.1178
  295loPI   C1B 4717   2.974  11.290   9.464 -0.2186  0.1494 -0.2794
  295loPI   C2B 4718   3.128  10.952   9.187  0.3313 -0.1279 -0.4019
  295loPI   C3B 4719   3.294  10.912   8.723  0.0879  0.2464 -0.5494
  295loPI   C4B 4720   3.232  10.934   8.275  0.3752  0.0150 -0.0832
  296loPI    C1 4721   5.172   3.291  10.571  0.0588 -0.1795 -0.0259
  296loPI    C2 4722   5.421   3.287  10.884  0.0166  0.0472  0.0126
  296loPI    C3 4723   5.446   3.580  10.613  0.0284 -0.1279 -0.1776
  296loPI   PO4 4724   5.227   3.031  10.447 -0.1521 -0.1641 -0.3270
  296loPI   GL1 4725   5.154   2.941   9.948  0.2208  0.0612 -0.1610
  296loPI   GL2 4726   4.982   2.665   9.814 -0.2575 -0.0994 -0.0269
  296loPI   C1A 4727   5.356   3.222   9.679  0.3535  0.3007 -0.4029
  296loPI   C2A 4728   5.359   3.403   9.253 -0.0391  0.2561  0.2592
  296loPI   C3A 4729   5.632   3.377   8.971 -0.2244 -0.3181  0.0882
  296loPI   C4A 4730   5.674   3.311   8.510  0.2599 -0.0989  0.1489
  296loPI   C5A 4731   5.546   3.192   8.080  0.1961  0.4104  0.0799
  296loPI   C6A 4732   5.286   3.390   7.788  0.1972 -0.1005 -0.0406
  296loPI   C1B 4733   5.123   2.828   9.410  0.1138  0.3002 -0.0687
  296loPI   C2B 4734   5.292   2.968   9.025  0.1072 -0.1546  0.2373
  296loPI   C3B 4735   5.267   3.055   8.595 -0.1425 -0.0298  0.0259
  296loPI   C4B 4736   5.092   3.223   8.235  0.0578  0.4157  0.1111
  297loPI    C1 4737   9.114   1.082   9.676 -0.0223  0.1185  0.2635
  297loPI    C2 4738   8.809   1.063   9.418 -0.1890  0.1915  0.4526
  297loPI    C3 4739   9.028   0.737   9.493  0.2099  0.2936 -0.1923
  297loPI   PO4 4740   9.243   1.334   9.618 -0.2462 -0.2192 -0.1554
  297loPI   GL1 4741   9.334   1.316   9.209  0.2824 -0.3914 -0.0451
  297loPI   GL2 4742   9.112   1.588   9.109  0.1040 -0.1933  0.0079
  297loPI   C1A 4743   9.465   1.076   8.786 -0.1291 -0.5407  0.0580
  297loPI   C2A 4744   9.533   1.097   8.390  0.1706  0.1655  0.0375
  297loPI   C3A 4745   9.480   0.804   8.164 -0.1190  0.0363  0.0586
  297loPI   C4A 4746   9.834   0.513   8.014 -0.2278 -0.2116 -0.0461
  297loPI   C5A 4747  10.119   0.450   7.662 -0.3101  0.0918 -0.1103
  297loPI   C6A 4748  10.097   0.204   7.332  0.1631  0.0425  0.0641
  297loPI   C1B 4749   9.385   1.681   8.795  0.0499 -0.0835  0.0801
  297loPI   C2B 4750   9.431   1.609   8.411  0.1220 -0.4026  0.1472
  297loPI   C3B 4751   9.816   1.596   8.095 -0.0931 -0.0773  0.0283
  297loPI   C4B 4752  10.131   1.680   7.804  0.0845  0.0141 -0.0078
  298loPI    C1 4753  17.213   5.784  10.733 -0.1532  0.1702  0.2150
  298loPI    C2 4754  17.211   6.110  10.966  0.4497  0.1282  0.2950
  298loPI    C3 4755  17.131   5.751  11.123  0.2332  0.1775  0.3008
  298loPI   PO4 4756  17.485   5.832  10.640 -0.0084  0.0178 -0.1325
  298loPI   GL1 4757  17.676   5.939  10.245  0.1238  0.0083 -0.0207
  298loPI   GL2 4758  17.435   5.752  10.181 -0.1268  0.2162  0.1505
  298loPI   C1A 4759  17.713   6.270   9.873  0.4080 -0.0448  0.4663
  298loPI   C2A 4760  17.572   6.446   9.532 -0.0793  0.4449 -0.2579
  298loPI   C3A 4761  17.684   6.347   9.144  0.1705 -0.1287 -0.1610
  298loPI   C4A 4762  17.632   5.957   8.843 -0.0008  0.1869  0.1714
  298loPI   C5A 4763  17.404   5.718   8.588  0.0984 -0.2708 -0.2137
  298loPI   C6A 4764  17.081   5.351   8.454 -0.2710 -0.2316 -0.1223
  298loPI   C1B 4765  17.446   5.823   9.788  0.0607 -0.2042 -0.2311
  298loPI   C2B 4766  17.506   5.791   9.318 -0.1512  0.0601  0.0233
  298loPI   C3B 4767  17.586   5.424   9.044  0.0910 -0.0789 -0.1456
  298loPI   C4B 4768  17.669   5.200   8.708 -0.0653  0.0447  0.0412
  299loPI    C1 4769  13.284   0.336  10.394  0.0173 -0.2613  0.2919
  299loPI    C2 4770  13.602   0.531  10.540 -0.2436  0.3326  0.0974
  299loPI    C3 4771  13.389   0.289  10.777  0.0356  0.3504  0.3719
  299loPI   PO4 4772  13.298   0.343  10.145  0.0734  0.0307  0.1385
  299loPI   GL1 4773  13.404   0.390   9.738  0.0628  0.0457 -0.0307
  299loPI   GL2 4774  13.643   0.527   9.602  0.1759  0.0164 -0.0554
  299loPI   C1A 4775  13.489   0.131   9.317 -0.0814  0.1522 -0.2763
  299loPI   C2A 4776  13.582   0.022   8.894 -0.1498 -0.2788 -0.1425
  299loPI   C3A 4777  13.494  -0.062   8.441  0.1556 -0.1384 -0.0696
  299loPI   C4A 4778  13.423  -0.094   7.949 -0.0270 -0.3395 -0.2063
  299loPI   C5A 4779  13.345  -0.318   7.499  0.0963 -0.1194 -0.2459
  299loPI   C6A 4780  12.993  -0.656   7.499  0.0827  0.0988 -0.4040
  299loPI   C1B 4781  13.753   0.532   9.185 -0.0722 -0.0854  0.0699
  299loPI   C2B 4782  13.727   0.509   8.750 -0.1601 -0.0537  0.0179
  299loPI   C3B 4783  13.634   0.560   8.338  0.1189 -0.2581  0.4440
  299loPI   C4B 4784  13.725   0.557   7.885  0.4347  0.2123 -0.2206
  300loPI    C1 4785  10.337  13.246  10.545  0.1053  0.2279  0.0031
  300loPI    C2 4786  10.202  13.333  10.911  0.0369 -0.0188  0.0384
  300loPI    C3 4787  10.040  13.509  10.590 -0.0834  0.0001  0.1090
  300loPI   PO4 4788  10.486  12.946  10.636 -0.0882  0.2815 -0.0333
  300loPI   GL1 4789  10.710  12.657  10.323 -0.0221  0.0427  0.2931
  300loPI   GL2 4790  10.489  12.451  10.168  0.1077 -0.0763  0.0822
  300loPI   C1A 4791  10.687  12.797   9.922 -0.0436 -0.0139 -0.0889
  300loPI   C2A 4792  11.005  12.769   9.559  0.2546 -0.2462  0.1380
  300loPI   C3A 4793  11.164  12.922   9.099 -0.0498  0.1020 -0.0308
  300loPI   C4A 4794  11.366  13.222   8.767 -0.2739 -0.0362  0.1382
  300loPI   C5A 4795  11.469  13.305   8.450 -0.0146 -0.1767  0.0387
  300loPI   C6A 4796  11.267  13.201   8.085 -0.0709  0.1917  0.0246
  300loPI   C1B 4797  10.412  12.404   9.718  0.0812  0.0516 -0.0716
  300loPI   C2B 4798  10.346  12.356   9.241 -0.0601  0.0398 -0.0139
  300loPI   C3B 4799  10.344  12.426   8.786 -0.1722 -0.0589  0.0825
  300loPI   C4B 4800  10.331  12.327   8.384 -0.1903  0.0579 -0.2105
  301loPI    C1 4801  15.441   2.060  10.683  0.3562 -0.3042  0.2485
  301loPI    C2 4802  15.248   1.752  10.515 -0.2432  0.1775  0.0155
  301loPI    C3 4803  15.233   1.806  10.912 -0.1829 -0.0558  0.0509
  301loPI   PO4 4804  15.386   2.212  10.564  0.1197 -0.3733  0.0916
  301loPI   GL1 4805  15.127   2.108  10.159  0.4034 -0.1889  0.0489
  301loPI   GL2 4806  15.019   2.284   9.904 -0.1182  0.1567 -0.2641
  301loPI   C1A 4807  14.967   1.858   9.700  0.5269 -0.0977 -0.0465
  301loPI   C2A 4808  14.970   1.672   9.258  0.0223  0.3212  0.2828
  301loPI   C3A 4809  14.922   1.736   8.746  0.2409 -0.1463  0.0842
  301loPI   C4A 4810  15.035   1.703   8.352  0.0866  0.1286  0.1159
  301loPI   C5A 4811  14.904   1.598   7.916 -0.0113  0.3950  0.0295
  301loPI   C6A 4812  14.918   1.386   7.582 -0.2497 -0.2932  0.0419
  301loPI   C1B 4813  15.173   2.239   9.472  0.0958 -0.2897 -0.1365
  301loPI   C2B 4814  15.069   2.126   9.127 -0.1015 -0.1996 -0.0758
  301loPI   C3B 4815  15.174   2.146   8.607 -0.0920  0.1016 -0.1300
  301loPI   C4B 4816  15.271   2.168   8.174  0.3841  0.0903 -0.4529
  302loPI    C1 4817   6.465  14.236  10.360 -0.2026 -0.2574 -0.0861
  302loPI    C2 4818   6.281  14.183  10.711 -0.0315  0.1204  0.0657
  302loPI    C3 4819   6.681  14.186  10.693 -0.0383 -0.0967 -0.1666
  302loPI   PO4 4820   6.299  14.470  10.178  0.1429 -0.3120  0.1351
  302loPI   GL1 4821   6.371  14.473   9.690 -0.2097 -0.1043  0.3466
  302loPI   GL2 4822   6.256  14.087   9.807 -0.1353  0.0024 -0.1832
  302loPI   C1A 4823   6.347  14.441   9.234  0.2491 -0.0789  0.1667
  302loPI   C2A 4824   6.180  14.453   8.734 -0.2372 -0.0483  0.0450
  302loPI   C3A 4825   6.323  14.382   8.319  0.1409 -0.1606  0.0625
  302loPI   C4A 4826   6.151  14.306   7.941 -0.2340 -0.1167  0.2139
  302loPI   C5A 4827   6.008  14.563   7.663 -0.2763 -0.0789 -0.1452
  302loPI   C6A 4828   5.996  14.767   7.317 -0.2939  0.2405 -0.1317
  302loPI   C1B 4829   6.228  13.958   9.467  0.0831  0.1529 -0.0493
  302loPI   C2B 4830   6.226  13.923   9.009 -0.1092 -0.0618 -0.2038
  302loPI   C3B 4831   6.261  13.975   8.544 -0.0096 -0.0203 -0.0923
  302loPI   C4B 4832   6.368  13.925   8.124  0.1077  0.0396 -0.2823
  303loPI    C1 4833   8.352   3.083  10.247  0.1209 -0.0718 -0.1049
  303loPI    C2 4834   8.462   3.272  10.582  0.4971 -0.1121 -0.2010
  303loPI    C3 4835   8.466   2.872  10.567  0.0224 -0.1261 -0.1054
  303loPI   PO4 4836   8.135   3.193  10.162  0.0184  0.1478  0.1530
  303loPI   GL1 4837   8.162   3.573   9.851  0.1730 -0.1104 -0.1611
  303loPI   GL2 4838   8.455   3.400   9.880 -0.1752  0.0701  0.0424
  303loPI   C1A 4839   7.940   3.814   9.480  0.1420 -0.1962  0.0815
  303loPI   C2A 4840   7.868   3.849   9.012  0.0039 -0.1642  0.2008
  303loPI   C3A 4841   7.843   3.883   8.468  0.1829 -0.0406 -0.0549
  303loPI   C4A 4842   7.814   3.751   8.094 -0.0781 -0.0623 -0.1278
  303loPI   C5A 4843   7.461   3.515   7.798  0.3175  0.0465 -0.0496
  303loPI   C6A 4844   7.079   3.306   7.649 -0.3104  0.2695  0.0713
  303loPI   C1B 4845   8.646   3.427   9.578  0.0473  0.1329  0.3838
  303loPI   C2B 4846   8.698   3.467   9.084 -0.1729  0.0820 -0.1610
  303loPI   C3B 4847   8.623   3.509   8.656  0.0942  0.0018  0.0707
  303loPI   C4B 4848   8.686   3.422   8.222  0.0595 -0.1495 -0.0043
  304loPI    C1 4849  13.761  12.493  10.919 -0.0255 -0.0349 -0.0007
  304loPI    C2 4850  13.602  12.286  10.615  0.0387 -0.1052  0.0133
  304loPI    C3 4851  13.915  12.138  10.816 -0.0881 -0.1217  0.2006
  304loPI   PO4 4852  13.799  12.706  10.828  0.0427 -0.0138 -0.3748
  304loPI   GL1 4853  14.089  12.791  10.395  0.0570  0.1870 -0.1046
  304loPI   GL2 4854  13.908  12.448  10.282 -0.3211  0.1885  0.1095
  304loPI   C1A 4855  14.148  12.823   9.993  0.0971 -0.1263 -0.1503
  304loPI   C2A 4856  14.222  12.725   9.575  0.0124  0.2495 -0.2825
  304loPI   C3A 4857  14.331  12.617   9.195  0.0181  0.1929  0.2385
  304loPI   C4A 4858  14.281  12.605   8.685 -0.4635 -0.0410  0.1608
  304loPI   C5A 4859  14.614  12.525   8.336  0.1389 -0.0729  0.2947
  304loPI   C6A 4860  15.053  12.404   8.082 -0.0428 -0.2108 -0.0166
  304loPI   C1B 4861  13.589  12.601  10.000 -0.4831 -0.1915 -0.0430
  304loPI   C2B 4862  13.335  12.730   9.743 -0.0010  0.1479  0.3324
  304loPI   C3B 4863  13.386  12.757   9.279  0.1572 -0.2455 -0.0723
  304loPI   C4B 4864  13.382  12.846   8.892  0.0112  0.2523  0.1774
  305loPI    C1 4865  15.093   0.193  10.415  0.1259  0.1203  0.1140
  305loPI    C2 4866  15.065   0.031  10.780 -0.2420 -0.0091  0.0329
  305loPI    C3 4867  15.004   0.423  10.729 -0.0140  0.0408  0.1339
  305loPI   PO4 4868  15.279  -0.023  10.254 -0.1049 -0.1933  0.2119
  305loPI   GL1 4869  15.221  -0.088   9.861 -0.1488  0.0839 -0.0405
  305loPI   GL2 4870  15.514  -0.232   9.798  0.0431  0.0770 -0.0319
  305loPI   C1A 4871  14.933  -0.124   9.598  0.1212 -0.0607  0.1649
  305loPI   C2A 4872  14.899  -0.166   9.286  0.1313  0.0412  0.0618
  305loPI   C3A 4873  14.870  -0.153   8.865  0.0251  0.2266 -0.0943
  305loPI   C4A 4874  14.859  -0.227   8.399 -0.0951 -0.1911 -0.1327
  305loPI   C5A 4875  14.978  -0.168   8.055  0.0937 -0.0867  0.0918
  305loPI   C6A 4876  14.908   0.036   7.757 -0.1003 -0.2340  0.0033
  305loPI   C1B 4877  15.414  -0.133   9.394  0.2831 -0.1396 -0.1445
  305loPI   C2B 4878  15.372  -0.092   8.943 -0.1979 -0.1105 -0.1241
  305loPI   C3B 4879  15.385  -0.084   8.517 -0.0532 -0.0404  0.2942
  305loPI   C4B 4880  15.467  -0.137   8.078  0.0683 -0.0268  0.2581
  306loPI    C1 4881  10.678  13.852  10.878 -0.0543  0.0357 -0.1962
  306loPI    C2 4882  10.991  13.861  10.628  0.0840  0.0519 -0.0243
  306loPI    C3 4883  10.984  14.099  10.950 -0.0802  0.0109  0.0036
  306loPI   PO4 4884  10.475  13.735  10.634  0.0102  0.2733 -0.2073
  306loPI   GL1 4885  10.454  13.599  10.242 -0.1902  0.0792  0.2017
  306loPI   GL2 4886  10.507  13.295  10.047  0.1058  0.1780  0.1695
  306loPI   C1A 4887  10.346  13.783   9.877  0.3298  0.0406 -0.0471
  306loPI   C2A 4888  10.479  13.714   9.397 -0.3063 -0.0591 -0.2242
  306loPI   C3A 4889  10.411  13.937   8.990 -0.3134  0.0176  0.2709
  306loPI   C4A 4890  10.322  13.768   8.530  0.0027 -0.2139  0.0626
  306loPI   C5A 4891  10.065  13.555   8.144 -0.1282 -0.1696 -0.0757
  306loPI   C6A 4892   9.847  13.187   7.814 -0.1802 -0.2141 -0.1036
  306loPI   C1B 4893  10.675  13.218   9.667  0.0127  0.3296 -0.0977
  306loPI   C2B 4894  10.783  13.282   9.217  0.3187 -0.1381 -0.0585
  306loPI   C3B 4895  10.572  13.368   8.800 -0.0023  0.1382 -0.2463
  306loPI   C4B 4896  10.478  13.334   8.406 -0.0284  0.0106 -0.0711
  307loPI    C1 4897  15.845   1.625  10.751 -0.0233  0.1492  0.1362
  307loPI    C2 4898  15.569   1.477  11.000 -0.1844  0.0733 -0.0844
  307loPI    C3 4899  15.725   1.839  11.067 -0.0192 -0.0605  0.2820
  307loPI   PO4 4900  15.749   1.671  10.524 -0.3825 -0.1717  0.3953
  307loPI   GL1 4901  15.503   1.806  10.056  0.1015  0.2453 -0.2782
  307loPI   GL2 4902  15.767   1.675  10.033 -0.0262  0.2276  0.2077
  307loPI   C1A 4903  15.529   1.852   9.632  0.1516  0.1671  0.0270
  307loPI   C2A 4904  15.523   1.773   9.211 -0.1126  0.0458 -0.1782
  307loPI   C3A 4905  15.505   1.772   8.798 -0.1316  0.2529  0.1906
  307loPI   C4A 4906  15.538   1.773   8.307  0.0590  0.1876  0.1140
  307loPI   C5A 4907  15.435   1.714   7.849 -0.0535 -0.0166 -0.0441
  307loPI   C6A 4908  15.390   1.362   7.542 -0.0522  0.1525  0.0731
  307loPI   C1B 4909  15.984   1.964   9.760  0.0552  0.4300  0.1034
  307loPI   C2B 4910  15.967   1.837   9.421  0.0821  0.0890 -0.1385
  307loPI   C3B 4911  15.974   1.753   8.964 -0.1263  0.2854  0.1792
  307loPI   C4B 4912  15.846   1.467   8.631  0.5987  0.1485 -0.5156
  308loPI    C1 4913   6.076  16.189  10.456  0.0397  0.2604 -0.2702
  308loPI    C2 4914   6.471  16.251  10.484  0.0655 -0.0719  0.2318
  308loPI    C3 4915   6.250  16.215  10.815 -0.3481 -0.1446 -0.0441
  308loPI   PO4 4916   5.963  16.264  10.289 -0.1435  0.3944 -0.1079
  308loPI   GL1 4917   5.839  16.284   9.880  0.0211 -0.0756 -0.2374
  308loPI   GL2 4918   5.707  16.689   9.958  0.0666  0.3904  0.1120
  308loPI   C1A 4919   5.908  16.479   9.444 -0.2838 -0.3283  0.0895
  308loPI   C2A 4920   5.707  16.771   9.156  0.0279  0.2593 -0.0748
  308loPI   C3A 4921   5.717  16.730   8.743 -0.1826  0.0808  0.1184
  308loPI   C4A 4922   5.611  16.814   8.278  0.0681  0.1315  0.0369
  308loPI   C5A 4923   5.367  16.928   7.912 -0.0128  0.3136  0.2777
  308loPI   C6A 4924   5.222  16.862   7.463 -0.1460 -0.0309 -0.1058
  308loPI   C1B 4925   5.972  16.914   9.571  0.1068  0.1647 -0.0712
  308loPI   C2B 4926   6.120  17.022   9.176  0.0018 -0.1263 -0.1649
  308loPI   C3B 4927   6.162  17.028   8.731  0.1715 -0.0573  0.1679
  308loPI   C4B 4928   6.040  17.015   8.246  0.1686  0.2567 -0.0406
  309loPI    C1 4929   7.470  12.956  10.764 -0.1686 -0.1158  0.1101
  309loPI    C2 4930   7.539  13.348  10.722 -0.0376 -0.1493  0.0074
  309loPI    C3 4931   7.728  13.140  11.008 -0.3579 -0.0728  0.2814
  309loPI   PO4 4932   7.468  12.931  10.357 -0.1717  0.1404 -0.0368
  309loPI   GL1 4933   7.668  13.017   9.980  0.2622  0.2862 -0.1979
  309loPI   GL2 4934   7.837  12.723  10.041 -0.1898 -0.1721 -0.1195
  309loPI   C1A 4935   7.821  13.204   9.518 -0.2215 -0.2402 -0.0588
  309loPI   C2A 4936   7.716  13.205   9.120  0.2574  0.2412  0.1210
  309loPI   C3A 4937   7.814  13.290   8.709 -0.0706  0.1100 -0.0633
  309loPI   C4A 4938   7.621  13.310   8.416 -0.3685 -0.3276  0.3352
  309loPI   C5A 4939   7.493  13.485   8.045 -0.1493  0.2017 -0.0111
  309loPI   C6A 4940   7.289  13.291   7.611 -0.0921 -0.1911 -0.1296
  309loPI   C1B 4941   7.826  12.746   9.556  0.1530 -0.2723 -0.0742
  309loPI   C2B 4942   7.739  12.672   9.155 -0.1048  0.0869 -0.0387
  309loPI   C3B 4943   7.703  12.751   8.662  0.1469  0.1260 -0.1846
  309loPI   C4B 4944   7.744  12.742   8.201  0.0611 -0.3237  0.1966
  310loPI    C1 4945  13.555  10.535  10.435 -0.1889  0.0208  0.1244
  310loPI    C2 4946  13.455  10.492  10.050 -0.0335  0.2881  0.0512
  310loPI    C3 4947  13.540  10.855  10.194  0.5953  0.1066  0.1653
  310loPI   PO4 4948  13.324  10.436  10.538 -0.1122 -0.3183  0.0087
  310loPI   GL1 4949  13.018  10.265  10.254  0.1518  0.1940  0.3558
  310loPI   GL2 4950  13.028  10.641  10.190  0.1757  0.0084 -0.1884
  310loPI   C1A 4951  12.675  10.211   9.936 -0.1364  0.1013 -0.0310
  310loPI   C2A 4952  12.729  10.377   9.495  0.1731 -0.0380 -0.2489
  310loPI   C3A 4953  12.604  10.481   9.071 -0.2522  0.2137  0.2257
  310loPI   C4A 4954  12.589  10.616   8.601  0.2257 -0.0448 -0.1131
  310loPI   C5A 4955  12.821  10.799   8.245  0.0954 -0.0446 -0.1998
  310loPI   C6A 4956  13.203  10.747   7.877 -0.4568 -0.1617  0.2079
  310loPI   C1B 4957  13.179  10.753   9.721  0.1798 -0.1627 -0.2967
  310loPI   C2B 4958  13.284  10.482   9.471 -0.0433  0.0582  0.1662
  310loPI   C3B 4959  13.426  10.296   9.044  0.0507  0.0305  0.1472
  310loPI   C4B 4960  13.776  10.208   8.776  0.2043 -0.0047  0.0440
  311loPI    C1 4961   2.561  16.709  10.393 -0.0027 -0.2018  0.1149
  311loPI    C2 4962   2.591  17.033  10.626 -0.1668 -0.1170  0.0194
  311loPI    C3 4963   2.914  16.891  10.439 -0.1288  0.1009 -0.0834
  311loPI   PO4 4964   2.284  16.846  10.321 -0.1219  0.2383  0.0175
  311loPI   GL1 4965   2.034  16.535  10.138  0.0668 -0.1375  0.1244
  311loPI   GL2 4966   1.950  16.826   9.934 -0.0106  0.2984 -0.3310
  311loPI   C1A 4967   1.938  16.310   9.750  0.2602 -0.2077  0.2068
  311loPI   C2A 4968   2.059  16.240   9.270 -0.0218 -0.1214  0.0677
  311loPI   C3A 4969   2.192  16.219   8.889 -0.4438  0.0261 -0.1415
  311loPI   C4A 4970   2.237  16.225   8.388  0.0078  0.4253 -0.1940
  311loPI   C5A 4971   1.933  16.177   8.023  0.2066 -0.0005  0.2567
  311loPI   C6A 4972   1.864  16.448   7.566  0.1418 -0.0698 -0.2062
  311loPI   C1B 4973   1.962  16.745   9.483  0.0353 -0.1314  0.0454
  311loPI   C2B 4974   2.142  16.748   9.013 -0.0487 -0.1426  0.0230
  311loPI   C3B 4975   2.138  16.697   8.522 -0.0501  0.2647  0.1850
  311loPI   C4B 4976   1.988  16.796   8.048 -0.0310 -0.2187  0.0613
  312loPI    C1 4977  13.455   7.887  10.733 -0.1241 -0.1650 -0.2292
  312loPI    C2 4978  13.587   8.130  11.023 -0.0412 -0.1116 -0.3110
  312loPI    C3 4979  13.299   7.863  11.101  0.0906 -0.2059 -0.1390
  312loPI   PO4 4980  13.415   8.055  10.575 -0.2278 -0.4626 -0.0892
  312loPI   GL1 4981  13.302   8.373  10.344  0.2619 -0.0523  0.1456
  312loPI   GL2 4982  13.386   8.272  10.065  0.1219  0.2600  0.0136
  312loPI   C1A 4983  12.965   8.546   9.948  0.0820 -0.0667  0.2625
  312loPI   C2A 4984  12.931   8.603   9.540 -0.0371 -0.0750  0.3218
  312loPI   C3A 4985  13.006   8.579   9.059  0.2099  0.1607  0.0286
  312loPI   C4A 4986  13.061   8.622   8.589  0.1284 -0.0314 -0.1661
  312loPI   C5A 4987  12.929   8.299   8.161 -0.1159  0.4040 -0.1931
  312loPI   C6A 4988  12.559   8.221   7.832  0.1514 -0.0625 -0.0972
  312loPI   C1B 4989  13.284   8.210   9.695  0.1568  0.0582 -0.2747
  312loPI   C2B 4990  13.221   8.210   9.307 -0.2360 -0.0078 -0.2315
  312loPI   C3B 4991  13.324   8.263   8.848 -0.1469  0.2386 -0.1377
  312loPI   C4B 4992  13.400   8.318   8.373 -0.1114 -0.1077 -0.2582
  313loPI    C1 4993   5.585  16.583  10.419 -0.0076 -0.3910  0.0045
  313loPI    C2 4994   5.505  16.584  10.811 -0.0621 -0.0702 -0.0043
  313loPI    C3 4995   5.884  16.600  10.685 -0.0560  0.1315  0.0368
  313loPI   PO4 4996   5.384  16.774  10.334 -0.3464  0.1004 -0.0302
  313loPI   GL1 4997   5.182  16.600   9.977  0.0189  0.0676 -0.1537
  313loPI   GL2 4998   5.237  16.342   9.892  0.0018  0.0795 -0.0087
  313loPI   C1A 4999   5.152  16.599   9.488  0.0154  0.0133 -0.2617
  313loPI   C2A 5000   5.230  16.481   9.012  0.0820  0.1008  0.1053
  313loPI   C3A 5001   5.246  16.575   8.541 -0.0813  0.1207 -0.2379
  313loPI   C4A 5002   5.234  16.478   8.166  0.1734 -0.1960  0.0722
  313loPI   C5A 5003   5.234  16.169   7.800  0.0913  0.1820  0.2462
  313loPI   C6A 5004   4.863  16.083   7.544  0.2616 -0.2739 -0.1357
  313loPI   C1B 5005   5.512  16.256   9.473 -0.1119 -0.0795  0.0733
  313loPI   C2B 5006   5.685  16.216   9.042 -0.0994  0.1085  0.2027
  313loPI   C3B 5007   5.698  16.234   8.610 -0.0890  0.1227 -0.0101
  313loPI   C4B 5008   5.638  16.155   8.121 -0.1035  0.1261 -0.1772
  314loPI    C1 5009  10.546   4.781  10.213  0.1429 -0.0260  0.0222
  314loPI    C2 5010  10.512   4.721  10.607  0.0894  0.0220  0.0249
  314loPI    C3 5011  10.835   4.588  10.412 -0.0957 -0.4121  0.0038
  314loPI   PO4 5012  10.351   4.674  10.106 -0.0344 -0.1880  0.1045
  314loPI   GL1 5013  10.210   4.695   9.770  0.1112 -0.1407  0.1039
  314loPI   GL2 5014   9.962   4.909   9.640 -0.3763  0.1072  0.0046
  314loPI   C1A 5015  10.369   4.772   9.323 -0.1302  0.0803  0.2523
  314loPI   C2A 5016  10.423   4.808   8.895 -0.0793  0.0321  0.0030
  314loPI   C3A 5017  10.480   4.875   8.407  0.0386  0.0931 -0.0776
  314loPI   C4A 5018  10.212   5.024   8.089  0.4301 -0.4403  0.1243
  314loPI   C5A 5019  10.018   5.387   7.857 -0.2672 -0.1475  0.0086
  314loPI   C6A 5020   9.941   5.844   8.054  0.2699  0.4148 -0.0406
  314loPI   C1B 5021   9.797   5.057   9.233  0.0420 -0.5770 -0.1339
  314loPI   C2B 5022   9.713   5.483   8.966  0.3211 -0.0045  0.0723
  314loPI   C3B 5023   9.575   5.687   8.543  0.0313 -0.0049 -0.0506
  314loPI   C4B 5024   9.189   5.969   8.481  0.4349 -0.0953  0.2288
  315loPI    C1 5025   1.715  12.317  11.061  0.0423 -0.0618  0.2215
  315loPI    C2 5026   2.111  12.369  11.081  0.0414  0.1218 -0.1546
  315loPI    C3 5027   1.907  12.259  11.407  0.3787  0.1771  0.0801
  315loPI   PO4 5028   1.613  12.332  10.828 -0.0153 -0.1912  0.1766
  315loPI   GL1 5029   1.610  12.366  10.472  0.1105  0.0803 -0.1135
  315loPI   GL2 5030   1.298  12.405  10.311 -0.0899  0.1349 -0.1112
  315loPI   C1A 5031   1.699  12.255  10.009 -0.0136  0.3574  0.2122
  315loPI   C2A 5032   1.778  12.112   9.628  0.1546  0.1247  0.2424
  315loPI   C3A 5033   1.882  12.239   9.303  0.0384 -0.0106 -0.0998
  315loPI   C4A 5034   1.794  12.237   8.930  0.0870  0.0618  0.1238
  315loPI   C5A 5035   1.853  12.292   8.561  0.1248 -0.1156  0.1623
  315loPI   C6A 5036   1.551  12.303   8.130  0.1385 -0.0177  0.0388
  315loPI   C1B 5037   1.357  12.620   9.919  0.1020  0.1399 -0.2437
  315loPI   C2B 5038   1.246  12.852   9.769  0.2012  0.0428 -0.2067
  315loPI   C3B 5039   1.329  12.975   9.442 -0.1392 -0.1218 -0.1517
  315loPI   C4B 5040   1.339  13.060   9.000  0.0128 -0.0341 -0.1381
  316loPI    C1 5041   2.522  14.864  10.500 -0.3005  0.0385 -0.1027
  316loPI    C2 5042   2.690  15.208  10.614 -0.1221 -0.0680 -0.0402
  316loPI    C3 5043   2.524  14.966  10.886  0.0786 -0.2028 -0.0352
  316loPI   PO4 5044   2.284  15.043  10.282 -0.1148 -0.0199 -0.1451
  316loPI   GL1 5045   2.168  14.864   9.880  0.0690  0.2079  0.2064
  316loPI   GL2 5046   2.255  14.525   9.813 -0.1324 -0.0473  0.0823
  316loPI   C1A 5047   2.184  15.072   9.469 -0.2787  0.0271 -0.1033
  316loPI   C2A 5048   2.092  15.058   8.984 -0.1842 -0.1238 -0.0441
  316loPI   C3A 5049   2.116  15.163   8.500 -0.0859 -0.0632 -0.0724
  316loPI   C4A 5050   1.996  15.332   8.116 -0.2041 -0.2149  0.0581
  316loPI   C5A 5051   1.690  15.696   8.032 -0.3753  0.1081  0.2185
  316loPI   C6A 5052   1.226  15.596   7.808 -0.0357  0.1533  0.0104
  316loPI   C1B 5053   2.178  14.564   9.368 -0.1670 -0.5190  0.1704
  316loPI   C2B 5054   2.138  14.525   8.934  0.2689  0.0278 -0.1007
  316loPI   C3B 5055   2.108  14.650   8.431  0.0788  0.1999 -0.1744
  316loPI   C4B 5056   2.278  14.718   8.074 -0.1656 -0.1716  0.1743
  317loPI    C1 5057   2.588   2.577  10.758 -0.1052 -0.1148  0.0296
  317loPI    C2 5058   2.273   2.822  10.779 -0.1654 -0.1917  0.0290
  317loPI    C3 5059   2.498   2.757  11.103 -0.0297  0.0205 -0.0204
  317loPI   PO4 5060   2.768   2.646  10.570  0.0079 -0.3462  0.1863
  317loPI   GL1 5061   2.907   2.595  10.199 -0.1625  0.1854 -0.1574
  317loPI   GL2 5062   2.781   2.784   9.990  0.4049 -0.1487  0.1074
  317loPI   C1A 5063   3.150   2.483   9.708 -0.1459 -0.1229 -0.2493
  317loPI   C2A 5064   3.078   2.521   9.330 -0.2036 -0.1792  0.0582
  317loPI   C3A 5065   3.053   2.522   8.839 -0.2796  0.0115  0.1192
  317loPI   C4A 5066   2.983   2.597   8.379 -0.0278  0.1149 -0.2102
  317loPI   C5A 5067   2.933   2.540   8.022 -0.1152  0.0756 -0.0035
  317loPI   C6A 5068   2.793   2.821   7.587 -0.1236 -0.0890 -0.3889
  317loPI   C1B 5069   2.788   2.883   9.524  0.0469  0.2429 -0.2764
  317loPI   C2B 5070   2.732   2.954   9.069  0.0313 -0.0477 -0.1722
  317loPI   C3B 5071   2.627   3.016   8.557 -0.0323  0.0449  0.1320
  317loPI   C4B 5072   2.704   2.987   8.038 -0.0336 -0.0314  0.2123
  318loPI    C1 5073   5.102  16.937  10.752  0.1832  0.0678 -0.2484
  318loPI    C2 5074   5.246  17.284  10.888 -0.1041  0.0514  0.1132
  318loPI    C3 5075   5.309  16.947  11.094 -0.3083 -0.0191  0.0620
  318loPI   PO4 5076   4.938  17.004  10.565 -0.1468  0.0077  0.0683
  318loPI   GL1 5077   4.923  17.010  10.189 -0.0219 -0.0936  0.3897
  318loPI   GL2 5078   4.583  16.863  10.156  0.1751 -0.0373  0.0482
  318loPI   C1A 5079   4.958  16.999   9.749 -0.0453  0.2050 -0.0261
  318loPI   C2A 5080   4.779  16.846   9.352  0.1785 -0.1416 -0.1134
  318loPI   C3A 5081   4.874  16.763   8.878 -0.0070  0.1706  0.1777
  318loPI   C4A 5082   4.777  16.731   8.445 -0.0481  0.0789 -0.2261
  318loPI   C5A 5083   4.589  16.944   8.104  0.1215 -0.0199  0.0099
  318loPI   C6A 5084   4.869  17.122   7.784  0.0964 -0.1132  0.1156
  318loPI   C1B 5085   4.445  17.010   9.701 -0.1821  0.2318 -0.0071
  318loPI   C2B 5086   4.324  17.037   9.248 -0.2088  0.1874 -0.0353
  318loPI   C3B 5087   4.395  17.008   8.785  0.1123  0.1291  0.0805
  318loPI   C4B 5088   4.281  17.036   8.456  0.1491  0.1340 -0.1191
  319loPI    C1 5089   3.582   7.759   9.924  0.0398  0.0454 -0.0605
  319loPI    C2 5090   3.949   7.655  10.046 -0.0181  0.0877  0.1536
  319loPI    C3 5091   3.627   7.528  10.248 -0.1362 -0.1735 -0.1893
  319loPI   PO4 5092   3.645   7.741   9.658 -0.0277  0.1453 -0.1763
  319loPI   GL1 5093   3.839   8.036   9.325 -0.1918  0.3214 -0.0815
  319loPI   GL2 5094   3.569   7.925   9.230 -0.1513 -0.0220  0.1560
  319loPI   C1A 5095   3.803   8.335   9.021  0.0284 -0.2488 -0.4440
  319loPI   C2A 5096   3.757   8.450   8.667  0.3628 -0.2700  0.0336
  319loPI   C3A 5097   3.686   8.366   8.232  0.3097  0.1448 -0.2134
  319loPI   C4A 5098   3.906   8.497   7.768 -0.2670 -0.1206 -0.0883
  319loPI   C5A 5099   4.420   8.632   7.679  0.2829  0.2410 -0.2257
  319loPI   C6A 5100   4.651   8.498   8.010  0.1119 -0.1120  0.3904
  319loPI   C1B 5101   3.270   8.218   9.074  0.0073 -0.3505  0.3262
  319loPI   C2B 5102   3.116   8.342   8.704  0.0926 -0.0304  0.0947
  319loPI   C3B 5103   2.936   8.415   8.308  0.2131 -0.0106  0.0692
  319loPI   C4B 5104   2.587   8.454   8.196 -0.1053 -0.0551 -0.0082
  320loPI    C1 5105   9.699  14.714  10.578 -0.0290  0.1073  0.1367
  320loPI    C2 5106   9.630  14.320  10.574  0.0018  0.1026 -0.0030
  320loPI    C3 5107   9.746  14.500  10.912  0.2021 -0.0457  0.0095
  320loPI   PO4 5108   9.500  14.789  10.526  0.0958 -0.1412  0.0875
  320loPI   GL1 5109   9.313  14.833  10.159  0.0312  0.2140  0.1386
  320loPI   GL2 5110   9.306  15.201  10.334  0.4111 -0.0294  0.0364
  320loPI   C1A 5111   9.251  14.755   9.761 -0.2398  0.0354 -0.1062
  320loPI   C2A 5112   9.271  14.611   9.351 -0.0422  0.0474  0.1172
  320loPI   C3A 5113   9.396  14.370   9.025  0.1064  0.1153 -0.1596
  320loPI   C4A 5114   9.532  14.340   8.616 -0.1199 -0.0617  0.0154
  320loPI   C5A 5115   9.344  14.289   8.160  0.2630  0.1331  0.1015
  320loPI   C6A 5116   9.173  14.020   7.761  0.0949  0.2756  0.2726
  320loPI   C1B 5117   9.182  15.246   9.898 -0.0562  0.0111  0.0065
  320loPI   C2B 5118   9.170  15.192   9.422 -0.0224  0.2588 -0.2863
  320loPI   C3B 5119   9.161  15.038   9.045  0.0096  0.1977  0.0571
  320loPI   C4B 5120   8.907  14.671   8.850 -0.0725  0.0954 -0.1689
  321loPI    C1 5121   9.885  10.664  10.711 -0.0378  0.1556  0.0375
  321loPI    C2 5122   9.673  10.430  10.956  0.1911 -0.0130  0.0785
  321loPI    C3 5123   9.809  10.783  11.085 -0.1386  0.1386  0.0226
  321loPI   PO4 5124  10.027  10.415  10.516  0.1623 -0.0117 -0.2429
  321loPI   GL1 5125   9.907  10.290  10.057  0.0944 -0.4269 -0.0211
  321loPI   GL2 5126   9.741  10.017  10.148 -0.0294 -0.1328  0.1047
  321loPI   C1A 5127   9.707  10.219   9.641 -0.1012 -0.0797  0.1422
  321loPI   C2A 5128   9.326  10.296   9.486  0.3997  0.0414 -0.3167
  321loPI   C3A 5129   9.003  10.154   9.210 -0.1702  0.0355  0.0610
  321loPI   C4A 5130   9.008   9.905   8.717  0.0323 -0.1403 -0.2912
  321loPI   C5A 5131   9.216   9.780   8.425 -0.3859 -0.0258  0.1067
  321loPI   C6A 5132   9.438   9.892   8.019  0.2137  0.1582  0.1111
  321loPI   C1B 5133  10.059   9.748   9.927 -0.3063  0.1268  0.2130
  321loPI   C2B 5134   9.984   9.760   9.469 -0.1164  0.2445 -0.3511
  321loPI   C3B 5135   9.978   9.918   9.183 -0.1247  0.0884 -0.1744
  321loPI   C4B 5136  10.109  10.166   8.662 -0.1132  0.2308  0.0216
  322loPI    C1 5137  15.368  14.363  10.946  0.0524  0.0367 -0.0500
  322loPI    C2 5138  15.745  14.416  11.068  0.0871 -0.2893 -0.0066
  322loPI    C3 5139  15.444  14.590  11.267  0.2182  0.0479 -0.0964
  322loPI   PO4 5140  15.351  14.313  10.644  0.1813 -0.0913 -0.3115
  322loPI   GL1 5141  15.031  14.169  10.234 -0.3055 -0.0416  0.2167
  322loPI   GL2 5142  15.036  13.907  10.097 -0.0319  0.1592 -0.0895
  322loPI   C1A 5143  15.117  14.438   9.827  0.1255 -0.3943  0.1102
  322loPI   C2A 5144  15.200  14.302   9.368 -0.1867 -0.0937  0.2456
  322loPI   C3A 5145  15.184  14.249   8.958  0.4512 -0.1139 -0.1554
  322loPI   C4A 5146  15.147  14.200   8.545  0.1884  0.0099 -0.2593
  322loPI   C5A 5147  14.997  14.255   8.120 -0.0181  0.1081 -0.1044
  322loPI   C6A 5148  15.057  14.506   7.768 -0.2009  0.2194  0.1429
  322loPI   C1B 5149  15.021  13.822   9.724  0.4608  0.0850  0.0349
  322loPI   C2B 5150  14.901  13.829   9.336  0.1739 -0.1142  0.1354
  322loPI   C3B 5151  15.022  13.788   8.830 -0.1872 -0.0935  0.0765
  322loPI   C4B 5152  14.861  13.678   8.345  0.1792 -0.3427  0.1771
  323loPI    C1 5153   5.153   4.301  10.314  0.2910 -0.1179 -0.0888
  323loPI    C2 5154   5.359   4.154  10.624  0.2521  0.1523  0.0686
  323loPI    C3 5155   4.999   4.317  10.683 -0.0136 -0.3130 -0.2043
  323loPI   PO4 5156   5.247   4.231  10.130  0.1846  0.2509 -0.3382
  323loPI   GL1 5157   5.307   4.309   9.757 -0.0555  0.3537  0.0388
  323loPI   GL2 5158   5.604   4.252   9.603 -0.3188  0.0439  0.3686
  323loPI   C1A 5159   5.320   4.697   9.501 -0.2567  0.0057 -0.2845
  323loPI   C2A 5160   5.436   4.821   9.051 -0.0211 -0.0298  0.2409
  323loPI   C3A 5161   5.407   4.874   8.654 -0.1964 -0.5083  0.2409
  323loPI   C4A 5162   5.222   4.675   8.323 -0.0291  0.0113  0.0592
  323loPI   C5A 5163   5.195   4.248   8.352 -0.1584 -0.2523 -0.0655
  323loPI   C6A 5164   5.082   4.027   8.569 -0.3636 -0.1777  0.1318
  323loPI   C1B 5165   5.718   4.397   9.299  0.0098  0.1262 -0.2944
  323loPI   C2B 5166   5.507   4.287   8.926  0.0411 -0.2110 -0.1611
  323loPI   C3B 5167   5.655   4.458   8.536  0.1074 -0.0746 -0.3424
  323loPI   C4B 5168   5.934   4.825   8.420 -0.2504 -0.0653 -0.0560
  324loPI    C1 5169  12.967   1.312  10.307  0.1488 -0.1518  0.0724
  324loPI    C2 5170  12.817   0.988  10.488 -0.1432 -0.1043 -0.0785
  324loPI    C3 5171  12.813   1.341  10.675 -0.3012 -0.0861 -0.1151
  324loPI   PO4 5172  12.838   1.203  10.018  0.1556  0.1123  0.4139
  324loPI   GL1 5173  13.125   1.125   9.681 -0.1490 -0.1104  0.0914
  324loPI   GL2 5174  13.302   0.871   9.626 -0.1003  0.0610 -0.0609
  324loPI   C1A 5175  12.997   1.177   9.219  0.0965 -0.3514  0.0134
  324loPI   C2A 5176  12.936   1.284   8.845 -0.3028 -0.2448  0.1405
  324loPI   C3A 5177  12.898   1.347   8.371  0.1018  0.4023 -0.1378
  324loPI   C4A 5178  12.945   1.295   8.005  0.0675  0.1488  0.3962
  324loPI   C5A 5179  12.744   1.264   7.597  0.2242  0.0633  0.0349
  324loPI   C6A 5180  12.819   1.129   7.222 -0.0726 -0.0058  0.0492
  324loPI   C1B 5181  13.402   0.838   9.233 -0.1621 -0.2377  0.0570
  324loPI   C2B 5182  13.345   0.857   8.838 -0.1958  0.0239  0.0318
  324loPI   C3B 5183  13.269   0.923   8.443  0.3528  0.0784  0.0753
  324loPI   C4B 5184  13.293   0.908   7.976 -0.0026  0.1978  0.1671
  325loPI    C1 5185   6.937  15.179  10.333  0.0617 -0.0154 -0.0073
  325loPI    C2 5186   6.575  15.258  10.484  0.1481 -0.0442  0.2202
  325loPI    C3 5187   6.898  15.281  10.718  0.3105  0.1121 -0.0139
  325loPI   PO4 5188   6.911  15.212  10.123 -0.0344  0.0798  0.1019
  325loPI   GL1 5189   6.619  15.256   9.923  0.0215 -0.0788  0.0472
  325loPI   GL2 5190   6.490  15.475   9.897  0.0112 -0.1347  0.1707
  325loPI   C1A 5191   6.702  15.338   9.501 -0.2083  0.2321 -0.0017
  325loPI   C2A 5192   6.655  15.226   9.067  0.0394 -0.0205 -0.1219
  325loPI   C3A 5193   6.677  15.263   8.623 -0.2972 -0.0798  0.0653
  325loPI   C4A 5194   6.602  15.187   8.195  0.0607  0.1159  0.1144
  325loPI   C5A 5195   6.800  15.178   7.802 -0.1384  0.0514  0.2159
  325loPI   C6A 5196   7.073  15.229   7.424 -0.1795  0.1017 -0.0774
  325loPI   C1B 5197   6.277  15.521   9.524 -0.1640 -0.0116 -0.2688
  325loPI   C2B 5198   6.201  15.444   9.111  0.1984 -0.0693 -0.0392
  325loPI   C3B 5199   6.262  15.460   8.692 -0.0979 -0.0893 -0.0525
  325loPI   C4B 5200   6.191  15.434   8.245 -0.1017 -0.2889  0.0569
  326loPI    C1 5201  16.956   5.384  10.448  0.3243 -0.1071 -0.1264
  326loPI    C2 5202  16.794   5.489  10.798  0.1540 -0.0382 -0.2245
  326loPI    C3 5203  17.128   5.269  10.790  0.0356 -0.2305 -0.0192
  326loPI   PO4 5204  17.000   5.521  10.291  0.0208  0.0039  0.1128
  326loPI   GL1 5205  17.147   5.452   9.903  0.1117 -0.1138  0.1298
  326loPI   GL2 5206  17.066   5.134  10.018  0.0800  0.0546 -0.1645
  326loPI   C1A 5207  17.213   5.195   9.448  0.2836  0.2385 -0.1315
  326loPI   C2A 5208  17.190   4.993   9.058 -0.5632 -0.0730 -0.0979
  326loPI   C3A 5209  17.012   4.764   8.809  0.0263 -0.0389  0.0156
  326loPI   C4A 5210  17.148   4.863   8.392  0.0766  0.0190 -0.1538
  326loPI   C5A 5211  17.173   4.889   7.903  0.2171 -0.0407 -0.0303
  326loPI   C6A 5212  17.098   4.815   7.483  0.2882  0.0200 -0.1493
  326loPI   C1B 5213  16.726   5.183   9.754 -0.0565  0.1048  0.1630
  326loPI   C2B 5214  16.757   5.199   9.290 -0.0041  0.1843  0.0313
  326loPI   C3B 5215  16.733   5.211   8.872 -0.0018  0.0062 -0.1704
  326loPI   C4B 5216  16.637   5.116   8.401  0.1119  0.0703 -0.0397
  327loPI    C1 5217   7.105   1.491  10.310  0.2529  0.2375 -0.2205
  327loPI    C2 5218   7.190   1.146  10.493  0.0607  0.2253 -0.1526
  327loPI    C3 5219   7.088   1.467  10.709 -0.4708  0.1278 -0.2450
  327loPI   PO4 5220   6.900   1.386  10.163 -0.0879  0.2725 -0.3061
  327loPI   GL1 5221   7.003   1.270   9.650  0.1996  0.3875  0.0905
  327loPI   GL2 5222   6.809   1.510   9.682  0.1708  0.0181  0.0917
  327loPI   C1A 5223   6.970   1.264   9.132 -0.0466  0.0174 -0.2420
  327loPI   C2A 5224   7.142   1.542   8.846  0.1313  0.1587 -0.1238
  327loPI   C3A 5225   7.144   1.522   8.351  0.1061  0.0463  0.1151
  327loPI   C4A 5226   6.938   1.242   8.089 -0.0812 -0.2077 -0.0405
  327loPI   C5A 5227   6.584   0.929   7.924 -0.0238 -0.3264  0.1554
  327loPI   C6A 5228   6.365   0.574   7.613 -0.1241  0.4794  0.1184
  327loPI   C1B 5229   6.615   1.665   9.262  0.1025  0.1192  0.0557
  327loPI   C2B 5230   6.607   1.575   8.806  0.1802  0.0013  0.2672
  327loPI   C3B 5231   6.719   1.724   8.348 -0.1622  0.0547 -0.1305
  327loPI   C4B 5232   6.895   1.906   7.999 -0.1361 -0.0383  0.2485
  328loPI    C1 5233   8.023   4.510  10.647 -0.2673  0.0162  0.2799
  328loPI    C2 5234   7.967   4.474  11.041 -0.1447 -0.4368  0.2625
  328loPI    C3 5235   8.334   4.436  10.887 -0.1719 -0.1299  0.1140
  328loPI   PO4 5236   7.836   4.511  10.511  0.1622  0.5638  0.4820
  328loPI   GL1 5237   7.717   4.515  10.031 -0.2511 -0.1534  0.0990
  328loPI   GL2 5238   7.501   4.817  10.094  0.0415  0.1734  0.0157
  328loPI   C1A 5239   7.947   4.715   9.715 -0.1157  0.0265  0.0780
  328loPI   C2A 5240   7.922   4.704   9.220  0.0234  0.1472 -0.0556
  328loPI   C3A 5241   7.941   4.681   8.885 -0.2351  0.0499  0.0453
  328loPI   C4A 5242   7.958   4.875   8.463 -0.0957 -0.1190 -0.2698
  328loPI   C5A 5243   7.644   4.758   8.133  0.0369  0.1587  0.0253
  328loPI   C6A 5244   7.400   4.653   7.831  0.3861 -0.0772  0.3419
  328loPI   C1B 5245   7.413   4.742   9.630 -0.1552  0.1779  0.1798
  328loPI   C2B 5246   7.400   4.704   9.255  0.0073  0.0106 -0.2362
  328loPI   C3B 5247   7.440   4.842   8.864 -0.0303 -0.0526  0.1552
  328loPI   C4B 5248   7.408   4.735   8.568 -0.0189 -0.2232  0.1622
  329loPI    C1 5249   5.198   2.221  10.670  0.2816  0.1294 -0.1020
  329loPI    C2 5250   4.982   2.176  11.004  0.1131 -0.0951 -0.2380
  329loPI    C3 5251   5.377   2.109  11.011  0.1917  0.3486  0.0192
  329loPI   PO4 5252   5.080   2.049  10.478 -0.3353  0.4356  0.2128
  329loPI   GL1 5253   5.078   1.932  10.121  0.1704  0.0492 -0.1456
  329loPI   GL2 5254   4.956   2.124   9.968  0.0904  0.0678 -0.1890
  329loPI   C1A 5255   5.246   1.817   9.711 -0.0744 -0.0054 -0.0960
  329loPI   C2A 5256   5.245   1.820   9.271  0.1391 -0.4194 -0.0748
  329loPI   C3A 5257   5.305   1.896   8.872  0.2912  0.0425 -0.1657
  329loPI   C4A 5258   5.337   2.084   8.475  0.2647 -0.0931 -0.0056
  329loPI   C5A 5259   5.402   2.005   8.055  0.2981 -0.0146 -0.0695
  329loPI   C6A 5260   5.281   2.084   7.572  0.0279 -0.0582 -0.2086
  329loPI   C1B 5261   4.911   2.246   9.592  0.0528  0.0679  0.1371
  329loPI   C2B 5262   5.028   2.283   9.131  0.3212 -0.1788  0.1703
  329loPI   C3B 5263   5.091   2.548   8.720  0.2954 -0.0249 -0.0527
  329loPI   C4B 5264   4.972   2.687   8.330 -0.2602 -0.1329 -0.1072
  330loPI    C1 5265  18.407   5.090  10.230 -0.1460  0.1723  0.0497
  330loPI    C2 5266  18.640   5.077  10.554  0.1801  0.3310 -0.1724
  330loPI    C3 5267  18.332   5.332  10.539 -0.0308  0.1035  0.1321
  330loPI   PO4 5268  18.341   4.861  10.157 -0.0408  0.3175 -0.1452
  330loPI   GL1 5269  18.544   4.754   9.802  0.2697 -0.0413 -0.0747
  330loPI   GL2 5270  18.714   5.151   9.752 -0.1405 -0.1291  0.0642
  330loPI   C1A 5271  18.551   4.740   9.418  0.0079  0.1652 -0.1501
  330loPI   C2A 5272  18.568   4.818   9.007  0.2855  0.0935  0.1301
  330loPI   C3A 5273  18.530   4.824   8.548 -0.2118 -0.0006 -0.1384
  330loPI   C4A 5274  18.455   4.742   8.103  0.3415  0.1229  0.0871
  330loPI   C5A 5275  18.593   4.950   7.772 -0.0845 -0.0659 -0.0475
  330loPI   C6A 5276  18.942   5.300   7.746 -0.2656  0.0151  0.1595
  330loPI   C1B 5277  18.806   5.220   9.357  0.0441 -0.0270 -0.0398
  330loPI   C2B 5278  18.806   5.473   9.061 -0.0546  0.0216  0.0545
  330loPI   C3B 5279  18.704   5.451   8.616  0.0914  0.1328  0.1506
  330loPI   C4B 5280  18.689   5.277   8.201 -0.0639 -0.1331 -0.1409
  331loPI    C1 5281   7.874   5.067  10.519 -0.3867  0.0175  0.0070
  331loPI    C2 5282   8.067   4.951  10.849  0.0789  0.3375 -0.1422
  331loPI    C3 5283   7.667   4.934  10.834  0.0663  0.0425  0.3235
  331loPI   PO4 5284   7.950   4.977  10.272 -0.0966 -0.3249 -0.0638
  331loPI   GL1 5285   8.032   5.163   9.942 -0.0103 -0.3524  0.1092
  331loPI   GL2 5286   8.390   5.141   9.976 -0.0764  0.0725  0.0857
  331loPI   C1A 5287   7.741   5.145   9.609  0.0999  0.1413 -0.0468
  331loPI   C2A 5288   7.755   5.199   9.174 -0.0496  0.0687  0.0269
  331loPI   C3A 5289   7.675   5.292   8.744 -0.0042  0.3319 -0.0201
  331loPI   C4A 5290   7.691   5.286   8.302  0.0570 -0.2584  0.1096
  331loPI   C5A 5291   7.265   5.100   8.136 -0.0670  0.3416 -0.2047
  331loPI   C6A 5292   6.909   5.409   8.124 -0.1296  0.0639 -0.1966
  331loPI   C1B 5293   8.409   4.837   9.591  0.3540  0.1399  0.0868
  331loPI   C2B 5294   8.437   4.765   9.168  0.1829  0.1699 -0.1834
  331loPI   C3B 5295   8.391   4.866   8.723 -0.1030  0.0522  0.0835
  331loPI   C4B 5296   8.300   4.678   8.204 -0.0280 -0.1014 -0.0379
  332loPI    C1 5297   1.270  10.464  10.518 -0.1429 -0.1252  0.0634
  332loPI    C2 5298   1.525  10.603  10.793  0.1413  0.1367 -0.3226
  332loPI    C3 5299   1.450  10.210  10.770 -0.0738  0.1321  0.2777
  332loPI   PO4 5300   1.052  10.685  10.511 -0.0538 -0.2130  0.2319
  332loPI   GL1 5301   1.182  11.015  10.286 -0.0873  0.4578 -0.0195
  332loPI   GL2 5302   0.856  11.139  10.221  0.1055 -0.1354 -0.1983
  332loPI   C1A 5303   1.263  11.144   9.912  0.0744  0.2172  0.1465
  332loPI   C2A 5304   1.433  11.199   9.588 -0.1056 -0.1670 -0.0160
  332loPI   C3A 5305   1.345  11.456   9.131 -0.0481 -0.1625  0.1826
  332loPI   C4A 5306   1.445  11.419   8.758 -0.0658 -0.1070  0.2053
  332loPI   C5A 5307   1.460  11.411   8.450  0.0473  0.1426 -0.1542
  332loPI   C6A 5308   1.300  11.470   8.026  0.0970  0.0188  0.0326
  332loPI   C1B 5309   0.782  11.102   9.777  0.0672  0.2616  0.0433
  332loPI   C2B 5310   0.889  11.142   9.298 -0.2318 -0.2019  0.2413
  332loPI   C3B 5311   0.934  11.298   8.895  0.1569  0.1875  0.1083
  332loPI   C4B 5312   0.960  11.265   8.450  0.0438 -0.0633 -0.2765
  333loPI    C1 5313   2.456   5.583  10.394 -0.0542  0.1997 -0.0970
  333loPI    C2 5314   2.407   5.932  10.583  0.1047  0.1141  0.1059
  333loPI    C3 5315   2.458   5.595  10.794 -0.0081 -0.0266 -0.0889
  333loPI   PO4 5316   2.683   5.585  10.206 -0.2498  0.2772  0.0400
  333loPI   GL1 5317   2.744   5.354   9.763  0.3007  0.1737 -0.2591
  333loPI   GL2 5318   2.731   5.649   9.675  0.3867 -0.1213 -0.0062
  333loPI   C1A 5319   2.906   5.215   9.493  0.1512 -0.1686 -0.0480
  333loPI   C2A 5320   2.958   5.075   8.933  0.0392  0.0396  0.0994
  333loPI   C3A 5321   2.652   5.074   8.591 -0.2622  0.1953 -0.1158
  333loPI   C4A 5322   2.591   5.236   8.203 -0.0844 -0.1269 -0.0225
  333loPI   C5A 5323   2.334   5.549   8.086 -0.4120  0.1144 -0.3799
  333loPI   C6A 5324   2.147   5.991   7.959 -0.2590 -0.1049 -0.0800
  333loPI   C1B 5325   2.779   5.699   9.212  0.2817  0.0704 -0.3194
  333loPI   C2B 5326   2.864   5.522   8.820  0.0888 -0.1783 -0.0490
  333loPI   C3B 5327   2.853   5.538   8.449 -0.1221  0.0554 -0.1379
  333loPI   C4B 5328   2.932   5.578   8.011 -0.0944  0.0906 -0.1236
  334loPI    C1 5329  11.790  13.330  10.909  0.1301 -0.0327 -0.0846
  334loPI    C2 5330  11.641  12.959  10.923  0.1249 -0.0226  0.1681
  334loPI    C3 5331  12.037  13.017  10.944  0.1547 -0.0350 -0.2682
  334loPI   PO4 5332  11.714  13.393  10.633  0.0221  0.2123  0.2301
  334loPI   GL1 5333  11.742  13.566  10.245  0.1669  0.2332 -0.0620
  334loPI   GL2 5334  11.348  13.610  10.341  0.0648  0.0352 -0.3086
  334loPI   C1A 5335  12.001  13.757  10.003  0.0185 -0.0784 -0.2644
  334loPI   C2A 5336  12.205  13.720   9.509  0.1837  0.2402  0.2578
  334loPI   C3A 5337  12.194  13.653   9.061  0.0806 -0.0305  0.0630
  334loPI   C4A 5338  12.206  13.483   8.659 -0.2976  0.1490  0.4052
  334loPI   C5A 5339  12.266  13.490   8.317 -0.0882  0.1367 -0.1868
  334loPI   C6A 5340  12.287  13.479   7.885  0.0884  0.1689 -0.0833
  334loPI   C1B 5341  11.406  13.632   9.878  0.0713 -0.3135  0.0868
  334loPI   C2B 5342  11.637  13.832   9.587 -0.2760  0.0724  0.1352
  334loPI   C3B 5343  11.811  13.947   9.115  0.0916 -0.3647 -0.0746
  334loPI   C4B 5344  11.855  14.061   8.795 -0.1206 -0.1252  0.2448
  335loPI    C1 5345   4.882  15.111  10.518  0.0850 -0.1867 -0.0512
  335loPI    C2 5346   4.758  14.826  10.770 -0.2038 -0.0775 -0.0664
  335loPI    C3 5347   4.854  15.189  10.910  0.0893 -0.1554 -0.0572
  335loPI   PO4 5348   5.175  15.039  10.301 -0.1178 -0.3353 -0.2629
  335loPI   GL1 5349   5.402  15.118   9.963 -0.1355 -0.0929 -0.3354
  335loPI   GL2 5350   5.355  15.438   9.875 -0.0688  0.1330 -0.3182
  335loPI   C1A 5351   5.398  15.020   9.543  0.1366 -0.2099 -0.0860
  335loPI   C2A 5352   5.295  14.941   9.156 -0.1403  0.0763 -0.0149
  335loPI   C3A 5353   5.317  15.009   8.703  0.0020  0.1831  0.0883
  335loPI   C4A 5354   5.319  14.930   8.283  0.0809 -0.0465 -0.1715
  335loPI   C5A 5355   5.224  15.200   7.854 -0.0808 -0.0292  0.0461
  335loPI   C6A 5356   5.103  15.382   7.472 -0.3631 -0.0702 -0.0960
  335loPI   C1B 5357   5.252  15.566   9.516 -0.0614 -0.3066 -0.2681
  335loPI   C2B 5358   5.288  15.451   9.103 -0.3348  0.3282 -0.0232
  335loPI   C3B 5359   5.263  15.532   8.676 -0.2986  0.1267 -0.0466
  335loPI   C4B 5360   5.368  15.419   8.323 -0.0445  0.0850  0.0685
  336loPI    C1 5361   6.075   2.631  10.420  0.3220 -0.1770 -0.0381
  336loPI    C2 5362   6.426   2.551  10.595  0.2416  0.0952  0.2558
  336loPI    C3 5363   6.109   2.653  10.818  0.0421  0.1004 -0.0254
  336loPI   PO4 5364   6.148   2.834  10.256 -0.0097  0.1194 -0.1249
  336loPI   GL1 5365   6.077   3.040   9.847 -0.2586  0.0968  0.0453
  336loPI   GL2 5366   6.321   3.316   9.826 -0.1091  0.4419  0.1400
  336loPI   C1A 5367   6.310   2.915   9.394  0.1594 -0.4075  0.0234
  336loPI   C2A 5368   6.416   2.933   8.963 -0.3556 -0.1669  0.1590
  336loPI   C3A 5369   6.734   2.887   8.559  0.0012 -0.0174  0.0829
  336loPI   C4A 5370   6.872   2.973   8.156  0.4253  0.0761  0.1899
  336loPI   C5A 5371   6.860   2.811   7.669  0.3627  0.1250 -0.5877
  336loPI   C6A 5372   6.870   2.913   7.184 -0.0387 -0.2325 -0.1387
  336loPI   C1B 5373   6.608   3.319   9.443 -0.0635  0.0661  0.0480
  336loPI   C2B 5374   6.695   3.392   8.993 -0.0818  0.1045  0.2557
  336loPI   C3B 5375   6.558   3.432   8.528 -0.0216 -0.4208  0.0800
  336loPI   C4B 5376   6.398   3.113   8.227 -0.0060  0.2489  0.0931
  337loPI    C1 5377  18.389  13.155  10.710 -0.1354  0.1517 -0.0316
  337loPI    C2 5378  18.376  13.477  10.473 -0.1219  0.1266 -0.0667
  337loPI    C3 5379  18.452  13.519  10.863 -0.0428  0.1586 -0.0852
  337loPI   PO4 5380  18.596  12.947  10.602  0.2436 -0.0937 -0.0984
  337loPI   GL1 5381  18.881  12.856  10.264  0.1876  0.3292  0.1375
  337loPI   GL2 5382  18.712  12.567  10.146  0.1245 -0.1118  0.1851
  337loPI   C1A 5383  18.919  12.885   9.778 -0.1932  0.0506 -0.0270
  337loPI   C2A 5384  18.973  13.018   9.373  0.3832  0.0484  0.1477
  337loPI   C3A 5385  18.935  12.931   8.895  0.0375 -0.0065  0.1788
  337loPI   C4A 5386  18.848  13.116   8.407  0.1657 -0.0805 -0.0716
  337loPI   C5A 5387  18.652  13.125   7.969 -0.1603 -0.1509 -0.0789
  337loPI   C6A 5388  18.486  12.889   7.652  0.1099  0.2460  0.2077
  337loPI   C1B 5389  18.848  12.363   9.869  0.2708 -0.1672  0.1308
  337loPI   C2B 5390  18.901  12.462   9.384 -0.0697  0.1654 -0.0677
  337loPI   C3B 5391  18.919  12.428   8.969  0.0503  0.0504  0.0764
  337loPI   C4B 5392  19.073  12.373   8.553 -0.0782 -0.2210  0.2618
  338loPI    C1 5393   6.634   9.400  10.599 -0.0233 -0.1824  0.0400
  338loPI    C2 5394   6.680   9.696  10.864  0.1770 -0.0498 -0.1399
  338loPI    C3 5395   6.954   9.406  10.839 -0.0366 -0.2737  0.0603
  338loPI   PO4 5396   6.527   9.522  10.354  0.2089 -0.0063  0.0495
  338loPI   GL1 5397   6.370   9.619   9.964 -0.0255  0.2990  0.1758
  338loPI   GL2 5398   6.660   9.733   9.932  0.2842  0.0179 -0.0017
  338loPI   C1A 5399   6.274   9.777   9.592 -0.1118 -0.2899  0.1394
  338loPI   C2A 5400   6.439  10.037   9.339 -0.1672  0.2297  0.1607
  338loPI   C3A 5401   6.694  10.072   8.873  0.3122  0.0174  0.5581
  338loPI   C4A 5402   7.033  10.318   8.583  0.2310 -0.2393 -0.0581
  338loPI   C5A 5403   7.003  10.364   8.190 -0.2124  0.1768 -0.0850
  338loPI   C6A 5404   7.018  10.365   7.758  0.2964  0.0017  0.3383
  338loPI   C1B 5405   6.780   9.706   9.486  0.1083 -0.2092 -0.0425
  338loPI   C2B 5406   6.887   9.677   9.148 -0.3836 -0.2248 -0.0370
  338loPI   C3B 5407   7.100   9.699   8.704 -0.0374  0.1174 -0.2221
  338loPI   C4B 5408   7.028   9.893   8.279 -0.1971  0.0588  0.0718
  339loPI    C1 5409  17.552  11.697  10.369 -0.2850  0.0956 -0.2496
  339loPI    C2 5410  17.290  11.919  10.574 -0.1167  0.1286 -0.0680
  339loPI    C3 5411  17.442  11.587  10.737 -0.0891  0.0781 -0.1953
  339loPI   PO4 5412  17.782  11.926  10.259 -0.1901  0.0514  0.0361
  339loPI   GL1 5413  18.133  11.865  10.018  0.0618 -0.1744  0.2595
  339loPI   GL2 5414  18.407  12.150   9.998 -0.1284  0.1074  0.1910
  339loPI   C1A 5415  18.079  11.802   9.567 -0.1926  0.0939  0.2279
  339loPI   C2A 5416  18.092  11.890   9.122 -0.1743 -0.0648 -0.1665
  339loPI   C3A 5417  18.002  12.020   8.725  0.1040 -0.5261 -0.3475
  339loPI   C4A 5418  18.114  12.276   8.329  0.0316  0.0521 -0.0037
  339loPI   C5A 5419  18.116  12.620   8.065  0.0177  0.0420 -0.0472
  339loPI   C6A 5420  17.822  12.658   7.610  0.1442  0.0694 -0.2613
  339loPI   C1B 5421  18.501  12.059   9.601  0.0504 -0.0076  0.0693
  339loPI   C2B 5422  18.502  12.124   9.271  0.3148  0.1072 -0.2741
  339loPI   C3B 5423  18.466  12.150   8.917 -0.1275 -0.1722  0.0799
  339loPI   C4B 5424  18.559  12.253   8.561  0.1094 -0.0380 -0.0640
  340loPI    C1 5425  10.103   1.663  10.229  0.0357 -0.2329 -0.0445
  340loPI    C2 5426  10.197   1.287  10.328  0.1281 -0.1590  0.1556
  340loPI    C3 5427  10.476   1.573  10.343  0.1633 -0.1545 -0.3894
  340loPI   PO4 5428   9.965   1.649  10.058 -0.1092 -0.0219  0.1505
  340loPI   GL1 5429   9.996   1.448   9.697 -0.2028 -0.2695 -0.2095
  340loPI   GL2 5430   9.744   1.455   9.518 -0.2510  0.0538 -0.1691
  340loPI   C1A 5431  10.192   1.732   9.234 -0.1248 -0.1022 -0.0163
  340loPI   C2A 5432  10.575   1.917   9.008 -0.0116 -0.3943 -0.0146
  340loPI   C3A 5433  10.708   2.128   8.605 -0.1187  0.2696 -0.0442
  340loPI   C4A 5434  10.644   2.335   8.282  0.0022 -0.0846 -0.2203
  340loPI   C5A 5435  10.592   2.600   7.919 -0.1638  0.1572  0.0268
  340loPI   C6A 5436  10.718   2.657   7.500 -0.1365  0.0647 -0.1435
  340loPI   C1B 5437   9.829   1.471   9.048  0.1934 -0.3386 -0.1033
  340loPI   C2B 5438   9.950   1.451   8.612  0.2045  0.0016  0.1961
  340loPI   C3B 5439  10.230   1.393   8.275 -0.0521 -0.0789 -0.1091
  340loPI   C4B 5440  10.483   1.287   7.970 -0.4336  0.0596  0.1139
  341loPI    C1 5441   7.371  10.933  10.505  0.1563 -0.1616  0.0730
  341loPI    C2 5442   7.078  10.676  10.415  0.0239 -0.0019  0.0418
  341loPI    C3 5443   7.188  10.730  10.796  0.0763 -0.1296  0.0454
  341loPI   PO4 5444   7.559  10.930  10.227 -0.1055 -0.1562  0.0839
  341loPI   GL1 5445   7.602  10.773   9.793  0.0503 -0.5648 -0.0778
  341loPI   GL2 5446   7.809  10.508   9.582 -0.0560 -0.3245  0.0779
  341loPI   C1A 5447   7.695  11.059   9.506 -0.0839 -0.2392 -0.0621
  341loPI   C2A 5448   7.625  11.371   9.243 -0.1707 -0.0697 -0.0465
  341loPI   C3A 5449   7.776  11.513   8.888  0.1540  0.0636 -0.1974
  341loPI   C4A 5450   7.659  11.766   8.669  0.0464  0.2499 -0.1399
  341loPI   C5A 5451   7.403  11.780   8.222  0.2142 -0.2044  0.0655
  341loPI   C6A 5452   7.214  11.815   7.900  0.1022 -0.0961  0.2483
  341loPI   C1B 5453   8.193  10.499   9.299  0.0943 -0.3173  0.0408
  341loPI   C2B 5454   8.316  10.576   8.860 -0.0981  0.0714 -0.0979
  341loPI   C3B 5455   8.331  10.316   8.550 -0.0243  0.3743 -0.1991
  341loPI   C4B 5456   8.655  10.310   8.147 -0.1378  0.0842 -0.0855
  342loPI    C1 5457   2.175   1.416  10.936  0.1021 -0.0281 -0.0748
  342loPI    C2 5458   2.260   1.241  11.285 -0.1449 -0.2423 -0.1190
  342loPI    C3 5459   2.087   1.601  11.279  0.2949 -0.0227 -0.0269
  342loPI   PO4 5460   2.311   1.446  10.750 -0.0515  0.0623  0.2324
  342loPI   GL1 5461   2.307   1.457  10.293  0.2935 -0.0149  0.1043
  342loPI   GL2 5462   2.113   1.764  10.320  0.1895 -0.1567 -0.0939
  342loPI   C1A 5463   2.515   1.449   9.877 -0.1247  0.0555 -0.1973
  342loPI   C2A 5464   2.662   1.476   9.498  0.0574 -0.1098 -0.1207
  342loPI   C3A 5465   2.626   1.605   9.091 -0.2798  0.0522  0.0381
  342loPI   C4A 5466   2.604   1.665   8.597  0.3310 -0.0647 -0.0318
  342loPI   C5A 5467   2.469   1.822   8.305  0.0234  0.2769 -0.0751
  342loPI   C6A 5468   2.288   2.137   8.079  0.0236  0.0592  0.0861
  342loPI   C1B 5469   2.188   1.850   9.901 -0.1166 -0.0444 -0.0568
  342loPI   C2B 5470   2.358   1.867   9.510 -0.1216  0.3444 -0.0606
  342loPI   C3B 5471   2.314   2.013   9.046  0.2427  0.0708  0.1382
  342loPI   C4B 5472   2.336   2.135   8.656 -0.0478  0.1248 -0.0829
  343loPI    C1 5473  13.698  17.178  10.383 -0.0496 -0.0729  0.0530
  343loPI    C2 5474  13.894  16.839  10.299  0.0553 -0.0217  0.0886
  343loPI    C3 5475  13.627  16.847  10.596 -0.0951 -0.1245 -0.0417
  343loPI   PO4 5476  13.645  17.267  10.122  0.3009  0.0308  0.1232
  343loPI   GL1 5477  13.542  17.233   9.731 -0.0475  0.0501 -0.3841
  343loPI   GL2 5478  13.805  16.971   9.646 -0.0836  0.0871 -0.0571
  343loPI   C1A 5479  13.544  17.229   9.303 -0.0767  0.1434 -0.2185
  343loPI   C2A 5480  13.508  17.099   8.810 -0.2050  0.0087  0.0743
  343loPI   C3A 5481  13.502  17.104   8.345 -0.4659 -0.3856 -0.0186
  343loPI   C4A 5482  13.378  17.259   7.973 -0.0681 -0.2000  0.0439
  343loPI   C5A 5483  13.410  17.678   7.747 -0.1876  0.1317  0.2135
  343loPI   C6A 5484  13.739  17.883   7.572  0.0528  0.0317  0.0974
  343loPI   C1B 5485  13.806  16.790   9.328  0.1742  0.0088  0.0453
  343loPI   C2B 5486  13.858  16.840   8.977 -0.3394 -0.0861  0.0359
  343loPI   C3B 5487  13.820  16.729   8.494  0.1831 -0.1742  0.0100
  343loPI   C4B 5488  13.735  16.685   8.062  0.0357  0.0195 -0.2756
  344loPI    C1 5489   9.284   3.472  10.543  0.0228  0.1584  0.1282
  344loPI    C2 5490   9.676   3.459  10.463  0.0351  0.0341  0.2061
  344loPI    C3 5491   9.537   3.310  10.807 -0.0706  0.1566  0.2171
  344loPI   PO4 5492   9.271   3.717  10.378  0.3784 -0.0400  0.1520
  344loPI   GL1 5493   9.070   3.907  10.024 -0.0713  0.3195  0.4116
  344loPI   GL2 5494   9.041   3.586   9.850 -0.1856  0.0678 -0.0793
  344loPI   C1A 5495   9.200   4.244   9.673  0.0414  0.0499 -0.2578
  344loPI   C2A 5496   9.259   4.242   9.218  0.0399  0.1184  0.0561
  344loPI   C3A 5497   9.272   4.303   8.812  0.1406  0.1457  0.0147
  344loPI   C4A 5498   9.122   4.402   8.459  0.1721  0.0163  0.0505
  344loPI   C5A 5499   9.060   4.305   8.052  0.1206  0.2978 -0.0676
  344loPI   C6A 5500   9.037   4.159   7.624 -0.3578  0.3295 -0.1118
  344loPI   C1B 5501   8.947   3.840   9.382  0.0618 -0.0519 -0.1677
  344loPI   C2B 5502   8.916   3.940   8.949 -0.1232 -0.1802  0.1387
  344loPI   C3B 5503   8.905   3.921   8.520  0.2577  0.1090 -0.1180
  344loPI   C4B 5504   8.856   3.855   8.103 -0.1585 -0.0992  0.2203
  345loPI    C1 5505   0.165   3.559  10.636  0.0988  0.0572 -0.1433
  345loPI    C2 5506   0.405   3.359  10.885 -0.0811 -0.3126 -0.2607
  345loPI    C3 5507   0.016   3.396  10.969 -0.0068  0.2130 -0.1130
  345loPI   PO4 5508   0.276   3.429  10.356  0.1955  0.1050  0.1073
  345loPI   GL1 5509   0.393   3.064  10.136 -0.2855  0.0365 -0.1360
  345loPI   GL2 5510   0.236   2.831   9.973 -0.0365  0.0918 -0.1018
  345loPI   C1A 5511   0.819   3.191  10.003 -0.0589  0.2194 -0.2142
  345loPI   C2A 5512   1.283   3.197   9.948 -0.2617  0.3212  0.4956
  345loPI   C3A 5513   1.465   3.097   9.489  0.2314 -0.0132 -0.2529
  345loPI   C4A 5514   1.373   3.080   9.062 -0.0294 -0.0952 -0.0567
  345loPI   C5A 5515   1.296   3.221   8.658  0.0811 -0.3611 -0.3744
  345loPI   C6A 5516   1.263   3.263   8.255 -0.1638  0.2293  0.0724
  345loPI   C1B 5517   0.509   3.057   9.633 -0.0805  0.1520  0.1124
  345loPI   C2B 5518   0.360   2.987   9.218  0.0439 -0.0773 -0.0793
  345loPI   C3B 5519   0.337   3.030   8.784  0.1540  0.3317 -0.1119
  345loPI   C4B 5520   0.216   2.933   8.394  0.3919  0.0309  0.0037
  346loPI    C1 5521   5.623  11.417  10.006 -0.0408  0.0424  0.0130
  346loPI    C2 5522   5.817  11.298  10.335 -0.0958 -0.0489  0.0127
  346loPI    C3 5523   5.824  11.683  10.227 -0.1223 -0.0092  0.1506
  346loPI   PO4 5524   5.710  11.110   9.893 -0.2904  0.1136 -0.1067
  346loPI   GL1 5525   5.929  11.070   9.452  0.1278  0.0071 -0.0088
  346loPI   GL2 5526   5.577  11.258   9.465 -0.0048 -0.1524 -0.2050
  346loPI   C1A 5527   6.229  10.872   9.136 -0.3950 -0.0374 -0.0602
  346loPI   C2A 5528   6.225  10.835   8.631 -0.1999 -0.0993  0.0248
  346loPI   C3A 5529   6.111  10.590   8.385  0.0591 -0.3164 -0.2242
  346loPI   C4A 5530   6.276  10.194   7.995 -0.1249 -0.4980  0.0632
  346loPI   C5A 5531   6.226   9.860   7.775  0.0547  0.1836  0.1479
  346loPI   C6A 5532   6.409   9.794   7.307  0.0902 -0.1232  0.2142
  346loPI   C1B 5533   5.504  11.356   9.058  0.0799 -0.0345  0.0414
  346loPI   C2B 5534   5.420  11.342   8.656 -0.0459  0.0658  0.0871
  346loPI   C3B 5535   5.396  11.243   8.255 -0.0289  0.0842  0.1352
  346loPI   C4B 5536   5.205  11.235   7.893  0.1841 -0.0906 -0.1321
  347loPI    C1 5537   3.951   5.630  10.588  0.1412  0.2704  0.0997
  347loPI    C2 5538   4.249   5.893  10.632  0.1710  0.1748  0.5013
  347loPI    C3 5539   4.265   5.540  10.818  0.0554 -0.0504  0.0953
  347loPI   PO4 5540   3.963   5.615  10.254 -0.1200 -0.0125 -0.0967
  347loPI   GL1 5541   4.167   5.671   9.901 -0.1736  0.1271  0.2494
  347loPI   GL2 5542   3.978   5.384   9.777 -0.1887 -0.2223 -0.1393
  347loPI   C1A 5543   4.354   5.637   9.483  0.0220  0.4424 -0.1129
  347loPI   C2A 5544   4.443   5.643   9.005  0.0606  0.0106  0.1643
  347loPI   C3A 5545   4.527   5.706   8.604  0.0154  0.0974 -0.1298
  347loPI   C4A 5546   4.719   5.679   8.198 -0.0638 -0.2714  0.0168
  347loPI   C5A 5547   4.606   5.716   7.832 -0.0204 -0.1326  0.1441
  347loPI   C6A 5548   4.230   5.886   7.552  0.0060  0.3745 -0.1377
  347loPI   C1B 5549   3.938   5.437   9.387  0.0659  0.2800 -0.0672
  347loPI   C2B 5550   3.839   5.608   9.031 -0.0411 -0.1395  0.1808
  347loPI   C3B 5551   3.746   5.430   8.586 -0.2490  0.0960  0.0136
  347loPI   C4B 5552   3.377   5.512   8.173  0.0345  0.0390 -0.0222
  348loPI    C1 5553   8.139  11.458  10.647 -0.1353 -0.0525  0.1325
  348loPI    C2 5554   8.033  11.844  10.667 -0.1194 -0.0474  0.1194
  348loPI    C3 5555   8.169  11.656  10.993 -0.1693 -0.0542  0.1364
  348loPI   PO4 5556   8.083  11.443  10.364  0.1096  0.2656 -0.1603
  348loPI   GL1 5557   8.188  11.582  10.013 -0.1054  0.1573  0.1529
  348loPI   GL2 5558   8.220  11.834   9.909  0.3000  0.0780 -0.4069
  348loPI   C1A 5559   8.171  11.417   9.558  0.2950  0.1550  0.1491
  348loPI   C2A 5560   8.207  11.570   9.098  0.1470 -0.1586  0.3144
  348loPI   C3A 5561   8.239  11.433   8.655  0.1041  0.0604  0.1765
  348loPI   C4A 5562   8.354  11.287   8.290 -0.2834 -0.0242 -0.2272
  348loPI   C5A 5563   8.182  11.054   7.912 -0.2280  0.0452  0.0544
  348loPI   C6A 5564   7.972  10.835   7.501  0.1754 -0.0505  0.1755
  348loPI   C1B 5565   7.882  11.785   9.492 -0.2333 -0.0782 -0.1578
  348loPI   C2B 5566   7.495  11.858   9.387  0.0989  0.0090 -0.1402
  348loPI   C3B 5567   7.189  11.860   9.080  0.1040  0.2338  0.0595
  348loPI   C4B 5568   7.190  11.919   8.678  0.2147 -0.0932 -0.1245
  349loPI    C1 5569   5.943  12.987  10.305 -0.0578  0.2641  0.1970
  349loPI    C2 5570   6.052  12.616  10.407 -0.0203  0.1501 -0.2364
  349loPI    C3 5571   5.901  12.864  10.683 -0.0723 -0.1942  0.0515
  349loPI   PO4 5572   5.834  12.950  10.060 -0.0486  0.0019  0.0078
  349loPI   GL1 5573   5.806  12.859   9.720  0.1068 -0.0522  0.1031
  349loPI   GL2 5574   5.942  13.219   9.644  0.0704 -0.2338 -0.1728
  349loPI   C1A 5575   5.766  12.567   9.315 -0.1755 -0.2482 -0.0968
  349loPI   C2A 5576   5.805  12.666   8.897 -0.0785  0.2853  0.0334
  349loPI   C3A 5577   5.785  12.621   8.470  0.1540 -0.1221  0.0106
  349loPI   C4A 5578   5.917  12.627   8.035 -0.0553  0.2716 -0.1995
  349loPI   C5A 5579   5.840  12.344   7.670  0.1129  0.0916  0.1955
  349loPI   C6A 5580   5.848  12.017   7.378 -0.1318  0.1357 -0.1272
  349loPI   C1B 5581   5.771  13.130   9.283  0.1036  0.2103 -0.1869
  349loPI   C2B 5582   5.867  13.171   8.794 -0.1662  0.0077  0.1109
  349loPI   C3B 5583   5.911  13.184   8.373  0.1931  0.0378 -0.0396
  349loPI   C4B 5584   5.968  13.166   7.961  0.1423 -0.3410  0.1627
  350loPI    C1 5585   7.852   2.497  10.499  0.0147 -0.0868 -0.0935
  350loPI    C2 5586   7.989   2.221  10.244  0.0171 -0.1835  0.0118
  350loPI    C3 5587   7.627   2.178  10.409 -0.0925  0.0110 -0.1747
  350loPI   PO4 5588   7.974   2.758  10.356 -0.1773  0.0917 -0.1555
  350loPI   GL1 5589   8.103   2.688   9.883 -0.1818  0.0663  0.1264
  350loPI   GL2 5590   8.344   2.891   9.754  0.0412 -0.2897  0.1392
  350loPI   C1A 5591   8.026   2.656   9.457 -0.4031 -0.2196  0.0597
  350loPI   C2A 5592   8.076   2.907   9.047  0.1203  0.0820 -0.2305
  350loPI   C3A 5593   7.973   2.981   8.615 -0.0140  0.1666 -0.2943
  350loPI   C4A 5594   7.955   2.812   8.217 -0.0530  0.0235 -0.1241
  350loPI   C5A 5595   7.811   2.820   7.758 -0.1946  0.1340  0.2309
  350loPI   C6A 5596   7.579   3.147   7.464 -0.0735  0.1470  0.0760
  350loPI   C1B 5597   8.183   3.139   9.499  0.4026 -0.0386  0.2034
  350loPI   C2B 5598   8.168   3.387   9.218  0.0569 -0.1196  0.2380
  350loPI   C3B 5599   8.103   3.482   8.761 -0.0114 -0.1819  0.0452
  350loPI   C4B 5600   8.157   3.407   8.327  0.0818 -0.0110 -0.1118
  351loPI    C1 5601   9.724   4.545  10.311 -0.2422  0.1070 -0.0550
  351loPI    C2 5602  10.047   4.707  10.482  0.0146 -0.1872 -0.2487
  351loPI    C3 5603   9.742   4.583  10.709 -0.0245  0.2118 -0.0734
  351loPI   PO4 5604   9.839   4.510  10.035 -0.1679 -0.1288 -0.1687
  351loPI   GL1 5605   9.826   4.301   9.730  0.3895  0.0564 -0.2028
  351loPI   GL2 5606  10.044   4.349   9.458 -0.0282  0.5356  0.0341
  351loPI   C1A 5607   9.604   4.595   9.509  0.3357 -0.1108 -0.0598
  351loPI   C2A 5608   9.520   4.646   9.101 -0.1452  0.2841 -0.1523
  351loPI   C3A 5609   9.528   4.790   8.656  0.1723  0.2140  0.0006
  351loPI   C4A 5610   9.573   5.134   8.418  0.0423 -0.2327 -0.2028
  351loPI   C5A 5611   9.970   5.415   8.371 -0.2954  0.1447 -0.2284
  351loPI   C6A 5612  10.353   5.364   8.624 -0.3525 -0.3059  0.3199
  351loPI   C1B 5613   9.758   4.207   9.162  0.0162 -0.1134 -0.3711
  351loPI   C2B 5614   9.751   4.275   8.698 -0.0652  0.0439 -0.0744
  351loPI   C3B 5615   9.581   4.403   8.306  0.0309  0.2666  0.0410
  351loPI   C4B 5616   9.865   4.540   7.921 -0.1988 -0.0081  0.1243
  352loPI    C1 5617  12.893   8.508  10.626 -0.0359  0.1946  0.1033
  352loPI    C2 5618  12.947   8.154  10.803  0.0534  0.1475 -0.0162
  352loPI    C3 5619  13.175   8.466  10.907  0.0603  0.1374 -0.0007
  352loPI   PO4 5620  12.635   8.453  10.518  0.2475 -0.1774  0.2583
  352loPI   GL1 5621  12.395   8.474  10.087  0.0467  0.1131 -0.0860
  352loPI   GL2 5622  12.270   8.758  10.213  0.2279  0.1955 -0.0405
  352loPI   C1A 5623  12.492   8.487   9.605 -0.1482 -0.3923  0.0648
  352loPI   C2A 5624  12.497   8.491   9.191  0.1965 -0.0764  0.0174
  352loPI   C3A 5625  12.550   8.505   8.762  0.2852  0.0604 -0.1587
  352loPI   C4A 5626  12.568   8.636   8.299  0.1685  0.0301  0.1662
  352loPI   C5A 5627  12.611   8.953   8.047 -0.0317  0.1896  0.2613
  352loPI   C6A 5628  12.461   9.097   7.606  0.0118 -0.0136 -0.4047
  352loPI   C1B 5629  12.128   8.881   9.803 -0.1166 -0.3427 -0.1463
  352loPI   C2B 5630  12.198   8.928   9.353 -0.2736  0.2103 -0.0785
  352loPI   C3B 5631  12.192   8.923   8.951  0.0785  0.1229  0.1303
  352loPI   C4B 5632  12.219   9.040   8.446  0.0523 -0.2361  0.2577
  353loPI    C1 5633  12.766  10.887  11.048 -0.0777 -0.0239 -0.1307
  353loPI    C2 5634  13.137  10.770  10.953  0.0514  0.1253  0.1757
  353loPI    C3 5635  13.063  11.155  11.032 -0.1850  0.1081  0.0484
  353loPI   PO4 5636  12.657  10.813  10.908  0.1415 -0.1857 -0.1882
  353loPI   GL1 5637  12.541  10.774  10.457 -0.1463  0.0309  0.2434
  353loPI   GL2 5638  12.526  10.517  10.316 -0.0852 -0.2067 -0.2063
  353loPI   C1A 5639  12.656  10.911  10.019 -0.2617  0.2215  0.2759
  353loPI   C2A 5640  12.761  10.962   9.619  0.0085  0.1762  0.3858
  353loPI   C3A 5641  12.996  10.845   9.261  0.0935 -0.1288 -0.0765
  353loPI   C4A 5642  13.101  10.663   8.986 -0.2171  0.0550 -0.1227
  353loPI   C5A 5643  13.202  10.584   8.571  0.3194 -0.0108 -0.0028
  353loPI   C6A 5644  13.677  10.581   8.429  0.0169 -0.2377 -0.0003
  353loPI   C1B 5645  12.188  10.327  10.151  0.0523 -0.1720 -0.3034
  353loPI   C2B 5646  12.199  10.195   9.818  0.3215 -0.1227 -0.2207
  353loPI   C3B 5647  12.175  10.293   9.447 -0.3084  0.0026 -0.1238
  353loPI   C4B 5648  12.154  10.377   8.963  0.2677  0.0129 -0.0936
  354loPI    C1 5649  12.081  16.761  10.514 -0.0941 -0.0561  0.0024
  354loPI    C2 5650  12.331  16.565  10.757  0.2186 -0.0506 -0.3073
  354loPI    C3 5651  12.014  16.376  10.602 -0.0879 -0.0047  0.2380
  354loPI   PO4 5652  12.288  16.865  10.344  0.2565  0.2183 -0.1219
  354loPI   GL1 5653  12.358  16.604  10.067  0.0844  0.0973 -0.0671
  354loPI   GL2 5654  12.009  16.726   9.978 -0.2199  0.0001 -0.0833
  354loPI   C1A 5655  12.404  16.672   9.709  0.0374  0.0030  0.2215
  354loPI   C2A 5656  12.514  16.809   9.263  0.1840  0.0125 -0.2447
  354loPI   C3A 5657  12.511  16.896   8.855 -0.2415  0.0886  0.2665
  354loPI   C4A 5658  12.357  16.857   8.513 -0.0992 -0.1350 -0.3151
  354loPI   C5A 5659  12.254  16.970   8.183 -0.4549  0.1658  0.0229
  354loPI   C6A 5660  11.988  17.102   7.828  0.3232  0.0467  0.1202
  354loPI   C1B 5661  11.972  16.804   9.489  0.1081  0.1449  0.0077
  354loPI   C2B 5662  12.008  16.690   9.028 -0.0474  0.3598 -0.0448
  354loPI   C3B 5663  11.866  16.706   8.591 -0.1098  0.0490 -0.2434
  354loPI   C4B 5664  11.904  16.600   8.113  0.1449 -0.0480 -0.0783
  355loPI    C1 5665  15.635   7.785  10.466 -0.1489  0.0071 -0.0546
  355loPI    C2 5666  15.379   7.791  10.773 -0.1837 -0.3727 -0.0714
  355loPI    C3 5667  15.767   7.719  10.838 -0.0984  0.0661 -0.0619
  355loPI   PO4 5668  15.460   7.628  10.304  0.2819  0.2045  0.0585
  355loPI   GL1 5669  15.337   7.742   9.892  0.0595  0.1188  0.0566
  355loPI   GL2 5670  15.015   7.830   9.902  0.1057  0.0346 -0.0924
  355loPI   C1A 5671  15.495   7.805   9.416  0.3439 -0.2191 -0.1274
  355loPI   C2A 5672  15.612   7.772   8.983 -0.2324 -0.0799 -0.1504
  355loPI   C3A 5673  15.624   7.840   8.577  0.0343 -0.1982  0.2853
  355loPI   C4A 5674  15.737   7.864   8.202 -0.1935 -0.2976  0.1127
  355loPI   C5A 5675  15.517   7.921   7.845  0.1793  0.0112 -0.0684
  355loPI   C6A 5676  15.250   8.281   7.620  0.0081 -0.1888 -0.0486
  355loPI   C1B 5677  14.980   7.834   9.473  0.1729 -0.2766 -0.0061
  355loPI   C2B 5678  15.059   7.718   9.064  0.2743 -0.0479  0.1112
  355loPI   C3B 5679  15.160   7.763   8.645  0.0655 -0.0599 -0.0936
  355loPI   C4B 5680  15.281   7.544   8.259  0.0144  0.1237  0.0303
  356loPI    C1 5681   1.377  14.760  10.651 -0.0981 -0.0568  0.3157
  356loPI    C2 5682   1.665  14.564  10.456 -0.2071 -0.0890  0.1856
  356loPI    C3 5683   1.639  14.536  10.854  0.0791  0.0602  0.2174
  356loPI   PO4 5684   1.197  14.732  10.463  0.1355 -0.3533  0.1835
  356loPI   GL1 5685   1.254  14.539  10.156 -0.2301 -0.1606 -0.0669
  356loPI   GL2 5686   1.492  14.737  10.026  0.1194  0.1220  0.1193
  356loPI   C1A 5687   1.247  14.477   9.688  0.2287  0.1045 -0.2185
  356loPI   C2A 5688   1.269  14.530   9.228  0.0266 -0.0904  0.0545
  356loPI   C3A 5689   1.237  14.554   8.768  0.1429  0.0320 -0.1800
  356loPI   C4A 5690   1.307  14.534   8.319  0.3515  0.0328  0.0724
  356loPI   C5A 5691   1.258  14.631   7.921 -0.0533  0.1891 -0.0515
  356loPI   C6A 5692   1.390  14.867   7.555  0.1227  0.1971  0.3739
  356loPI   C1B 5693   1.719  14.849   9.658  0.0926  0.1031  0.4615
  356loPI   C2B 5694   1.757  14.778   9.219 -0.2383 -0.0956  0.0074
  356loPI   C3B 5695   1.766  14.782   8.701  0.0524 -0.0258 -0.1304
  356loPI   C4B 5696   1.717  14.907   8.213 -0.0633 -0.0025  0.2487
  357loPI    C1 5697  14.250   7.957  10.264  0.1350  0.0699 -0.2169
  357loPI    C2 5698  14.552   7.978  10.526 -0.0048 -0.0825 -0.0402
  357loPI    C3 5699  14.609   8.087  10.145  0.1321  0.3896  0.1086
  357loPI   PO4 5700  14.193   7.718  10.244  0.0658 -0.3664  0.1040
  357loPI   GL1 5701  14.181   7.467   9.856  0.4285 -0.0749  0.0255
  357loPI   GL2 5702  14.256   7.087   9.903 -0.0456 -0.0790 -0.4110
  357loPI   C1A 5703  14.115   7.472   9.531 -0.0004 -0.2690 -0.1086
  357loPI   C2A 5704  14.087   7.560   9.110 -0.2277  0.3264 -0.1108
  357loPI   C3A 5705  14.116   7.437   8.711  0.0113  0.0285  0.3147
  357loPI   C4A 5706  14.079   7.501   8.312  0.1616  0.1467  0.0621
  357loPI   C5A 5707  13.986   7.640   7.953  0.1324 -0.0880  0.0263
  357loPI   C6A 5708  13.965   7.328   7.660  0.0347 -0.2928  0.0524
  357loPI   C1B 5709  14.352   7.019   9.560  0.3723  0.0652  0.0902
  357loPI   C2B 5710  14.434   7.148   9.139 -0.0781 -0.3315  0.0662
  357loPI   C3B 5711  14.507   7.129   8.857  0.4517  0.1096  0.0223
  357loPI   C4B 5712  14.443   7.118   8.356 -0.6440 -0.0750  0.1134
  358loPI    C1 5713  18.118  16.729  10.675 -0.1412  0.1315 -0.0134
  358loPI    C2 5714  18.073  17.045  10.915  0.3802  0.1738  0.0406
  358loPI    C3 5715  18.355  16.773  10.994  0.0644 -0.2082 -0.1134
  358loPI   PO4 5716  18.125  16.869  10.431 -0.3788 -0.1723 -0.1739
  358loPI   GL1 5717  18.051  16.566  10.063  0.0630  0.0843  0.0331
  358loPI   GL2 5718  17.894  16.799   9.795  0.0025  0.4526  0.1917
  358loPI   C1A 5719  18.209  16.404   9.547  0.0068  0.2064  0.2121
  358loPI   C2A 5720  18.275  16.392   9.092  0.0992  0.2707 -0.2755
  358loPI   C3A 5721  18.592  16.358   8.831  0.0094 -0.0970 -0.0744
  358loPI   C4A 5722  18.691  16.505   8.528 -0.1123 -0.1262 -0.0553
  358loPI   C5A 5723  18.379  16.541   8.230  0.3479 -0.0196  0.1376
  358loPI   C6A 5724  18.556  16.439   7.706 -0.1661  0.0420 -0.1024
  358loPI   C1B 5725  17.779  16.747   9.369  0.0196 -0.0250 -0.3203
  358loPI   C2B 5726  17.815  16.607   8.945 -0.2555  0.0424  0.4788
  358loPI   C3B 5727  17.712  16.866   8.678  0.0012 -0.1094  0.1624
  358loPI   C4B 5728  17.363  16.988   8.684  0.1775  0.1197 -0.2069
  359loPI    C1 5729   5.211  10.704  10.234  0.1397 -0.0911 -0.2036
  359loPI    C2 5730   5.297  11.090  10.175 -0.0998 -0.0119 -0.0523
  359loPI    C3 5731   5.587  10.834  10.278  0.0088  0.1877  0.1508
  359loPI   PO4 5732   5.047  10.675  10.079  0.0583 -0.4007  0.0455
  359loPI   GL1 5733   4.934  10.716   9.773  0.1991 -0.1170 -0.1497
  359loPI   GL2 5734   5.264  10.870   9.658 -0.0596 -0.0240 -0.0063
  359loPI   C1A 5735   5.010  10.514   9.328 -0.1516 -0.3020 -0.1151
  359loPI   C2A 5736   5.277  10.548   8.957  0.0905 -0.0645 -0.2462
  359loPI   C3A 5737   5.376  10.403   8.515 -0.1334  0.1221 -0.0262
  359loPI   C4A 5738   5.273  10.201   8.058  0.1097  0.2916  0.0972
  359loPI   C5A 5739   5.217   9.883   7.711  0.0173 -0.0015 -0.1127
  359loPI   C6A 5740   4.842   9.608   7.613  0.2619 -0.0657 -0.1117
  359loPI   C1B 5741   5.098  11.091   9.350 -0.0775 -0.0807  0.1039
  359loPI   C2B 5742   5.107  11.037   8.922 -0.2374  0.1287  0.0527
  359loPI   C3B 5743   5.094  10.796   8.584  0.0923  0.1196  0.2209
  359loPI   C4B 5744   4.899  10.906   8.205 -0.1941  0.0889 -0.0592
  360loPI    C1 5745   5.804   9.902  10.397  0.0623 -0.0194 -0.0076
  360loPI    C2 5746   6.147   9.795  10.572  0.0154 -0.0731  0.0518
  360loPI    C3 5747   5.799   9.660  10.715 -0.0315 -0.0069  0.0007
  360loPI   PO4 5748   5.866   9.765  10.118  0.2177  0.0852 -0.2130
  360loPI   GL1 5749   5.827   9.650   9.738 -0.1049  0.0854  0.0386
  360loPI   GL2 5750   5.968   9.290   9.778 -0.0738 -0.3903 -0.0084
  360loPI   C1A 5751   5.610   9.569   9.326 -0.3925  0.5268 -0.1893
  360loPI   C2A 5752   5.438   9.581   8.843  0.1223  0.0329  0.3786
  360loPI   C3A 5753   5.081   9.515   8.613 -0.0955  0.0080 -0.0937
  360loPI   C4A 5754   4.973   9.373   8.200  0.2052  0.2552  0.1176
  360loPI   C5A 5755   4.843   9.151   7.821 -0.2631  0.1856  0.2783
  360loPI   C6A 5756   4.783   9.127   7.317 -0.1084 -0.3138  0.1446
  360loPI   C1B 5757   6.038   9.341   9.363  0.0258 -0.1747 -0.0107
  360loPI   C2B 5758   5.908   9.387   8.973 -0.0231 -0.4358  0.1555
  360loPI   C3B 5759   5.921   9.639   8.570 -0.0486 -0.2239  0.1444
  360loPI   C4B 5760   6.051   9.711   8.226 -0.0509 -0.2666  0.2842
  361loPI    C1 5761   0.365  15.810  10.397  0.2118  0.0354 -0.0876
  361loPI    C2 5762   0.128  16.013  10.646  0.0916 -0.2129  0.0034
  361loPI    C3 5763   0.525  16.034  10.687  0.0850  0.1053 -0.0712
  361loPI   PO4 5764   0.267  15.856  10.201 -0.2255  0.2809  0.1724
  361loPI   GL1 5765   0.223  15.610   9.867 -0.2978  0.0661  0.2018
  361loPI   GL2 5766   0.042  15.464   9.937  0.0391 -0.3775 -0.1616
  361loPI   C1A 5767   0.386  15.342   9.529 -0.0176  0.0900 -0.1694
  361loPI   C2A 5768   0.154  15.400   9.183 -0.0550  0.0582  0.0824
  361loPI   C3A 5769  -0.070  15.258   8.782 -0.0070  0.0563  0.2001
  361loPI   C4A 5770  -0.261  15.474   8.394 -0.0194 -0.1005 -0.3275
  361loPI   C5A 5771  -0.471  15.520   8.004 -0.0553 -0.0044 -0.1686
  361loPI   C6A 5772  -0.725  15.377   7.584 -0.0121  0.0101  0.1277
  361loPI   C1B 5773  -0.128  15.113   9.624 -0.2585  0.1130 -0.0102
  361loPI   C2B 5774  -0.047  14.870   9.295 -0.3241 -0.3127  0.1478
  361loPI   C3B 5775   0.019  14.706   8.963 -0.1553 -0.0104 -0.1974
  361loPI   C4B 5776  -0.026  14.218   8.908  0.1132  0.2389 -0.1522
  362loPI    C1 5777   8.438   5.823  10.648  0.0383 -0.0412  0.1394
  362loPI    C2 5778   8.328   5.890  11.026  0.0567  0.1551  0.1109
  362loPI    C3 5779   8.701   5.770  10.944  0.0370  0.0604  0.1590
  362loPI   PO4 5780   8.472   6.024  10.409  0.0292  0.0783 -0.1941
  362loPI   GL1 5781   8.382   6.027   9.977  0.3343  0.3953  0.0500
  362loPI   GL2 5782   8.423   6.301   9.735 -0.1604  0.1943 -0.1375
  362loPI   C1A 5783   8.420   5.583   9.800 -0.0908 -0.1301 -0.1232
  362loPI   C2A 5784   8.321   5.340   9.473 -0.0330  0.1074 -0.0093
  362loPI   C3A 5785   8.246   5.223   9.010 -0.1774  0.0281  0.1507
  362loPI   C4A 5786   8.241   5.281   8.582 -0.2397  0.0914 -0.0684
  362loPI   C5A 5787   8.269   5.538   8.190  0.3083 -0.2541 -0.0318
  362loPI   C6A 5788   8.332   5.905   8.228  0.0236  0.0262  0.0638
  362loPI   C1B 5789   8.310   5.997   9.477  0.0765 -0.1177 -0.1098
  362loPI   C2B 5790   8.434   6.082   9.052  0.0122 -0.0059 -0.3241
  362loPI   C3B 5791   8.638   6.299   8.659 -0.1512 -0.1285 -0.1799
  362loPI   C4B 5792   8.686   6.212   8.278 -0.0386 -0.1555 -0.0454
  363loPI    C1 5793   7.583   9.476  10.358 -0.0236  0.2193  0.1240
  363loPI    C2 5794   7.888   9.528  10.611 -0.0264  0.0827  0.1563
  363loPI    C3 5795   7.517   9.623  10.724 -0.0014  0.2112  0.1313
  363loPI   PO4 5796   7.695   9.638  10.092 -0.0204  0.0632  0.0941
  363loPI   GL1 5797   8.020   9.650   9.772 -0.0750 -0.0346  0.0774
  363loPI   GL2 5798   8.070  10.035   9.720 -0.0176  0.0967 -0.2556
  363loPI   C1A 5799   7.977   9.365   9.414 -0.1063 -0.2958 -0.3962
  363loPI   C2A 5800   7.788   9.469   9.103  0.2581 -0.0549  0.3845
  363loPI   C3A 5801   7.628   9.595   8.804  0.1090  0.1540 -0.0075
  363loPI   C4A 5802   7.601   9.637   8.376  0.0151 -0.1352  0.1610
  363loPI   C5A 5803   7.253   9.412   8.106 -0.1757 -0.0448  0.2698
  363loPI   C6A 5804   7.119   9.196   7.817  0.1037 -0.1755  0.0643
  363loPI   C1B 5805   7.915   9.919   9.296  0.2706  0.0625 -0.1435
  363loPI   C2B 5806   7.993  10.012   8.908  0.2398  0.0523  0.3750
  363loPI   C3B 5807   8.054   9.889   8.523  0.0113 -0.1791 -0.1735
  363loPI   C4B 5808   8.231   9.974   8.163  0.0373  0.2289  0.1726
  364loPI    C1 5809   2.435   0.251  10.577 -0.0820  0.2711 -0.1900
  364loPI    C2 5810   2.331   0.585  10.772 -0.0000  0.2225 -0.0620
  364loPI    C3 5811   2.050   0.322  10.663 -0.0023  0.0001  0.4489
  364loPI   PO4 5812   2.567   0.338  10.344  0.2365 -0.1675 -0.2950
  364loPI   GL1 5813   2.886   0.098  10.031 -0.0846 -0.0925  0.1976
  364loPI   GL2 5814   2.873  -0.085   9.801  0.0015 -0.0311 -0.4704
  364loPI   C1A 5815   2.839   0.569   9.802  0.2028 -0.0830 -0.0312
  364loPI   C2A 5816   2.708   0.668   9.460 -0.3095 -0.0486 -0.0165
  364loPI   C3A 5817   2.764   0.737   9.091 -0.2678  0.2635  0.3148
  364loPI   C4A 5818   2.699   0.618   8.643 -0.3103  0.0266 -0.0541
  364loPI   C5A 5819   2.834   0.794   8.228 -0.1504 -0.1454 -0.3048
  364loPI   C6A 5820   2.541   0.932   7.885 -0.1303  0.1781  0.1459
  364loPI   C1B 5821   3.081  -0.160   9.450 -0.0270 -0.0305  0.3049
  364loPI   C2B 5822   2.989  -0.223   8.976 -0.1971 -0.1896 -0.1224
  364loPI   C3B 5823   2.806  -0.173   8.576 -0.0417 -0.0689 -0.1718
  364loPI   C4B 5824   2.716  -0.462   8.244 -0.1292  0.0158 -0.2205
  365loPI    C1 5825  15.781  17.285  10.406 -0.1609 -0.0005 -0.1397
  365loPI    C2 5826  15.932  17.651  10.352 -0.1583 -0.0065 -0.1735
  365loPI    C3 5827  15.834  17.528  10.719 -0.2449  0.0616 -0.1734
  365loPI   PO4 5828  15.555  17.302  10.160 -0.1682 -0.0763  0.3745
  365loPI   GL1 5829  15.565  17.276   9.675  0.2923 -0.1963 -0.0856
  365loPI   GL2 5830  15.684  16.996   9.810 -0.0564 -0.1050  0.2504
  365loPI   C1A 5831  15.667  17.476   9.313 -0.1109 -0.1057  0.1244
  365loPI   C2A 5832  15.543  17.597   8.879  0.1126  0.0301  0.0618
  365loPI   C3A 5833  15.569  17.489   8.379 -0.1014 -0.1050 -0.2109
  365loPI   C4A 5834  15.409  17.479   7.906 -0.1371 -0.1572  0.1625
  365loPI   C5A 5835  15.053  17.402   7.783  0.0395 -0.1539  0.2227
  365loPI   C6A 5836  14.633  17.534   7.580  0.2388  0.0464  0.1860
  365loPI   C1B 5837  15.709  16.768   9.323 -0.1515 -0.2734  0.0059
  365loPI   C2B 5838  15.774  16.714   8.853 -0.4959 -0.0630 -0.0475
  365loPI   C3B 5839  15.921  16.581   8.410 -0.2423  0.1047  0.0102
  365loPI   C4B 5840  16.050  16.330   8.011 -0.3011 -0.0263 -0.2636
  366loPI    C1 5841  12.261   1.907  10.423  0.2145  0.1237 -0.0444
  366loPI    C2 5842  12.057   2.228  10.548 -0.0822 -0.1149  0.0960
  366loPI    C3 5843  12.394   2.121  10.734  0.0524  0.1492  0.0085
  366loPI   PO4 5844  12.333   1.945  10.123 -0.0038  0.1697  0.1722
  366loPI   GL1 5845  12.391   1.955   9.683 -0.3830 -0.0236 -0.3636
  366loPI   GL2 5846  12.665   2.015   9.472  0.0003  0.2103  0.0031
  366loPI   C1A 5847  12.184   1.859   9.291  0.1141  0.0695 -0.0654
  366loPI   C2A 5848  12.351   2.110   8.960  0.1502 -0.1679  0.2678
  366loPI   C3A 5849  12.252   2.580   8.667 -0.0884 -0.3412  0.0301
  366loPI   C4A 5850  12.492   2.569   8.359 -0.2989  0.3498 -0.3726
  366loPI   C5A 5851  12.561   2.740   7.906 -0.2056 -0.0916  0.0610
  366loPI   C6A 5852  12.899   2.902   7.599  0.0203  0.1961 -0.0997
  366loPI   C1B 5853  12.833   2.076   9.047  0.0023 -0.0913  0.2018
  366loPI   C2B 5854  12.781   2.179   8.566 -0.1822  0.2544  0.1867
  366loPI   C3B 5855  12.751   2.189   8.157  0.0256  0.0142  0.3321
  366loPI   C4B 5856  12.856   2.275   7.747 -0.0443  0.0529  0.1616
  367loPI    C1 5857   8.826   0.858  10.206 -0.0853 -0.1805 -0.0384
  367loPI    C2 5858   9.149   0.702  10.030  0.0651 -0.2386  0.2824
  367loPI    C3 5859   9.128   0.721  10.429 -0.2438 -0.0536  0.2605
  367loPI   PO4 5860   8.637   0.806   9.882 -0.0076  0.0463  0.0219
  367loPI   GL1 5861   8.478   0.642   9.460 -0.2522  0.2727  0.1377
  367loPI   GL2 5862   8.245   0.709   9.485  0.2216 -0.1728  0.2685
  367loPI   C1A 5863   8.526   0.649   8.996  0.0787  0.0711  0.1015
  367loPI   C2A 5864   8.946   0.537   8.811  0.1505  0.2171  0.1460
  367loPI   C3A 5865   9.381   0.624   8.691  0.2664 -0.3548  0.0032
  367loPI   C4A 5866   9.842   0.743   8.513 -0.2773  0.0833  0.2979
  367loPI   C5A 5867   9.969   0.992   8.167 -0.0091 -0.0817 -0.0247
  367loPI   C6A 5868   9.848   1.063   7.801 -0.0625 -0.0851 -0.0896
  367loPI   C1B 5869   8.001   0.789   9.117  0.0018 -0.2850 -0.0337
  367loPI   C2B 5870   7.667   0.895   9.023  0.1107  0.1975 -0.0959
  367loPI   C3B 5871   7.254   0.962   8.893  0.2188 -0.2129 -0.0433
  367loPI   C4B 5872   6.962   1.107   8.683 -0.1427 -0.2275  0.1682
  368loPI    C1 5873  10.801  17.276  10.279 -0.1727  0.1041 -0.0708
  368loPI    C2 5874  11.039  17.547  10.452 -0.1505  0.2899 -0.3838
  368loPI    C3 5875  10.665  17.494  10.586  0.1155 -0.1410  0.2387
  368loPI   PO4 5876  10.862  17.362  10.001  0.1854  0.4232  0.1040
  368loPI   GL1 5877  11.068  17.345   9.702  0.3708  0.1014  0.0015
  368loPI   GL2 5878  11.351  17.526   9.682 -0.0893  0.2074  0.0713
  368loPI   C1A 5879  10.762  17.399   9.390 -0.0595  0.2363  0.0831
  368loPI   C2A 5880  10.621  17.293   9.001  0.2429 -0.2177 -0.2329
  368loPI   C3A 5881  10.480  17.596   8.718  0.2101  0.1862 -0.1319
  368loPI   C4A 5882  10.353  17.852   8.284 -0.0329 -0.0110  0.1907
  368loPI   C5A 5883  10.112  17.920   7.892 -0.1134  0.2134  0.1957
  368loPI   C6A 5884  10.253  17.683   7.549  0.2610 -0.2164 -0.2587
  368loPI   C1B 5885  11.299  17.563   9.297  0.0602  0.2744  0.2271
  368loPI   C2B 5886  11.211  17.462   8.971 -0.1532  0.0570  0.0271
  368loPI   C3B 5887  11.056  17.210   8.723 -0.1339  0.2485 -0.0570
  368loPI   C4B 5888  10.920  16.933   8.419 -0.1229 -0.0599 -0.0150
  369loPI    C1 5889   6.876  10.222  10.311  0.1140 -0.1764  0.2042
  369loPI    C2 5890   6.884   9.843  10.437  0.1449 -0.0909  0.4658
  369loPI    C3 5891   7.188  10.089  10.523  0.1798 -0.0368  0.1966
  369loPI   PO4 5892   6.818  10.199  10.030  0.0625  0.3167  0.0801
  369loPI   GL1 5893   7.016  10.177   9.663  0.0215 -0.1961 -0.1283
  369loPI   GL2 5894   6.777  10.439   9.556  0.2595  0.1130  0.1815
  369loPI   C1A 5895   7.098  10.235   9.185 -0.0756  0.2469  0.3900
  369loPI   C2A 5896   7.141  10.557   9.029 -0.2278 -0.3523 -0.0415
  369loPI   C3A 5897   7.083  10.832   8.732  0.1196  0.2905 -0.2877
  369loPI   C4A 5898   7.018  10.880   8.219 -0.0584  0.2458  0.0650
  369loPI   C5A 5899   6.968  10.889   7.848 -0.1851 -0.0489 -0.0154
  369loPI   C6A 5900   6.608  10.888   7.515 -0.0854 -0.1577 -0.0736
  369loPI   C1B 5901   6.686  10.539   9.169  0.0016  0.0472  0.3826
  369loPI   C2B 5902   6.615  10.557   8.779 -0.1329 -0.1502 -0.1609
  369loPI   C3B 5903   6.638  10.574   8.400 -0.0380  0.2004 -0.1815
  369loPI   C4B 5904   6.603  10.558   8.001 -0.1637 -0.0716  0.2188
  370loPI    C1 5905  14.437   7.336  10.403  0.1696  0.2844  0.1675
  370loPI    C2 5906  14.615   7.524  10.708 -0.1003  0.4951  0.1984
  370loPI    C3 5907  14.216   7.521  10.679 -0.1078 -0.1170  0.2230
  370loPI   PO4 5908  14.610   7.514  10.147 -0.0317  0.1510  0.1200
  370loPI   GL1 5909  14.536   7.750   9.776 -0.2487 -0.0387  0.0478
  370loPI   GL2 5910  14.759   7.425   9.681 -0.0406 -0.2854 -0.0444
  370loPI   C1A 5911  14.529   7.723   9.321 -0.0102  0.1381  0.3956
  370loPI   C2A 5912  14.572   7.650   8.933 -0.1434 -0.2173 -0.2007
  370loPI   C3A 5913  14.725   7.666   8.443  0.1057  0.1278 -0.4508
  370loPI   C4A 5914  14.563   7.560   8.076  0.0938  0.3209 -0.0659
  370loPI   C5A 5915  14.827   7.450   7.722 -0.3588  0.0793 -0.1022
  370loPI   C6A 5916  15.266   7.529   7.714 -0.0249  0.0214  0.1710
  370loPI   C1B 5917  14.858   7.320   9.346  0.0968  0.2845  0.0226
  370loPI   C2B 5918  15.034   7.127   8.944 -0.1113  0.1945  0.2207
  370loPI   C3B 5919  14.997   7.207   8.520 -0.2606  0.1227 -0.1509
  370loPI   C4B 5920  14.937   7.131   8.110  0.0953  0.0778  0.2535
  371loPI    C1 5921   1.312  14.231  10.575  0.3364  0.0749  0.1626
  371loPI    C2 5922   1.048  14.437  10.794  0.0019 -0.2055  0.0336
  371loPI    C3 5923   1.243  14.127  10.955 -0.0722 -0.2681  0.0032
  371loPI   PO4 5924   1.288  14.075  10.402  0.1128  0.3295  0.0846
  371loPI   GL1 5925   1.449  14.095   9.989 -0.1475 -0.4222  0.0308
  371loPI   GL2 5926   1.713  14.286   9.892  0.1465  0.0846  0.4583
  371loPI   C1A 5927   1.232  13.939   9.654 -0.0547  0.1126 -0.0725
  371loPI   C2A 5928   1.280  14.018   9.238 -0.0397  0.1908 -0.1111
  371loPI   C3A 5929   1.366  14.040   8.856  0.0616 -0.1612  0.3955
  371loPI   C4A 5930   1.301  13.862   8.457  0.1775 -0.2756  0.3884
  371loPI   C5A 5931   1.337  14.086   8.053 -0.0018 -0.2308 -0.0246
  371loPI   C6A 5932   1.366  14.285   7.573  0.1581 -0.2111  0.1379
  371loPI   C1B 5933   1.677  14.291   9.468  0.0448 -0.1397 -0.2390
  371loPI   C2B 5934   1.740  14.298   9.080 -0.0791  0.1916  0.0228
  371loPI   C3B 5935   1.689  14.345   8.604  0.0785 -0.0788  0.0668
  371loPI   C4B 5936   1.761  14.355   8.113 -0.2252  0.0373 -0.1902
  372loPI    C1 5937   5.494   7.294  10.524 -0.1303  0.1182 -0.0447
  372loPI    C2 5938   5.263   7.237  10.846 -0.0762  0.1575  0.0013
  372loPI    C3 5939   5.585   7.474  10.870 -0.0761  0.1662 -0.0837
  372loPI   PO4 5940   5.394   7.356  10.377  0.2840  0.3299  0.1471
  372loPI   GL1 5941   5.291   7.392   9.948 -0.2130 -0.1955  0.1863
  372loPI   GL2 5942   5.535   7.172   9.900 -0.1791  0.2065 -0.0944
  372loPI   C1A 5943   5.375   7.445   9.564  0.0730 -0.0322 -0.0304
  372loPI   C2A 5944   5.475   7.462   9.188  0.0394  0.0687  0.1901
  372loPI   C3A 5945   5.352   7.817   9.060  0.0522  0.0672 -0.1840
  372loPI   C4A 5946   5.269   8.135   8.783 -0.0445  0.3212 -0.0870
  372loPI   C5A 5947   5.120   8.467   8.495 -0.0850 -0.0742  0.1269
  372loPI   C6A 5948   5.125   8.739   8.032  0.0848 -0.2400 -0.0306
  372loPI   C1B 5949   5.741   7.094   9.510 -0.0408  0.3269  0.1131
  372loPI   C2B 5950   5.714   7.062   9.055 -0.4134 -0.1039 -0.1132
  372loPI   C3B 5951   5.720   7.078   8.562 -0.2181  0.1521  0.2564
  372loPI   C4B 5952   5.602   6.981   8.070 -0.0417 -0.1371 -0.1538
  373loPI    C1 5953   5.145   6.435  10.442 -0.0589 -0.0835 -0.2245
  373loPI    C2 5954   5.200   6.796  10.605  0.1575 -0.2003 -0.0317
  373loPI    C3 5955   5.362   6.473  10.776 -0.0112 -0.3867 -0.2178
  373loPI   PO4 5956   5.201   6.484  10.213 -0.2377 -0.0960  0.0746
  373loPI   GL1 5957   5.103   6.167   9.855 -0.1548  0.0861  0.0640
  373loPI   GL2 5958   5.053   6.532   9.702  0.3814 -0.3064 -0.3780
  373loPI   C1A 5959   5.127   6.079   9.505  0.2527 -0.0404 -0.0503
  373loPI   C2A 5960   5.235   6.165   9.131  0.1340 -0.2081  0.2615
  373loPI   C3A 5961   5.138   6.122   8.726  0.0782 -0.2046 -0.4655
  373loPI   C4A 5962   4.973   6.098   8.256 -0.0568  0.0335  0.2612
  373loPI   C5A 5963   4.990   6.094   7.815  0.0980 -0.0883 -0.2775
  373loPI   C6A 5964   4.680   6.109   7.511 -0.1558  0.0978 -0.0893
  373loPI   C1B 5965   4.880   6.612   9.316 -0.1296  0.4007 -0.1441
  373loPI   C2B 5966   4.977   6.635   8.862  0.3259 -0.0374  0.1183
  373loPI   C3B 5967   4.797   6.552   8.386 -0.3467  0.0233 -0.0373
  373loPI   C4B 5968   4.778   6.486   8.029  0.0893  0.0023  0.0738
  374loPI    C1 5969   3.139   6.301  10.055  0.0233  0.1809 -0.2334
  374loPI    C2 5970   3.172   6.566  10.352 -0.1565 -0.1561  0.0961
  374loPI    C3 5971   3.337   6.204  10.388 -0.0463 -0.1478 -0.2840
  374loPI   PO4 5972   3.196   6.424   9.866  0.3034  0.1352  0.0192
  374loPI   GL1 5973   3.304   6.152   9.506  0.2347  0.0091 -0.0672
  374loPI   GL2 5974   3.126   5.928   9.644  0.1244  0.1398 -0.0030
  374loPI   C1A 5975   3.066   6.175   9.170  0.2174 -0.0620  0.0143
  374loPI   C2A 5976   3.106   5.995   8.818  0.1201  0.0499 -0.2491
  374loPI   C3A 5977   3.305   5.626   8.674  0.1096 -0.2944 -0.1621
  374loPI   C4A 5978   3.355   5.132   8.574  0.2281  0.0283 -0.0902
  374loPI   C5A 5979   3.398   4.841   8.814 -0.2213  0.1769 -0.1275
  374loPI   C6A 5980   3.333   4.407   8.786 -0.1381 -0.0921  0.1265
  374loPI   C1B 5981   3.270   5.691   9.252  0.0859 -0.2805 -0.0863
  374loPI   C2B 5982   3.445   5.314   9.186 -0.0193  0.0172  0.0258
  374loPI   C3B 5983   3.315   4.958   9.318  0.0556 -0.1994  0.0176
  374loPI   C4B 5984   3.444   4.562   9.260 -0.2173 -0.0956 -0.0375
  375loPI    C1 5985  12.722   3.098  10.352  0.0696 -0.0480  0.0737
  375loPI    C2 5986  13.082   3.176  10.507 -0.0677  0.1705  0.2900
  375loPI    C3 5987  12.922   2.812  10.547  0.1432  0.0609  0.1592
  375loPI   PO4 5988  12.822   3.130  10.042  0.1260 -0.2371 -0.0412
  375loPI   GL1 5989  13.056   3.344   9.718 -0.0080 -0.2607  0.1625
  375loPI   GL2 5990  12.794   3.575   9.608  0.1962  0.2284  0.0653
  375loPI   C1A 5991  13.255   3.644   9.387 -0.3194 -0.0273 -0.4466
  375loPI   C2A 5992  13.303   3.685   8.920  0.1761  0.2132  0.0381
  375loPI   C3A 5993  13.303   3.701   8.455 -0.0442  0.0457  0.0444
  375loPI   C4A 5994  13.306   3.617   7.960  0.0158 -0.2706  0.1718
  375loPI   C5A 5995  13.534   3.623   7.575 -0.1088  0.2591 -0.1472
  375loPI   C6A 5996  13.956   3.617   7.330 -0.0459 -0.3099 -0.0720
  375loPI   C1B 5997  12.820   3.636   9.101  0.3175 -0.1230 -0.0388
  375loPI   C2B 5998  12.879   3.542   8.618  0.2494  0.1119 -0.0219
  375loPI   C3B 5999  12.894   3.519   8.254  0.4522  0.2193  0.0844
  375loPI   C4B 6000  12.861   3.394   7.777  0.0284  0.1767 -0.3186
  376loPI    C1 6001   2.379   8.990  10.141  0.1820 -0.0483 -0.0465
  376loPI    C2 6002   2.395   8.593  10.192 -0.0447 -0.0492  0.0263
  376loPI    C3 6003   2.722   8.815  10.250  0.0548 -0.2126  0.0960
  376loPI   PO4 6004   2.312   9.032   9.865 -0.2484 -0.1641  0.0238
  376loPI   GL1 6005   1.959   8.915   9.639  0.0947 -0.0561 -0.2920
  376loPI   GL2 6006   1.941   9.299   9.670 -0.2435 -0.0232 -0.1122
  376loPI   C1A 6007   2.023   8.680   9.234 -0.1876 -0.0840  0.2874
  376loPI   C2A 6008   2.119   8.593   8.798  0.1604 -0.0253 -0.0820
  376loPI   C3A 6009   1.994   8.527   8.404 -0.0126 -0.0412  0.3284
  376loPI   C4A 6010   2.058   8.542   7.922  0.0553 -0.3837 -0.0730
  376loPI   C5A 6011   1.943   8.635   7.636  0.3189  0.1632 -0.0667
  376loPI   C6A 6012   1.949   8.844   7.273  0.0509 -0.0485 -0.2805
  376loPI   C1B 6013   2.014   9.242   9.200 -0.3589 -0.1049 -0.0854
  376loPI   C2B 6014   1.895   9.056   8.806 -0.1238 -0.0545 -0.5027
  376loPI   C3B 6015   1.869   9.006   8.406  0.0116 -0.1214 -0.0783
  376loPI   C4B 6016   1.579   9.058   8.103  0.3908  0.3341  0.0995
  377loPI    C1 6017  17.108   4.767  10.730 -0.2086  0.3975  0.1451
  377loPI    C2 6018  17.474   4.930  10.729 -0.0399  0.0288  0.0919
  377loPI    C3 6019  17.272   4.893  11.072  0.0513  0.0632  0.1495
  377loPI   PO4 6020  17.005   4.885  10.455  0.0211 -0.0038 -0.0318
  377loPI   GL1 6021  16.811   4.669  10.133  0.1367  0.2786  0.3111
  377loPI   GL2 6022  16.531   4.703   9.909  0.2844  0.0284  0.1370
  377loPI   C1A 6023  16.983   4.719   9.729 -0.0795  0.2851  0.1884
  377loPI   C2A 6024  17.113   4.627   9.345  0.2405  0.2780  0.1319
  377loPI   C3A 6025  17.374   4.387   8.989 -0.1188  0.3500  0.2113
  377loPI   C4A 6026  17.316   4.292   8.591  0.1071 -0.0482  0.0094
  377loPI   C5A 6027  17.329   4.307   8.166  0.1602 -0.0777 -0.2079
  377loPI   C6A 6028  17.497   4.562   7.892  0.0942  0.1259 -0.0491
  377loPI   C1B 6029  16.582   4.815   9.484  0.0625 -0.1703  0.0578
  377loPI   C2B 6030  16.548   4.748   9.094  0.0000  0.0231 -0.3825
  377loPI   C3B 6031  16.582   4.662   8.605  0.0368  0.2682 -0.2419
  377loPI   C4B 6032  16.475   4.662   8.205  0.0388 -0.0502  0.0649
  378loPI    C1 6033  16.382  12.049  10.628 -0.0020 -0.2939  0.0139
  378loPI    C2 6034  16.608  12.006  10.955  0.0806 -0.2669 -0.0394
  378loPI    C3 6035  16.761  11.928  10.594  0.1893  0.3082 -0.1276
  378loPI   PO4 6036  16.248  11.960  10.560  0.1494  0.0264  0.1560
  378loPI   GL1 6037  16.088  11.985  10.192  0.2263  0.0510  0.1905
  378loPI   GL2 6038  16.163  11.792  10.004 -0.4018  0.0405 -0.1130
  378loPI   C1A 6039  15.946  12.188   9.719  0.1323  0.1219  0.0997
  378loPI   C2A 6040  15.952  12.260   9.356  0.0831 -0.0468  0.2997
  378loPI   C3A 6041  16.068  12.126   8.907 -0.0161 -0.1020 -0.1090
  378loPI   C4A 6042  16.153  11.945   8.527 -0.2702 -0.0279 -0.1097
  378loPI   C5A 6043  16.466  11.810   8.364 -0.3745 -0.1420  0.0733
  378loPI   C6A 6044  16.675  11.446   8.087  0.1149  0.2291 -0.3025
  378loPI   C1B 6045  16.180  11.463   9.715 -0.2623  0.0162  0.1394
  378loPI   C2B 6046  15.957  11.233   9.349  0.2096  0.0546  0.1595
  378loPI   C3B 6047  15.923  10.972   8.955 -0.0017 -0.2896 -0.1026
  378loPI   C4B 6048  15.862  11.001   8.606  0.0201 -0.0068  0.2476
  379loPI    C1 6049  10.866   3.545  10.099 -0.0431 -0.0859 -0.0169
  379loPI    C2 6050  11.189   3.570  10.334  0.0005 -0.0573 -0.0797
  379loPI    C3 6051  10.829   3.502  10.495 -0.0293  0.3488  0.0361
  379loPI   PO4 6052  10.915   3.382   9.924 -0.0117 -0.0403  0.1826
  379loPI   GL1 6053  10.830   3.077   9.613 -0.1815 -0.0071 -0.0461
  379loPI   GL2 6054  11.138   3.297   9.479 -0.1157 -0.1320 -0.1464
  379loPI   C1A 6055  10.823   2.883   9.223  0.0714  0.1139 -0.3135
  379loPI   C2A 6056  10.941   2.994   8.787  0.0907 -0.1712  0.3107
  379loPI   C3A 6057  10.899   2.766   8.315 -0.0027 -0.2048 -0.1960
  379loPI   C4A 6058  11.022   2.907   7.883  0.0324  0.3790 -0.3260
  379loPI   C5A 6059  11.066   3.198   7.742  0.4202 -0.4434  0.1439
  379loPI   C6A 6060  10.795   3.430   7.748  0.0891  0.2318  0.1487
  379loPI   C1B 6061  11.138   3.300   9.136  0.0743  0.1913  0.1114
  379loPI   C2B 6062  11.158   3.649   8.786 -0.0184  0.1248  0.0485
  379loPI   C3B 6063  11.086   4.016   8.636  0.0799  0.0281  0.3701
  379loPI   C4B 6064  10.852   4.313   8.682 -0.0529 -0.0888  0.1158
  380loPI    C1 6065   7.735  14.641  10.818 -0.0119 -0.1012 -0.0781
  380loPI    C2 6066   7.412  14.526  11.024 -0.0454 -0.0230 -0.0866
  380loPI    C3 6067   7.633  14.833  11.153 -0.1486  0.1192 -0.2428
  380loPI   PO4 6068   7.743  14.643  10.632  0.3367 -0.2391 -0.1131
  380loPI   GL1 6069   7.747  14.635  10.136 -0.2967 -0.0634 -0.0810
  380loPI   GL2 6070   7.976  14.700   9.943  0.0111  0.2487  0.0488
  380loPI   C1A 6071   7.542  14.628   9.631 -0.1954  0.1748 -0.1066
  380loPI   C2A 6072   7.218  14.752   9.661  0.2513 -0.1855 -0.0925
  380loPI   C3A 6073   7.080  15.003   9.244 -0.0937 -0.2111 -0.2511
  380loPI   C4A 6074   7.092  15.069   8.890 -0.1052 -0.1414 -0.3415
  380loPI   C5A 6075   7.151  15.021   8.396 -0.0837  0.2030  0.2715
  380loPI   C6A 6076   7.283  15.140   7.867  0.1855 -0.0599 -0.1128
  380loPI   C1B 6077   8.073  14.564   9.494  0.0155  0.0233  0.1791
  380loPI   C2B 6078   7.990  14.591   9.064 -0.0685  0.0053  0.0480
  380loPI   C3B 6079   8.027  14.603   8.658  0.1857 -0.2068 -0.3271
  380loPI   C4B 6080   8.044  14.334   8.266 -0.0376 -0.1805 -0.1013
  381loPI    C1 6081  10.333  12.020  10.623 -0.0361  0.0667 -0.0406
  381loPI    C2 6082  10.364  11.976  11.019 -0.0264 -0.3170 -0.0799
  381loPI    C3 6083  10.022  12.107  10.858  0.0242  0.0010  0.0642
  381loPI   PO4 6084  10.627  12.096  10.572  0.2482 -0.1056  0.2363
  381loPI   GL1 6085  10.918  11.936  10.351 -0.0047  0.4309  0.2302
  381loPI   GL2 6086  11.046  12.333  10.317 -0.0335  0.1782 -0.2065
  381loPI   C1A 6087  10.990  11.689   9.883  0.1709  0.0725  0.0858
  381loPI   C2A 6088  10.971  11.695   9.386 -0.0771  0.0728 -0.2297
  381loPI   C3A 6089  11.005  11.787   8.920  0.0462 -0.0357  0.4284
  381loPI   C4A 6090  11.065  11.730   8.518  0.0709  0.3908 -0.0138
  381loPI   C5A 6091  10.878  11.739   8.112  0.0917 -0.1635  0.1260
  381loPI   C6A 6092  10.769  11.742   7.659 -0.2944  0.1521 -0.2532
  381loPI   C1B 6093  10.928  12.217   9.836  0.0632 -0.0199  0.2321
  381loPI   C2B 6094  11.120  12.265   9.452  0.2299 -0.1897 -0.0499
  381loPI   C3B 6095  11.067  12.335   8.957 -0.1564  0.0290 -0.0719
  381loPI   C4B 6096  10.801  12.206   8.535  0.0769  0.1097  0.1105
  382loPI    C1 6097   5.482   7.839  10.486  0.0845 -0.1547 -0.0325
  382loPI    C2 6098   5.796   8.064  10.382  0.1249 -0.2060 -0.0216
  382loPI    C3 6099   5.680   8.048  10.764 -0.1584  0.1558 -0.0876
  382loPI   PO4 6100   5.266   7.947  10.275  0.1372  0.2238 -0.0642
  382loPI   GL1 6101   5.052   7.923   9.951 -0.0018 -0.2747 -0.1232
  382loPI   GL2 6102   4.765   8.024   9.853 -0.0859  0.2553 -0.2711
  382loPI   C1A 6103   5.186   7.980   9.574  0.2345 -0.0343  0.0783
  382loPI   C2A 6104   5.659   7.913   9.455  0.1869 -0.0379  0.0884
  382loPI   C3A 6105   5.825   7.999   9.081  0.0722  0.3451  0.0903
  382loPI   C4A 6106   5.679   7.922   8.609 -0.2501 -0.0073 -0.3645
  382loPI   C5A 6107   5.550   8.217   8.346  0.2555  0.0799 -0.3101
  382loPI   C6A 6108   5.514   8.383   7.918 -0.1029  0.2057 -0.0758
  382loPI   C1B 6109   4.706   7.921   9.441  0.1825 -0.0922  0.0860
  382loPI   C2B 6110   4.859   7.936   9.092  0.4644 -0.1662  0.1198
  382loPI   C3B 6111   4.821   7.937   8.712 -0.2530 -0.1269  0.1264
  382loPI   C4B 6112   4.664   8.193   8.376 -0.2256  0.0255  0.2108
  383loPI    C1 6113   2.629  10.769  10.762  0.3657 -0.2556 -0.0653
  383loPI    C2 6114   2.932  11.030  10.744 -0.0670  0.2708  0.0227
  383loPI    C3 6115   2.750  10.958  11.093  0.0267 -0.1340 -0.0069
  383loPI   PO4 6116   2.473  10.805  10.515  0.1420 -0.0978  0.1076
  383loPI   GL1 6117   2.464  10.823  10.097  0.0650 -0.0048 -0.1601
  383loPI   GL2 6118   2.109  10.827  10.201  0.2625 -0.1529  0.0404
  383loPI   C1A 6119   2.289  11.064   9.729  0.0236  0.2466 -0.1348
  383loPI   C2A 6120   2.449  11.406   9.492  0.0626  0.2557  0.0013
  383loPI   C3A 6121   2.320  11.469   9.047  0.1977  0.0950 -0.0314
  383loPI   C4A 6122   2.331  11.220   8.689 -0.2660 -0.3462 -0.1768
  383loPI   C5A 6123   2.356  10.759   8.573 -0.2173  0.1034  0.0805
  383loPI   C6A 6124   2.227  10.309   8.523 -0.1100  0.1765  0.0330
  383loPI   C1B 6125   1.745  10.940   9.814 -0.1420 -0.1844  0.0907
  383loPI   C2B 6126   1.890  11.088   9.407  0.2209 -0.0627  0.2341
  383loPI   C3B 6127   1.815  11.166   8.985 -0.1465  0.2396 -0.3017
  383loPI   C4B 6128   1.851  11.155   8.528 -0.1467 -0.0484  0.0013
  384loPI    C1 6129   8.892  12.533  10.827  0.1034  0.1990 -0.0733
  384loPI    C2 6130   8.592  12.797  10.852 -0.0962 -0.0432  0.1619
  384loPI    C3 6131   8.581  12.461  11.069  0.2217 -0.1807 -0.0270
  384loPI   PO4 6132   8.930  12.578  10.460 -0.2545  0.0407 -0.3972
  384loPI   GL1 6133   9.186  12.373  10.195 -0.0866 -0.0097  0.2413
  384loPI   GL2 6134   9.518  12.454  10.034 -0.1000 -0.1011  0.1875
  384loPI   C1A 6135   9.094  12.378   9.790 -0.0420 -0.0279 -0.3330
  384loPI   C2A 6136   9.065  12.200   9.311  0.2373 -0.1336 -0.0588
  384loPI   C3A 6137   9.086  11.992   8.889  0.0932  0.2121 -0.1207
  384loPI   C4A 6138   8.964  12.092   8.553 -0.0467  0.1688  0.0592
  384loPI   C5A 6139   8.875  12.201   8.232  0.0643  0.2060  0.2182
  384loPI   C6A 6140   8.479  12.259   8.018 -0.3084 -0.0499  0.1817
  384loPI   C1B 6141   9.614  12.143   9.735  0.1433 -0.2026 -0.2630
  384loPI   C2B 6142   9.519  12.118   9.403  0.3224  0.1315 -0.2268
  384loPI   C3B 6143   9.548  12.056   8.999 -0.1540  0.0092  0.1415
  384loPI   C4B 6144   9.500  12.018   8.595  0.0146 -0.0414 -0.2336
  385loPI    C1 6145   1.733   5.088  10.323  0.0369 -0.1540  0.0254
  385loPI    C2 6146   2.096   5.198  10.451  0.0226 -0.1547  0.0664
  385loPI    C3 6147   1.778   5.239  10.691 -0.0218 -0.0501 -0.0099
  385loPI   PO4 6148   1.796   4.896  10.177 -0.0913  0.0648  0.0601
  385loPI   GL1 6149   1.707   4.819   9.838  0.2585  0.1977 -0.0058
  385loPI   GL2 6150   1.963   4.588   9.877  0.0737  0.2424  0.0166
  385loPI   C1A 6151   1.518   4.472   9.651 -0.2382  0.2253 -0.2015
  385loPI   C2A 6152   1.483   4.529   9.245 -0.0365 -0.2289  0.2281
  385loPI   C3A 6153   1.434   4.501   8.892 -0.4590  0.0070 -0.1013
  385loPI   C4A 6154   1.365   4.549   8.323 -0.0038  0.1618  0.1247
  385loPI   C5A 6155   1.257   4.752   7.892  0.0032  0.0264 -0.0339
  385loPI   C6A 6156   0.895   5.052   7.779  0.2037  0.0892 -0.0038
  385loPI   C1B 6157   2.045   4.469   9.552 -0.1426 -0.0093 -0.0083
  385loPI   C2B 6158   1.987   4.543   9.090  0.2085  0.3378 -0.2813
  385loPI   C3B 6159   1.894   4.638   8.659  0.0426 -0.2120 -0.2921
  385loPI   C4B 6160   1.912   4.617   8.336  0.0134  0.0286  0.3230
  386loPI    C1 6161   2.092   3.216  10.588 -0.0781 -0.2396 -0.3511
  386loPI    C2 6162   1.725   3.372  10.549 -0.0527 -0.1156 -0.1119
  386loPI    C3 6163   1.795   3.090  10.824  0.0874  0.0447  0.0195
  386loPI   PO4 6164   2.067   3.106  10.295  0.0076  0.1028 -0.2543
  386loPI   GL1 6165   1.895   2.823   9.982  0.2469  0.0183  0.3470
  386loPI   GL2 6166   1.731   3.187   9.966  0.2048 -0.0921  0.0621
  386loPI   C1A 6167   1.703   2.609   9.774  0.2704  0.0319  0.3319
  386loPI   C2A 6168   1.676   2.684   9.277  0.0085 -0.1518  0.0738
  386loPI   C3A 6169   1.661   2.747   8.857  0.0987  0.1903 -0.2602
  386loPI   C4A 6170   1.630   2.862   8.386 -0.0354 -0.0255  0.0419
  386loPI   C5A 6171   1.636   2.950   7.910 -0.0471 -0.2307 -0.2312
  386loPI   C6A 6172   1.641   3.021   7.464  0.1741  0.0172  0.1831
  386loPI   C1B 6173   1.934   3.134   9.473 -0.2249 -0.1500 -0.0208
  386loPI   C2B 6174   1.856   3.207   8.991 -0.0976  0.1992  0.0556
  386loPI   C3B 6175   1.784   3.269   8.596  0.0223 -0.0367  0.0530
  386loPI   C4B 6176   1.925   3.374   8.179 -0.0863 -0.0480  0.1951
  387loPI    C1 6177  11.830   6.588  10.367 -0.0858  0.1916  0.1739
  387loPI    C2 6178  11.998   6.854  10.614  0.1293  0.0526  0.1802
  387loPI    C3 6179  11.740   6.976  10.334  0.1206  0.2496  0.2723
  387loPI   PO4 6180  11.847   6.287  10.312 -0.0596  0.0138  0.2348
  387loPI   GL1 6181  11.690   6.041   9.905  0.1203  0.2645  0.3233
  387loPI   GL2 6182  11.825   6.391   9.835 -0.0798 -0.4169 -0.1175
  387loPI   C1A 6183  11.430   6.187   9.533  0.2062 -0.1894 -0.0997
  387loPI   C2A 6184  11.387   6.347   9.147 -0.2161  0.2131  0.3492
  387loPI   C3A 6185  11.403   6.450   8.694 -0.0305  0.0132 -0.0643
  387loPI   C4A 6186  11.383   6.513   8.235 -0.0622 -0.0652  0.1992
  387loPI   C5A 6187  11.473   6.711   7.849  0.0539  0.1753 -0.2375
  387loPI   C6A 6188  11.258   7.023   7.535  0.0737 -0.0850 -0.1798
  387loPI   C1B 6189  11.944   6.467   9.404 -0.2365  0.0200  0.0399
  387loPI   C2B 6190  11.966   6.472   8.976 -0.2008  0.0844  0.0086
  387loPI   C3B 6191  11.914   6.618   8.587 -0.0887  0.1696  0.2644
  387loPI   C4B 6192  11.905   6.612   8.176  0.0254 -0.0294  0.1347
  388loPI    C1 6193   9.477  11.937  10.804 -0.1455  0.1194  0.0154
  388loPI    C2 6194   9.198  12.095  11.042  0.0506  0.3979  0.0654
  388loPI    C3 6195   9.582  12.103  11.152  0.0704 -0.0971  0.0566
  388loPI   PO4 6196   9.351  11.825  10.625  0.0141  0.0918 -0.0480
  388loPI   GL1 6197   9.470  11.939  10.179  0.3228 -0.0068 -0.1031
  388loPI   GL2 6198   9.598  11.752  10.015 -0.1212 -0.3064 -0.1587
  388loPI   C1A 6199   9.139  11.867   9.749 -0.2589  0.3942 -0.2745
  388loPI   C2A 6200   9.212  11.637   9.385 -0.1091  0.0912  0.1923
  388loPI   C3A 6201   9.243  11.514   8.847 -0.0652 -0.1769 -0.4229
  388loPI   C4A 6202   9.166  11.538   8.462 -0.0523  0.2212  0.2147
  388loPI   C5A 6203   9.184  11.835   8.142  0.3537 -0.0769 -0.0104
  388loPI   C6A 6204   9.282  12.022   7.754 -0.3294  0.0680  0.2817
  388loPI   C1B 6205   9.693  11.586   9.570  0.2323 -0.0689 -0.0124
  388loPI   C2B 6206   9.752  11.531   9.100  0.0984  0.3151  0.4257
  388loPI   C3B 6207   9.678  11.580   8.628  0.0591  0.0651  0.1718
  388loPI   C4B 6208   9.683  11.680   8.183 -0.1819  0.2065 -0.0895
  389loPI    C1 6209   4.459  12.425  10.720 -0.0463  0.4194 -0.4893
  389loPI    C2 6210   4.223  12.732  10.821 -0.5437 -0.1380  0.1408
  389loPI    C3 6211   4.548  12.648  11.040 -0.2825  0.0609 -0.1629
  389loPI   PO4 6212   4.560  12.482  10.432  0.1868  0.0741 -0.2602
  389loPI   GL1 6213   4.433  12.545  10.010  0.2479  0.1523  0.1634
  389loPI   GL2 6214   4.577  12.884   9.899  0.3010 -0.1058  0.0953
  389loPI   C1A 6215   4.510  12.396   9.563  0.2382 -0.0032 -0.0527
  389loPI   C2A 6216   4.493  12.335   9.022 -0.1514  0.0619 -0.1978
  389loPI   C3A 6217   4.481  12.288   8.675 -0.1343  0.0127 -0.0164
  389loPI   C4A 6218   4.574  12.413   8.181  0.1216 -0.0412 -0.3486
  389loPI   C5A 6219   4.775  12.581   7.877  0.1231  0.0025 -0.1900
  389loPI   C6A 6220   4.767  12.866   7.522  0.1212 -0.3212  0.0075
  389loPI   C1B 6221   4.504  12.955   9.504  0.1192  0.2878  0.0766
  389loPI   C2B 6222   4.569  12.891   9.030  0.3766 -0.0822  0.0087
  389loPI   C3B 6223   4.432  12.801   8.623  0.1906  0.1468 -0.0105
  389loPI   C4B 6224   4.521  12.913   8.193  0.0207 -0.0528 -0.0184
  390loPI    C1 6225  17.250  10.404  10.796 -0.1240 -0.2197 -0.1503
  390loPI    C2 6226  17.551  10.229  10.993  0.0693  0.0032 -0.2430
  390loPI    C3 6227  17.211  10.316  11.185  0.1295 -0.0885 -0.0927
  390loPI   PO4 6228  17.173  10.311  10.505  0.2789 -0.3188 -0.0230
  390loPI   GL1 6229  16.994  10.233  10.163  0.0050 -0.0025 -0.0971
  390loPI   GL2 6230  17.297  10.196  10.041  0.1966 -0.2798  0.0732
  390loPI   C1A 6231  16.748  10.481   9.860  0.2366 -0.0878  0.2007
  390loPI   C2A 6232  16.669  10.462   9.387 -0.0672  0.0683  0.0679
  390loPI   C3A 6233  16.685  10.479   8.954 -0.4024  0.0112 -0.1892
  390loPI   C4A 6234  16.772  10.551   8.486  0.1951  0.1469  0.0986
  390loPI   C5A 6235  17.077  10.463   8.205 -0.4637  0.0702 -0.1058
  390loPI   C6A 6236  17.325  10.887   8.130 -0.0500 -0.1675  0.3965
  390loPI   C1B 6237  17.342  10.417   9.704  0.0927  0.1238 -0.1254
  390loPI   C2B 6238  17.610  10.467   9.413 -0.0497  0.0607  0.3941
  390loPI   C3B 6239  17.594  10.521   8.983  0.0194 -0.3594 -0.2160
  390loPI   C4B 6240  17.344  10.811   8.604 -0.2181 -0.0054  0.0958
  391loPI    C1 6241   3.517   3.215  10.525 -0.0841 -0.0311 -0.1330
  391loPI    C2 6242   3.159   3.336  10.658 -0.0662 -0.1791  0.0544
  391loPI    C3 6243   3.492   3.445  10.851  0.0058  0.1048 -0.2212
  391loPI   PO4 6244   3.536   3.410  10.189 -0.0871 -0.0013 -0.1248
  391loPI   GL1 6245   3.256   3.435   9.927  0.1876 -0.0386  0.0454
  391loPI   GL2 6246   3.357   3.007   9.923  0.1539 -0.1490  0.1128
  391loPI   C1A 6247   3.039   3.502   9.622  0.0972  0.1561 -0.0479
  391loPI   C2A 6248   2.953   3.341   9.314  0.0272 -0.0391  0.0786
  391loPI   C3A 6249   2.835   3.362   8.804  0.0754 -0.2799 -0.1387
  391loPI   C4A 6250   2.892   3.554   8.403 -0.4718 -0.1547  0.0621
  391loPI   C5A 6251   2.860   3.834   8.061 -0.2836 -0.1802  0.1709
  391loPI   C6A 6252   2.709   4.007   7.691  0.3498  0.0875  0.1200
  391loPI   C1B 6253   3.257   3.042   9.514 -0.1000 -0.1207  0.0612
  391loPI   C2B 6254   3.241   2.968   9.157 -0.0601  0.0293 -0.2566
  391loPI   C3B 6255   3.118   2.976   8.713 -0.0658 -0.1076  0.2079
  391loPI   C4B 6256   3.109   3.058   8.278 -0.0445 -0.2337  0.0962
  392loPI    C1 6257   9.342  14.248  11.047 -0.2474 -0.0748 -0.1026
  392loPI    C2 6258   9.226  14.564  10.831 -0.1019  0.1143  0.0910
  392loPI    C3 6259   9.364  14.616  11.203  0.1481 -0.1532  0.0394
  392loPI   PO4 6260   9.258  14.052  10.832  0.1069  0.0860  0.0976
  392loPI   GL1 6261   9.265  13.969  10.359  0.0339  0.1483 -0.0176
  392loPI   GL2 6262   9.246  13.704  10.139  0.4327  0.0519  0.2734
  392loPI   C1A 6263   9.485  14.170  10.049 -0.3669 -0.0657  0.0945
  392loPI   C2A 6264   9.435  14.184   9.601  0.0456 -0.0898 -0.1217
  392loPI   C3A 6265   9.514  13.959   9.297 -0.4364  0.0745  0.0627
  392loPI   C4A 6266   9.506  13.913   8.866 -0.2560  0.0468 -0.3622
  392loPI   C5A 6267   9.718  13.780   8.498  0.2392  0.1948  0.2502
  392loPI   C6A 6268   9.640  13.859   8.011  0.4241  0.0878 -0.1173
  392loPI   C1B 6269   9.230  13.777   9.745  0.1432  0.0646 -0.1060
  392loPI   C2B 6270   9.083  13.638   9.395 -0.0255  0.2503  0.0022
  392loPI   C3B 6271   9.069  13.581   8.947  0.0798  0.1543  0.0224
  392loPI   C4B 6272   9.227  13.763   8.467  0.3368 -0.1474 -0.1869
  393loPI    C1 6273   4.805   5.795  10.673  0.1074  0.1002 -0.0318
  393loPI    C2 6274   4.695   6.180  10.685  0.1381  0.1105 -0.0755
  393loPI    C3 6275   5.070   6.077  10.777  0.1552  0.1012 -0.1556
  393loPI   PO4 6276   4.689   5.741  10.403  0.0249 -0.1355 -0.1786
  393loPI   GL1 6277   4.745   5.622  10.012  0.2046 -0.0023  0.0041
  393loPI   GL2 6278   4.700   5.887   9.773  0.2952  0.1351  0.0776
  393loPI   C1A 6279   4.657   5.315   9.811 -0.0255 -0.1835  0.1696
  393loPI   C2A 6280   4.616   5.221   9.379  0.1919  0.1345 -0.1707
  393loPI   C3A 6281   4.369   5.128   9.004 -0.0879 -0.1492 -0.2519
  393loPI   C4A 6282   4.195   5.357   8.658  0.2148  0.0233  0.0795
  393loPI   C5A 6283   4.247   5.423   8.258 -0.1657  0.1952  0.3595
  393loPI   C6A 6284   4.533   5.232   7.917 -0.2336  0.2505 -0.1457
  393loPI   C1B 6285   4.885   5.585   9.458  0.2681 -0.0769 -0.1268
  393loPI   C2B 6286   4.920   5.773   8.964  0.2875  0.2847  0.0205
  393loPI   C3B 6287   5.090   5.691   8.506 -0.2341 -0.2084  0.0849
  393loPI   C4B 6288   5.154   5.611   7.991 -0.1348  0.1438 -0.0150
  394loPI    C1 6289   8.716  14.476  10.738  0.3715 -0.2661 -0.1205
  394loPI    C2 6290   8.846  14.273  11.058 -0.1240 -0.0960  0.2002
  394loPI    C3 6291   8.758  14.662  11.090  0.1714  0.0154 -0.2420
  394loPI   PO4 6292   8.577  14.345  10.620 -0.3357  0.0572 -0.2067
  394loPI   GL1 6293   8.671  14.294  10.219 -0.0944 -0.1999  0.0030
  394loPI   GL2 6294   8.795  14.053  10.131 -0.0051  0.1754  0.5639
  394loPI   C1A 6295   8.968  14.373   9.791 -0.1703 -0.3004 -0.0629
  394loPI   C2A 6296   8.993  14.150   9.356  0.1254  0.1490 -0.0558
  394loPI   C3A 6297   8.966  14.161   8.934 -0.1353  0.2450 -0.0461
  394loPI   C4A 6298   9.035  14.259   8.555  0.0234 -0.1098  0.1098
  394loPI   C5A 6299   8.925  14.565   8.322 -0.0213  0.0054 -0.2444
  394loPI   C6A 6300   8.894  14.957   8.115  0.1142 -0.1128  0.2950
  394loPI   C1B 6301   8.759  13.903   9.675  0.0058  0.0674  0.1073
  394loPI   C2B 6302   8.651  13.788   9.268  0.0667  0.0912 -0.1013
  394loPI   C3B 6303   8.559  13.909   8.791 -0.3790  0.0731 -0.1841
  394loPI   C4B 6304   8.674  13.623   8.521 -0.1951  0.0923 -0.0152
  395loPI    C1 6305  12.959   7.634  10.720  0.2353  0.0634  0.1545
  395loPI    C2 6306  13.002   7.446  11.070 -0.1569 -0.0932  0.1242
  395loPI    C3 6307  12.767   7.768  11.044 -0.0313 -0.0082  0.0290
  395loPI   PO4 6308  13.157   7.556  10.531  0.0626 -0.1684  0.2147
  395loPI   GL1 6309  13.225   7.729  10.207  0.0693  0.0867 -0.0674
  395loPI   GL2 6310  12.970   7.974  10.303 -0.2113  0.3199 -0.0490
  395loPI   C1A 6311  13.157   7.691   9.792 -0.1810 -0.3550  0.2094
  395loPI   C2A 6312  13.165   7.713   9.357 -0.1615 -0.0071  0.2208
  395loPI   C3A 6313  13.152   7.790   8.891  0.2273 -0.1765  0.0018
  395loPI   C4A 6314  13.259   7.805   8.442  0.0033  0.3741  0.0864
  395loPI   C5A 6315  13.185   7.536   8.078  0.1688  0.1231  0.3031
  395loPI   C6A 6316  13.148   7.128   7.868 -0.4220 -0.0754 -0.1493
  395loPI   C1B 6317  12.834   8.017   9.918  0.1902  0.1315  0.4146
  395loPI   C2B 6318  12.800   8.034   9.415 -0.0962 -0.2112  0.1157
  395loPI   C3B 6319  12.837   8.093   8.992  0.0048  0.0188 -0.0055
  395loPI   C4B 6320  12.886   8.108   8.595 -0.2980  0.1077 -0.2617
  396loPI    C1 6321  16.375   5.830  10.526 -0.1976 -0.0778  0.1195
  396loPI    C2 6322  16.017   5.660  10.579 -0.0939 -0.2153  0.4005
  396loPI    C3 6323  16.193   5.854  10.881 -0.0497  0.0865  0.1854
  396loPI   PO4 6324  16.503   5.625  10.414  0.2567 -0.1303  0.1747
  396loPI   GL1 6325  16.655   5.642   9.985 -0.3960  0.0239 -0.0478
  396loPI   GL2 6326  16.864   5.897   9.856 -0.0422  0.1258  0.0549
  396loPI   C1A 6327  16.552   5.604   9.581 -0.0158 -0.0301 -0.0652
  396loPI   C2A 6328  16.539   5.619   9.196  0.2369 -0.1460  0.0496
  396loPI   C3A 6329  16.342   5.556   8.835 -0.2063  0.1367 -0.2918
  396loPI   C4A 6330  16.360   5.530   8.468 -0.1592  0.1535  0.0790
  396loPI   C5A 6331  16.622   5.473   8.084 -0.0189  0.2645 -0.1103
  396loPI   C6A 6332  16.948   5.481   7.936 -0.2017 -0.2637  0.2962
  396loPI   C1B 6333  17.066   5.662   9.511 -0.0311 -0.1442 -0.0435
  396loPI   C2B 6334  17.054   5.513   9.095  0.0512 -0.0383 -0.0259
  396loPI   C3B 6335  16.891   5.709   8.660  0.1382 -0.2151 -0.1974
  396loPI   C4B 6336  16.907   5.825   8.298  0.4727 -0.0837  0.0775
  397loPI    C1 6337   5.176   4.879  10.686  0.2626  0.1281 -0.1748
  397loPI    C2 6338   5.475   4.614  10.671  0.1749  0.0274 -0.1543
  397loPI    C3 6339   5.269   4.665  11.010 -0.0957 -0.1994 -0.2804
  397loPI   PO4 6340   5.009   4.812  10.469 -0.0127  0.0889  0.2089
  397loPI   GL1 6341   4.833   4.933  10.092  0.1225  0.1729  0.0097
  397loPI   GL2 6342   5.027   4.653   9.949 -0.2599 -0.1027  0.1212
  397loPI   C1A 6343   5.177   5.120   9.769  0.1281  0.1295  0.3012
  397loPI   C2A 6344   5.207   5.222   9.328  0.2419 -0.5345 -0.0755
  397loPI   C3A 6345   5.224   5.306   8.856  0.1547 -0.1862  0.0878
  397loPI   C4A 6346   5.279   5.267   8.335  0.2044  0.2274  0.1184
  397loPI   C5A 6347   5.085   5.027   7.973  0.3057 -0.3752  0.0630
  397loPI   C6A 6348   4.930   4.839   7.530  0.2286  0.1018 -0.0690
  397loPI   C1B 6349   4.861   4.787   9.567 -0.3175  0.1656 -0.1535
  397loPI   C2B 6350   4.874   4.879   9.162  0.1033  0.1994  0.4963
  397loPI   C3B 6351   4.800   4.975   8.743  0.1909 -0.2101  0.4176
  397loPI   C4B 6352   4.740   5.247   8.448 -0.1300  0.1013 -0.3200
  398loPI    C1 6353   9.742  12.447  10.574 -0.0872 -0.0843  0.2652
  398loPI    C2 6354   9.362  12.423  10.697 -0.0868 -0.0112  0.2815
  398loPI    C3 6355   9.486  12.743  10.492 -0.0064  0.0164  0.3726
  398loPI   PO4 6356   9.810  12.216  10.421 -0.1151  0.1911 -0.0459
  398loPI   GL1 6357  10.008  12.051  10.113 -0.1422  0.1956 -0.0685
  398loPI   GL2 6358  10.310  11.984  10.090 -0.1116  0.0077  0.0143
  398loPI   C1A 6359  10.041  12.013   9.603 -0.1542  0.1510 -0.0031
  398loPI   C2A 6360  10.102  11.966   9.149  0.3349 -0.1955  0.0378
  398loPI   C3A 6361  10.036  11.955   8.752  0.2188  0.0670 -0.3478
  398loPI   C4A 6362   9.951  12.017   8.393 -0.0515  0.1279 -0.4235
  398loPI   C5A 6363   9.663  12.211   8.149  0.0823  0.0161  0.0790
  398loPI   C6A 6364   9.354  12.474   8.181  0.0183 -0.1977  0.0867
  398loPI   C1B 6365  10.512  11.850   9.838  0.0199  0.1421  0.2070
  398loPI   C2B 6366  10.643  12.017   9.465  0.0309 -0.0304  0.0077
  398loPI   C3B 6367  10.576  11.998   8.954  0.2156  0.1496 -0.1586
  398loPI   C4B 6368  10.575  11.776   8.601  0.2981 -0.1967  0.1502
  399loPI    C1 6369  14.206   0.934  10.308  0.0160  0.1026 -0.0117
  399loPI    C2 6370  14.024   0.896  10.662  0.1983  0.2195  0.0963
  399loPI    C3 6371  14.081   0.575  10.431  0.0979  0.1391  0.1822
  399loPI   PO4 6372  14.113   1.074  10.135 -0.0668  0.2303 -0.1385
  399loPI   GL1 6373  14.302   1.308   9.854  0.0125  0.3226  0.1259
  399loPI   GL2 6374  14.109   1.592   9.785  0.0275 -0.0128  0.0381
  399loPI   C1A 6375  14.258   1.225   9.465 -0.0476 -0.1825  0.2746
  399loPI   C2A 6376  14.268   1.113   9.078 -0.0636 -0.0076 -0.2552
  399loPI   C3A 6377  14.346   1.035   8.683 -0.1797  0.0798  0.2614
  399loPI   C4A 6378  14.290   1.093   8.230  0.0699  0.0726  0.4225
  399loPI   C5A 6379  14.434   1.407   7.911 -0.1034  0.3879  0.1261
  399loPI   C6A 6380  14.139   1.459   7.483 -0.1519  0.1618  0.0496
  399loPI   C1B 6381  13.906   1.589   9.389  0.1953  0.3344 -0.5297
  399loPI   C2B 6382  13.986   1.546   8.945 -0.1090  0.2172  0.3889
  399loPI   C3B 6383  14.002   1.493   8.562 -0.0376 -0.0021 -0.2870
  399loPI   C4B 6384  14.039   1.518   8.114 -0.0557  0.0542 -0.0484
  400loPI    C1 6385   2.402   3.790  10.670 -0.0196  0.1684  0.1162
  400loPI    C2 6386   2.592   3.947  10.355 -0.1073  0.0996  0.0280
  400loPI    C3 6387   2.798   3.750  10.636 -0.0837 -0.2495 -0.2283
  400loPI   PO4 6388   2.101   3.788  10.519 -0.2368  0.0018  0.0797
  400loPI   GL1 6389   1.967   3.620  10.155 -0.0255  0.3984 -0.2879
  400loPI   GL2 6390   2.340   3.482  10.216 -0.0573  0.2009 -0.0268
  400loPI   C1A 6391   2.029   3.567   9.709 -0.0753  0.0592  0.0478
  400loPI   C2A 6392   2.066   3.563   9.212 -0.3115  0.1091 -0.1777
  400loPI   C3A 6393   2.075   3.683   8.876  0.2077  0.0292 -0.1875
  400loPI   C4A 6394   2.003   3.770   8.453 -0.1070  0.1147  0.1042
  400loPI   C5A 6395   2.263   3.865   8.012  0.2439 -0.1228 -0.3262
  400loPI   C6A 6396   2.399   3.642   7.758 -0.4304 -0.2405 -0.0569
  400loPI   C1B 6397   2.614   3.674   9.829 -0.2474 -0.2116  0.1491
  400loPI   C2B 6398   2.734   3.830   9.426  0.0306 -0.1060 -0.0420
  400loPI   C3B 6399   2.584   3.710   9.038 -0.1873  0.1066 -0.1555
  400loPI   C4B 6400   2.554   3.797   8.687  0.3659  0.0831  0.2104
  401loPI    C1 6401   0.400   9.881  10.692 -0.0264 -0.0463 -0.0407
  401loPI    C2 6402   0.105  10.083  10.872  0.1345  0.0643  0.1022
  401loPI    C3 6403   0.313   9.808  11.075  0.0835 -0.0652 -0.0191
  401loPI   PO4 6404   0.302   9.886  10.471 -0.2604 -0.1417 -0.0089
  401loPI   GL1 6405   0.127   9.912  10.055 -0.1343  0.1376 -0.0347
  401loPI   GL2 6406   0.308   9.726   9.941 -0.1980  0.0841  0.0668
  401loPI   C1A 6407   0.066  10.237   9.700 -0.1079  0.1335  0.2206
  401loPI   C2A 6408   0.147  10.595   9.431  0.1926  0.3040  0.5398
  401loPI   C3A 6409   0.011  10.538   9.002  0.1000 -0.1744 -0.4120
  401loPI   C4A 6410   0.073  10.587   8.645  0.0810  0.0942 -0.3084
  401loPI   C5A 6411  -0.289  10.559   8.257  0.0691 -0.0167 -0.2354
  401loPI   C6A 6412  -0.491  10.476   7.794 -0.0061  0.1540 -0.2312
  401loPI   C1B 6413   0.298   9.724   9.478 -0.0976  0.0339  0.2580
  401loPI   C2B 6414   0.408   9.782   8.995 -0.1768  0.1235  0.1615
  401loPI   C3B 6415   0.488   9.828   8.506  0.0008 -0.2457  0.3483
  401loPI   C4B 6416   0.808   9.816   8.132  0.0163 -0.1865  0.1285
  402loPI    C1 6417   3.847  13.037  10.507  0.0704  0.0681  0.0097
  402loPI    C2 6418   3.469  12.974  10.622  0.0843 -0.0461 -0.0059
  402loPI    C3 6419   3.754  13.036  10.896  0.0574  0.0235  0.0066
  402loPI   PO4 6420   3.701  13.134  10.219  0.1093 -0.0732  0.0692
  402loPI   GL1 6421   3.525  13.013   9.883 -0.0253 -0.5637 -0.2627
  402loPI   GL2 6422   3.619  13.436   9.685  0.3728  0.1980  0.1399
  402loPI   C1A 6423   3.507  12.863   9.548 -0.0018  0.1729  0.0697
  402loPI   C2A 6424   3.545  12.786   9.091 -0.0476 -0.0940 -0.1990
  402loPI   C3A 6425   3.613  12.768   8.680  0.1077 -0.4082 -0.4546
  402loPI   C4A 6426   3.624  12.821   8.248 -0.0471 -0.1534 -0.3018
  402loPI   C5A 6427   3.984  12.768   7.846 -0.1326 -0.0667 -0.1043
  402loPI   C6A 6428   4.153  12.534   7.447  0.1511 -0.2274  0.0431
  402loPI   C1B 6429   3.546  13.293   9.277  0.2734  0.1367  0.2459
  402loPI   C2B 6430   3.619  13.224   8.811 -0.2369 -0.1606 -0.2313
  402loPI   C3B 6431   3.625  13.270   8.488  0.1075 -0.0971  0.0804
  402loPI   C4B 6432   3.427  13.482   8.106 -0.0996 -0.1034 -0.0502
  403loPI    C1 6433   4.926  15.534  10.239  0.0795  0.2887  0.1322
  403loPI    C2 6434   4.998  15.607  10.625 -0.0388  0.0658  0.1981
  403loPI    C3 6435   5.302  15.539  10.375  0.0423  0.2789  0.2364
  403loPI   PO4 6436   4.642  15.510  10.260  0.1529 -0.1469  0.3855
  403loPI   GL1 6437   4.341  15.453   9.984  0.1175  0.1516  0.2496
  403loPI   GL2 6438   4.209  15.157   9.986  0.1481 -0.0143  0.1482
  403loPI   C1A 6439   4.111  15.728   9.767  0.3136 -0.0615  0.1138
  403loPI   C2A 6440   3.919  15.713   9.391  0.1831  0.2579 -0.1587
  403loPI   C3A 6441   3.851  15.636   8.999 -0.2256  0.0980  0.1174
  403loPI   C4A 6442   3.896  15.699   8.509 -0.0244  0.0568 -0.1889
  403loPI   C5A 6443   3.968  15.651   8.042 -0.1207 -0.1443 -0.0680
  403loPI   C6A 6444   4.234  15.423   7.778 -0.4707  0.0742 -0.2879
  403loPI   C1B 6445   4.323  15.309   9.499 -0.0098  0.1810 -0.1747
  403loPI   C2B 6446   4.298  15.431   9.104  0.1059 -0.1213  0.0895
  403loPI   C3B 6447   4.346  15.508   8.720 -0.0301 -0.1589 -0.1406
  403loPI   C4B 6448   4.375  15.469   8.369 -0.2552  0.0904 -0.1181
  404loPI    C1 6449   4.016  10.527  10.107 -0.0514 -0.1083 -0.0364
  404loPI    C2 6450   3.883  10.296  10.406  0.3208 -0.2627  0.0158
  404loPI    C3 6451   3.847  10.173  10.027 -0.0318 -0.1264  0.0018
  404loPI   PO4 6452   3.953  10.775  10.086 -0.0521 -0.0284 -0.1477
  404loPI   GL1 6453   3.849  11.067   9.827  0.0425 -0.3396 -0.1191
  404loPI   GL2 6454   3.573  11.323   9.839  0.0040  0.2428  0.0422
  404loPI   C1A 6455   3.910  11.331   9.453  0.0111  0.0771 -0.0458
  404loPI   C2A 6456   4.070  11.463   9.013  0.1188 -0.1860 -0.0841
  404loPI   C3A 6457   4.135  11.535   8.572 -0.1958  0.2674 -0.0594
  404loPI   C4A 6458   4.159  11.591   8.045 -0.1200 -0.2693  0.2429
  404loPI   C5A 6459   4.121  11.782   7.603 -0.3328 -0.3166  0.0606
  404loPI   C6A 6460   4.228  12.020   7.343  0.1151 -0.2261  0.0653
  404loPI   C1B 6461   3.340  11.578   9.468  0.0900  0.0071  0.1306
  404loPI   C2B 6462   3.230  11.514   8.946 -0.1908  0.0051 -0.2317
  404loPI   C3B 6463   3.211  11.419   8.437 -0.2211 -0.4272  0.2995
  404loPI   C4B 6464   3.274  11.448   7.994 -0.0599  0.0342  0.0620
  405loPI    C1 6465   3.304  10.961  10.370 -0.1696  0.0429 -0.0283
  405loPI    C2 6466   3.030  10.671  10.397  0.0039 -0.1141  0.0695
  405loPI    C3 6467   3.299  10.720  10.689  0.1849 -0.0693 -0.1032
  405loPI   PO4 6468   3.306  10.997  10.073 -0.0994 -0.2282  0.3158
  405loPI   GL1 6469   3.172  10.767   9.663 -0.2921  0.0657  0.0359
  405loPI   GL2 6470   2.882  10.797   9.862  0.0862  0.0140  0.1296
  405loPI   C1A 6471   3.615  10.910   9.440  0.1241 -0.2130  0.2991
  405loPI   C2A 6472   3.586  11.193   9.099 -0.0530 -0.0217  0.1236
  405loPI   C3A 6473   3.705  11.151   8.754  0.0443  0.0718 -0.0222
  405loPI   C4A 6474   3.716  11.294   8.295 -0.0653 -0.0106  0.0879
  405loPI   C5A 6475   3.778  11.298   7.821 -0.1845 -0.0829  0.0835
  405loPI   C6A 6476   4.071  11.233   7.530 -0.2663 -0.0268 -0.2712
  405loPI   C1B 6477   2.697  10.930   9.388  0.0114  0.0543  0.0441
  405loPI   C2B 6478   2.705  11.123   8.999 -0.1860  0.1158  0.0539
  405loPI   C3B 6479   2.819  11.132   8.595 -0.0101 -0.1895  0.1936
  405loPI   C4B 6480   2.815  11.214   8.238  0.3585 -0.1496 -0.0381
  406loPI    C1 6481  13.357  12.545  11.197 -0.1064  0.1204 -0.0577
  406loPI    C2 6482  13.676  12.769  11.286  0.1426 -0.1700 -0.2041
  406loPI    C3 6483  13.465  12.595  11.579  0.1374 -0.0049 -0.1086
  406loPI   PO4 6484  13.289  12.586  10.997 -0.2249 -0.0693 -0.1874
  406loPI   GL1 6485  13.269  12.672  10.595  0.1006 -0.0051  0.2125
  406loPI   GL2 6486  13.528  12.880  10.415 -0.1085 -0.0256  0.0048
  406loPI   C1A 6487  13.146  12.531  10.240 -0.0885 -0.1562  0.2192
  406loPI   C2A 6488  13.035  12.151  10.064 -0.4700 -0.0245 -0.1348
  406loPI   C3A 6489  12.965  11.944   9.653  0.1279  0.0490  0.0726
  406loPI   C4A 6490  12.884  12.008   9.198  0.3618 -0.0088 -0.1155
  406loPI   C5A 6491  12.771  11.922   8.733 -0.1997  0.1164 -0.1625
  406loPI   C6A 6492  12.668  11.695   8.368  0.0966 -0.0445 -0.2204
  406loPI   C1B 6493  13.686  13.081  10.085 -0.0323 -0.0676  0.0674
  406loPI   C2B 6494  13.768  13.027   9.626  0.0025  0.1734 -0.0749
  406loPI   C3B 6495  13.792  12.973   9.189 -0.1065  0.0880  0.0672
  406loPI   C4B 6496  13.923  12.934   8.827  0.1277  0.3388  0.3635
  407loPI    C1 6497   7.836  10.464  10.207  0.0095 -0.0457 -0.1476
  407loPI    C2 6498   7.538  10.476  10.474  0.0216  0.2287 -0.1438
  407loPI    C3 6499   7.915  10.540  10.591  0.1051 -0.2602 -0.1233
  407loPI   PO4 6500   7.753  10.167  10.045  0.0246 -0.0436  0.1191
  407loPI   GL1 6501   7.506  10.110   9.562 -0.3995  0.1917 -0.1096
  407loPI   GL2 6502   7.562   9.868   9.622 -0.5628 -0.2122 -0.2592
  407loPI   C1A 6503   7.624  10.338   9.147 -0.2253 -0.0686  0.1827
  407loPI   C2A 6504   7.897  10.477   8.722 -0.0569 -0.1830  0.0979
  407loPI   C3A 6505   7.868  10.781   8.226  0.0345 -0.2576 -0.2469
  407loPI   C4A 6506   7.662  10.993   7.837 -0.1985  0.0269 -0.2687
  407loPI   C5A 6507   7.378  11.019   7.545  0.2826 -0.1082  0.2101
  407loPI   C6A 6508   7.041  10.980   7.342  0.0810 -0.0754 -0.0699
  407loPI   C1B 6509   7.426   9.794   9.220 -0.0453  0.1068 -0.2476
  407loPI   C2B 6510   7.466  10.032   8.760 -0.1497  0.0234 -0.2450
  407loPI   C3B 6511   7.490  10.126   8.266  0.2386  0.0650  0.4020
  407loPI   C4B 6512   7.817  10.269   8.105  0.1783  0.0564  0.2832
  408loPI    C1 6513  15.177  12.261  10.971 -0.2312 -0.0795 -0.1222
  408loPI    C2 6514  15.322  12.557  11.198 -0.0058 -0.0960 -0.2427
  408loPI    C3 6515  14.994  12.360  11.313 -0.0001  0.0191 -0.0250
  408loPI   PO4 6516  15.161  12.386  10.699  0.0414  0.2596 -0.4073
  408loPI   GL1 6517  14.811  12.474  10.470 -0.0144 -0.4105 -0.4129
  408loPI   GL2 6518  14.599  12.670  10.399 -0.0958 -0.2838 -0.0089
  408loPI   C1A 6519  15.016  12.395  10.015 -0.1413 -0.3833  0.1084
  408loPI   C2A 6520  15.096  12.480   9.654  0.0561 -0.1073  0.1249
  408loPI   C3A 6521  15.024  12.467   9.308  0.0190  0.1893 -0.0222
  408loPI   C4A 6522  15.142  12.388   8.915  0.0887  0.2585 -0.1914
  408loPI   C5A 6523  15.153  12.549   8.565 -0.2689  0.0976 -0.1371
  408loPI   C6A 6524  15.335  12.859   8.366  0.0870  0.2642  0.0893
  408loPI   C1B 6525  14.613  12.937  10.096  0.0641  0.1081  0.0722
  408loPI   C2B 6526  14.738  12.886   9.670  0.0697 -0.2367 -0.3900
  408loPI   C3B 6527  14.773  12.853   9.190  0.0141 -0.0720  0.1274
  408loPI   C4B 6528  14.789  12.789   8.776 -0.3188 -0.3864  0.0180
  409loPI    C1 6529   3.560   8.331  10.077 -0.0446  0.0974  0.1974
  409loPI    C2 6530   3.864   8.150   9.889 -0.1706  0.1122 -0.0246
  409loPI    C3 6531   3.766   8.042  10.262 -0.1970 -0.2268 -0.1264
  409loPI   PO4 6532   3.567   8.607   9.998  0.1915  0.2744  0.2253
  409loPI   GL1 6533   3.678   8.716   9.658  0.1027  0.3028 -0.0413
  409loPI   GL2 6534   3.990   8.627   9.655  0.2215 -0.1121 -0.1314
  409loPI   C1A 6535   3.430   8.790   9.271 -0.1154 -0.0408 -0.2248
  409loPI   C2A 6536   3.417   8.680   8.956 -0.0147 -0.2295  0.0173
  409loPI   C3A 6537   3.353   8.842   8.453 -0.2064 -0.3831 -0.3609
  409loPI   C4A 6538   3.409   8.835   8.086 -0.0442  0.3210 -0.1783
  409loPI   C5A 6539   3.764   9.038   7.871 -0.2512  0.1349 -0.0299
  409loPI   C6A 6540   3.707   9.131   7.348 -0.4714 -0.3311  0.0860
  409loPI   C1B 6541   3.948   8.822   9.214  0.1620  0.1262 -0.3779
  409loPI   C2B 6542   3.738   8.990   8.789 -0.0555  0.1524  0.1747
  409loPI   C3B 6543   3.830   8.848   8.331  0.1595 -0.1177  0.1812
  409loPI   C4B 6544   4.216   8.807   8.069 -0.1056 -0.0228 -0.0554
  410loPI    C1 6545  15.552  11.450  10.812  0.1599 -0.0821 -0.0484
  410loPI    C2 6546  15.579  11.079  10.959  0.0961 -0.0017  0.1700
  410loPI    C3 6547  15.684  11.392  11.185 -0.1969  0.1380  0.1176
  410loPI   PO4 6548  15.586  11.377  10.519 -0.1958 -0.0694 -0.1516
  410loPI   GL1 6549  15.753  11.514  10.142 -0.1371 -0.0741 -0.2980
  410loPI   GL2 6550  16.023  11.275  10.097 -0.2182  0.2898  0.4125
  410loPI   C1A 6551  15.692  11.712   9.718  0.1446  0.2197 -0.0570
  410loPI   C2A 6552  15.850  11.742   9.204 -0.0830  0.1415  0.1848
  410loPI   C3A 6553  16.053  11.492   8.834  0.1128  0.2998  0.3626
  410loPI   C4A 6554  16.191  11.404   8.422  0.4835  0.0982 -0.3122
  410loPI   C5A 6555  16.296  11.000   8.263  0.3152 -0.1625 -0.1457
  410loPI   C6A 6556  16.314  10.625   7.970  0.2090 -0.2316 -0.0923
  410loPI   C1B 6557  15.993  10.940   9.839 -0.1415 -0.0243  0.2174
  410loPI   C2B 6558  15.936  10.787   9.560 -0.0100  0.0144  0.3608
  410loPI   C3B 6559  15.806  10.586   9.158  0.1489 -0.0741  0.1788
  410loPI   C4B 6560  15.819  10.310   8.845  0.2992  0.1205 -0.2231
  411loPI    C1 6561   7.117   7.497  10.208  0.0380 -0.1011  0.2297
  411loPI    C2 6562   7.199   7.840  10.397 -0.0040  0.0286  0.0152
  411loPI    C3 6563   7.336   7.494  10.543 -0.0507  0.1245  0.2912
  411loPI   PO4 6564   6.825   7.508  10.189  0.1837  0.1284  0.1653
  411loPI   GL1 6565   6.440   7.522   9.957  0.2652 -0.2577  0.2452
  411loPI   GL2 6566   6.691   7.383   9.735 -0.0321  0.0492 -0.2968
  411loPI   C1A 6567   6.357   7.804   9.670  0.2707 -0.1464 -0.0203
  411loPI   C2A 6568   6.328   7.998   9.268  0.1763 -0.2484 -0.2021
  411loPI   C3A 6569   6.222   7.999   8.766 -0.2285  0.0738 -0.1181
  411loPI   C4A 6570   6.120   7.671   8.497 -0.0509  0.0828  0.1748
  411loPI   C5A 6571   5.798   7.563   8.276 -0.2592  0.0889 -0.0179
  411loPI   C6A 6572   5.507   7.447   8.181 -0.3716  0.1818  0.2037
  411loPI   C1B 6573   6.572   7.516   9.349 -0.2405  0.1047  0.2120
  411loPI   C2B 6574   6.474   7.536   8.893  0.0903  0.0952  0.1567
  411loPI   C3B 6575   6.600   7.501   8.448 -0.1016 -0.0304  0.0452
  411loPI   C4B 6576   6.611   7.579   8.057  0.2110 -0.1521  0.0707
  412loPI    C1 6577   0.869   1.740  10.545 -0.1517  0.1529 -0.2025
  412loPI    C2 6578   0.978   1.450  10.799 -0.1104  0.1838 -0.1849
  412loPI    C3 6579   0.915   1.821  10.934  0.1686  0.2613 -0.2606
  412loPI   PO4 6580   1.018   1.583  10.285 -0.0708  0.1662 -0.2265
  412loPI   GL1 6581   1.094   1.534   9.856  0.2141  0.1191 -0.2869
  412loPI   GL2 6582   0.956   1.197   9.768  0.0369  0.0881 -0.0286
  412loPI   C1A 6583   1.327   1.643   9.547 -0.2397  0.0482 -0.0145
  412loPI   C2A 6584   1.271   1.779   9.132  0.1551  0.1072  0.1021
  412loPI   C3A 6585   1.289   1.816   8.571 -0.0261  0.4920  0.2581
  412loPI   C4A 6586   1.415   1.946   8.245 -0.0815  0.2852  0.1923
  412loPI   C5A 6587   1.301   1.895   7.773  0.1291 -0.0147  0.2524
  412loPI   C6A 6588   1.243   1.676   7.405 -0.2345  0.0180  0.1121
  412loPI   C1B 6589   1.033   1.224   9.342  0.3875 -0.0023 -0.3560
  412loPI   C2B 6590   1.058   1.303   8.975 -0.2399  0.1784 -0.1018
  412loPI   C3B 6591   1.157   1.369   8.531  0.0144  0.0615 -0.0469
  412loPI   C4B 6592   1.112   1.501   8.161  0.2430 -0.2653  0.0312
  413loPI    C1 6593   3.431   0.314  10.453  0.1629 -0.0716  0.1890
  413loPI    C2 6594   3.169   0.464  10.190  0.0846 -0.2025  0.1907
  413loPI    C3 6595   3.038   0.283  10.522  0.1799 -0.1861  0.2378
  413loPI   PO4 6596   3.627   0.292  10.286  0.0306  0.2824 -0.1079
  413loPI   GL1 6597   3.709   0.433   9.788 -0.2160  0.0379  0.1122
  413loPI   GL2 6598   4.090   0.257   9.684 -0.0908 -0.1543 -0.0093
  413loPI   C1A 6599   3.619   0.270   9.311  0.0365  0.1283 -0.3789
  413loPI   C2A 6600   3.539   0.353   8.932 -0.1748 -0.2580  0.1671
  413loPI   C3A 6601   3.586   0.302   8.487 -0.0998  0.0207 -0.5603
  413loPI   C4A 6602   3.832   0.339   8.257  0.1469 -0.1389 -0.0536
  413loPI   C5A 6603   4.263   0.279   8.120  0.0582 -0.3065  0.0222
  413loPI   C6A 6604   4.739   0.071   7.899  0.2257 -0.1581 -0.1348
  413loPI   C1B 6605   4.076   0.324   9.375 -0.5216 -0.3435  0.0976
  413loPI   C2B 6606   4.091   0.423   8.918  0.1654  0.1651 -0.0490
  413loPI   C3B 6607   4.337   0.374   8.611 -0.1405  0.1274  0.3250
  413loPI   C4B 6608   4.691   0.522   8.762  0.3867  0.2097 -0.0602
  414loPI    C1 6609   6.581  10.545  10.631  0.1838  0.0332 -0.1067
  414loPI    C2 6610   6.526  10.155  10.702 -0.0660  0.0708 -0.0835
  414loPI    C3 6611   6.865  10.333  10.816 -0.1040 -0.0588  0.2429
  414loPI   PO4 6612   6.551  10.579  10.449  0.3563 -0.0753 -0.0971
  414loPI   GL1 6613   6.380  10.439   9.936  0.2955  0.3266 -0.0437
  414loPI   GL2 6614   6.172  10.174   9.794 -0.0137  0.1750  0.0232
  414loPI   C1A 6615   6.279  10.491   9.425 -0.2658 -0.1992 -0.3510
  414loPI   C2A 6616   6.221  10.360   9.029 -0.2242 -0.3044  0.1011
  414loPI   C3A 6617   5.942  10.495   8.834 -0.0576 -0.0998  0.1455
  414loPI   C4A 6618   5.714  10.744   8.627 -0.3324 -0.1050  0.2258
  414loPI   C5A 6619   5.560  10.828   8.349  0.3263  0.1294  0.1538
  414loPI   C6A 6620   5.335  10.697   8.105 -0.0858 -0.0811 -0.1341
  414loPI   C1B 6621   5.928  10.119   9.391 -0.1797 -0.1261 -0.2291
  414loPI   C2B 6622   6.017   9.914   9.032 -0.1465  0.1166  0.0279
  414loPI   C3B 6623   6.240  10.040   8.644  0.0845 -0.1696 -0.2101
  414loPI   C4B 6624   6.555  10.047   8.403  0.3073 -0.0882  0.4075
  415loPI    C1 6625   5.984   3.335  10.242  0.1930  0.1756  0.1446
  415loPI    C2 6626   5.731   3.180  10.510  0.1183 -0.1720 -0.1202
  415loPI    C3 6627   6.120   3.207  10.596  0.0730 -0.1396  0.0799
  415loPI   PO4 6628   5.891   3.498  10.091 -0.1217 -0.0349  0.2416
  415loPI   GL1 6629   5.785   3.487   9.673  0.0537 -0.0823  0.1679
  415loPI   GL2 6630   5.498   3.674   9.773 -0.2020 -0.0761 -0.1036
  415loPI   C1A 6631   5.949   3.295   9.443 -0.0691  0.1050 -0.3561
  415loPI   C2A 6632   6.171   3.388   9.034 -0.0259  0.0050  0.1949
  415loPI   C3A 6633   6.123   3.385   8.695 -0.2558 -0.1342  0.1089
  415loPI   C4A 6634   6.100   3.483   8.313  0.0979 -0.2306  0.1359
  415loPI   C5A 6635   6.312   3.556   7.925 -0.0313 -0.1969  0.3716
  415loPI   C6A 6636   6.611   3.498   7.647  0.2637 -0.1526  0.1508
  415loPI   C1B 6637   5.428   3.861   9.359 -0.0308 -0.1413  0.1832
  415loPI   C2B 6638   5.327   3.808   8.937  0.0282  0.2001  0.3845
  415loPI   C3B 6639   5.051   3.570   8.819  0.1989  0.2772 -0.1379
  415loPI   C4B 6640   4.829   3.624   8.447 -0.0249 -0.1311  0.1125
  416loPI    C1 6641  17.214   9.768  10.416  0.0780 -0.0288  0.0539
  416loPI    C2 6642  17.256   9.513  10.722  0.0302 -0.0165  0.0708
  416loPI    C3 6643  17.196   9.902  10.793 -0.4208 -0.0775  0.0546
  416loPI   PO4 6644  17.036   9.730  10.244  0.1257  0.2208 -0.1486
  416loPI   GL1 6645  17.052   9.526   9.895 -0.2845  0.4008  0.1853
  416loPI   GL2 6646  16.970   9.247   9.892  0.0992  0.2013  0.0649
  416loPI   C1A 6647  17.447   9.544   9.601 -0.2037  0.5085  0.0458
  416loPI   C2A 6648  17.450   9.529   9.218 -0.0966  0.1183 -0.4034
  416loPI   C3A 6649  17.540   9.515   8.851  0.1512 -0.0885 -0.1066
  416loPI   C4A 6650  17.284   9.790   8.534  0.3361 -0.1012  0.0469
  416loPI   C5A 6651  16.968   9.993   8.316  0.0060 -0.0068  0.3141
  416loPI   C6A 6652  16.655  10.207   8.122  0.1207 -0.0245  0.2950
  416loPI   C1B 6653  17.158   9.217   9.435  0.0352 -0.0800 -0.0010
  416loPI   C2B 6654  17.099   9.250   8.929 -0.1135 -0.0230  0.0147
  416loPI   C3B 6655  17.183   9.311   8.541  0.1559 -0.2531  0.2136
  416loPI   C4B 6656  17.172   9.539   8.135 -0.1871  0.1454 -0.1043
  417loPI    C1 6657   2.622   3.172  10.534  0.1046  0.0485  0.0632
  417loPI    C2 6658   2.794   3.057  10.877  0.1030  0.0986  0.0809
  417loPI    C3 6659   2.457   3.272  10.885  0.1219  0.1296  0.0484
  417loPI   PO4 6660   2.537   3.094  10.393  0.1285  0.2135 -0.2614
  417loPI   GL1 6661   2.331   3.090   9.886 -0.2164  0.0177 -0.1586
  417loPI   GL2 6662   2.497   3.152   9.793  0.3511 -0.1882  0.1141
  417loPI   C1A 6663   2.246   2.786   9.570  0.1347 -0.1291 -0.0345
  417loPI   C2A 6664   2.138   2.717   9.155 -0.1906  0.0744 -0.4440
  417loPI   C3A 6665   2.160   2.866   8.701  0.0005 -0.1302  0.1906
  417loPI   C4A 6666   2.160   2.927   8.286  0.0061 -0.0673 -0.1846
  417loPI   C5A 6667   2.164   3.010   7.914 -0.0289 -0.2595 -0.2381
  417loPI   C6A 6668   2.173   3.284   7.566 -0.1574  0.1095 -0.0976
  417loPI   C1B 6669   2.484   3.368   9.391 -0.0784  0.3926 -0.2245
  417loPI   C2B 6670   2.335   3.227   9.042 -0.2237 -0.0256  0.4196
  417loPI   C3B 6671   2.255   3.358   8.607  0.2712  0.2271 -0.3327
  417loPI   C4B 6672   2.450   3.421   8.193  0.0045 -0.1330  0.0632
  418loPI    C1 6673   4.343   3.087  10.416 -0.1658 -0.1739  0.1680
  418loPI    C2 6674   4.692   3.114  10.610 -0.0619 -0.2861 -0.0001
  418loPI    C3 6675   4.365   3.291  10.760  0.1603  0.1941 -0.0627
  418loPI   PO4 6676   4.394   3.116  10.156 -0.2892  0.1478 -0.0117
  418loPI   GL1 6677   4.614   2.969   9.842 -0.1113  0.3057 -0.2078
  418loPI   GL2 6678   4.762   3.176   9.639 -0.0096 -0.1556  0.0497
  418loPI   C1A 6679   4.618   2.720   9.443 -0.1304 -0.1140  0.1618
  418loPI   C2A 6680   4.541   2.680   8.989  0.0936 -0.1039 -0.2860
  418loPI   C3A 6681   4.520   2.646   8.560 -0.3650  0.2007  0.2538
  418loPI   C4A 6682   4.399   2.727   8.178  0.3195  0.3614 -0.1470
  418loPI   C5A 6683   4.738   2.817   7.835  0.0156  0.2459 -0.2084
  418loPI   C6A 6684   5.137   2.897   7.891  0.2218 -0.3115  0.5579
  418loPI   C1B 6685   4.796   3.111   9.185  0.0694  0.0664  0.0071
  418loPI   C2B 6686   4.733   3.151   8.730 -0.0977  0.0867  0.0320
  418loPI   C3B 6687   4.637   3.158   8.295  0.0190  0.0486  0.2360
  418loPI   C4B 6688   4.753   3.339   7.856 -0.2496  0.0369  0.1051
  419loPI    C1 6689  10.620  14.374  11.073 -0.1195 -0.0586  0.0888
  419loPI    C2 6690  10.325  14.204  11.283 -0.0976  0.1128  0.2610
  419loPI    C3 6691  10.707  14.127  11.376 -0.0874  0.0277  0.1502
  419loPI   PO4 6692  10.513  14.302  10.813  0.0274 -0.0526 -0.2440
  419loPI   GL1 6693  10.428  14.203  10.331  0.2189  0.1296  0.1397
  419loPI   GL2 6694  10.684  14.081  10.308 -0.0439 -0.0424 -0.1245
  419loPI   C1A 6695  10.126  14.216   9.952  0.2173 -0.0135  0.3569
  419loPI   C2A 6696  10.327  14.199   9.536 -0.1356  0.0352  0.1109
  419loPI   C3A 6697  10.405  14.424   9.155 -0.0565  0.1787 -0.0481
  419loPI   C4A 6698  10.519  14.486   8.752  0.2755  0.1147 -0.0754
  419loPI   C5A 6699  10.356  14.345   8.454 -0.4113 -0.0903  0.3207
  419loPI   C6A 6700  10.049  14.320   8.242  0.1359  0.2489 -0.1018
  419loPI   C1B 6701  10.638  14.189   9.902 -0.0719 -0.0911  0.0834
  419loPI   C2B 6702  10.820  14.253   9.423  0.1786  0.0348  0.0926
  419loPI   C3B 6703  10.869  14.220   8.976 -0.1978 -0.0798 -0.1101
  419loPI   C4B 6704  11.075  14.064   8.616  0.1676  0.0130  0.0377
  420loPI    C1 6705   1.642   1.083  10.284 -0.0538  0.0803  0.1211
  420loPI    C2 6706   1.280   1.154  10.129 -0.0684 -0.1752  0.0334
  420loPI    C3 6707   1.322   1.105  10.524 -0.1406 -0.2132  0.0365
  420loPI   PO4 6708   1.719   0.835  10.121  0.0042 -0.0320 -0.1087
  420loPI   GL1 6709   1.863   0.768   9.774 -0.0153  0.0659  0.0917
  420loPI   GL2 6710   2.004   0.479   9.839  0.0250 -0.0221 -0.0167
  420loPI   C1A 6711   1.958   0.965   9.347  0.1753  0.0151 -0.2148
  420loPI   C2A 6712   1.866   0.951   9.003 -0.3788 -0.1322 -0.1328
  420loPI   C3A 6713   1.901   0.954   8.530 -0.0769  0.1620 -0.1304
  420loPI   C4A 6714   2.007   1.193   8.076 -0.0313  0.2503 -0.2523
  420loPI   C5A 6715   1.935   1.341   7.667 -0.0178 -0.1352  0.1078
  420loPI   C6A 6716   1.754   1.424   7.307 -0.1679 -0.1357 -0.3006
  420loPI   C1B 6717   2.208   0.532   9.444  0.1968  0.0239 -0.0527
  420loPI   C2B 6718   2.247   0.613   9.134  0.1390 -0.1321 -0.0617
  420loPI   C3B 6719   2.200   0.588   8.684 -0.1023  0.2243 -0.1174
  420loPI   C4B 6720   2.334   0.512   8.204  0.3008 -0.3250  0.0349
  421loPI    C1 6721  13.563   5.435  10.449 -0.1096 -0.3277  0.0851
  421loPI    C2 6722  13.948   5.360  10.525 -0.0010 -0.0454 -0.1652
  421loPI    C3 6723  13.702   5.462  10.823  0.0953 -0.3094  0.0091
  421loPI   PO4 6724  13.542   5.486  10.248 -0.1148 -0.2519  0.0321
  421loPI   GL1 6725  13.304   5.643   9.977  0.2870 -0.1865 -0.0722
  421loPI   GL2 6726  13.396   5.486   9.591  0.1194 -0.4068 -0.1508
  421loPI   C1A 6727  13.049   5.835   9.718 -0.2766 -0.0239 -0.1434
  421loPI   C2A 6728  13.085   5.871   9.289  0.0529 -0.3223  0.2168
  421loPI   C3A 6729  13.066   5.937   8.813 -0.0310  0.0607 -0.0527
  421loPI   C4A 6730  13.126   6.020   8.351 -0.0219  0.0102 -0.3627
  421loPI   C5A 6731  13.120   6.293   7.977  0.0844  0.0414  0.0297
  421loPI   C6A 6732  13.009   6.345   7.548 -0.2501 -0.1727  0.2351
  421loPI   C1B 6733  13.450   5.533   9.097  0.1635  0.1373 -0.2781
  421loPI   C2B 6734  13.428   5.553   8.750  0.1565  0.0423  0.0546
  421loPI   C3B 6735  13.468   5.619   8.380  0.0201  0.1160  0.2847
  421loPI   C4B 6736  13.620   5.668   7.945  0.1163 -0.2673 -0.0782
  422loPI    C1 6737   4.276  17.423  10.767  0.0695  0.0691 -0.0844
  422loPI    C2 6738   4.306  17.038  10.663  0.1367  0.0586 -0.0264
  422loPI    C3 6739   4.571  17.198  10.917  0.0771  0.1291 -0.0084
  422loPI   PO4 6740   4.044  17.494  10.586  0.1592  0.1766 -0.3643
  422loPI   GL1 6741   3.817  17.521  10.207  0.1606  0.0830 -0.1064
  422loPI   GL2 6742   3.838  17.868  10.070 -0.2167 -0.0706  0.1152
  422loPI   C1A 6743   3.756  17.333   9.943 -0.1415  0.1122 -0.0326
  422loPI   C2A 6744   3.825  16.958   9.742 -0.0318  0.2597  0.0960
  422loPI   C3A 6745   3.813  16.742   9.348 -0.0045  0.1383 -0.1115
  422loPI   C4A 6746   3.845  16.739   8.936  0.0335  0.0525 -0.3018
  422loPI   C5A 6747   3.951  16.712   8.424 -0.0064 -0.1974 -0.2605
  422loPI   C6A 6748   4.037  16.965   8.031  0.0179  0.1603  0.0870
  422loPI   C1B 6749   3.885  17.890   9.624 -0.1574 -0.0109 -0.0082
  422loPI   C2B 6750   3.925  17.750   9.192 -0.0283 -0.2533 -0.2670
  422loPI   C3B 6751   3.785  17.928   8.818 -0.0282 -0.1645  0.2378
  422loPI   C4B 6752   3.662  17.931   8.364 -0.0504  0.2822 -0.1958
  423loPI    C1 6753   3.141  16.455  10.697  0.0731 -0.0322 -0.0077
  423loPI    C2 6754   2.956  16.376  11.043 -0.1215 -0.1639 -0.1398
  423loPI    C3 6755   3.351  16.442  11.038 -0.1393 -0.0243  0.1252
  423loPI   PO4 6756   2.925  16.370  10.440 -0.3938 -0.1520 -0.0060
  423loPI   GL1 6757   2.895  16.468   9.997 -0.0727  0.2593  0.4959
  423loPI   GL2 6758   2.812  16.723   9.913  0.2115  0.2130  0.0303
  423loPI   C1A 6759   2.889  16.342   9.594  0.2595  0.1686 -0.1981
  423loPI   C2A 6760   3.029  16.173   9.130  0.2688 -0.2365 -0.1826
  423loPI   C3A 6761   3.058  16.203   8.689 -0.2536  0.0557 -0.3142
  423loPI   C4A 6762   3.027  16.246   8.200 -0.1284  0.1795  0.0172
  423loPI   C5A 6763   2.587  16.131   8.032  0.1077  0.3286 -0.0976
  423loPI   C6A 6764   2.260  16.013   7.720  0.0026  0.3043 -0.0292
  423loPI   C1B 6765   2.904  16.831   9.455  0.2042  0.2105  0.1562
  423loPI   C2B 6766   2.962  16.813   9.102  0.0502 -0.1381 -0.1947
  423loPI   C3B 6767   3.015  16.677   8.738  0.0139 -0.2584  0.2363
  423loPI   C4B 6768   3.024  16.800   8.319  0.0657  0.3271  0.3731
  424loPI    C1 6769   0.011  11.678  10.560 -0.1363  0.0191 -0.1222
  424loPI    C2 6770  -0.386  11.641  10.529 -0.1548  0.0585  0.0570
  424loPI    C3 6771  -0.225  11.803  10.858  0.0102  0.0344 -0.0110
  424loPI   PO4 6772   0.100  11.737  10.195 -0.3734  0.3520 -0.3461
  424loPI   GL1 6773  -0.059  11.496   9.823  0.3436 -0.1991 -0.2852
  424loPI   GL2 6774  -0.393  11.318   9.683 -0.0406  0.1422 -0.0945
  424loPI   C1A 6775  -0.027  11.540   9.381 -0.0862 -0.2539  0.2450
  424loPI   C2A 6776  -0.044  11.565   8.885  0.2134 -0.0544 -0.1654
  424loPI   C3A 6777  -0.104  11.765   8.459 -0.0280 -0.3542 -0.1992
  424loPI   C4A 6778  -0.038  11.877   7.982  0.0531 -0.1260  0.0450
  424loPI   C5A 6779   0.043  12.352   7.971 -0.0495 -0.1233 -0.0621
  424loPI   C6A 6780   0.147  12.626   8.239 -0.0199  0.0926  0.3568
  424loPI   C1B 6781  -0.398  11.319   9.162  0.0075  0.0383  0.2717
  424loPI   C2B 6782  -0.458  11.273   8.732 -0.2034  0.1623 -0.1294
  424loPI   C3B 6783  -0.717  11.255   8.352 -0.0435 -0.0923  0.0181
  424loPI   C4B 6784  -0.800  11.325   7.858  0.2120 -0.4230  0.3582
  425loPI    C1 6785   7.290   2.358  10.108 -0.1350  0.1322  0.4182
  425loPI    C2 6786   7.647   2.440   9.948 -0.2492 -0.2934 -0.0780
  425loPI    C3 6787   7.478   2.700  10.200  0.2395  0.0850 -0.1242
  425loPI   PO4 6788   7.210   2.194  10.020 -0.1331  0.0524  0.0175
  425loPI   GL1 6789   7.013   2.125   9.631  0.0099  0.3004 -0.0303
  425loPI   GL2 6790   7.335   2.069   9.501  0.0402  0.1523 -0.0118
  425loPI   C1A 6791   6.828   2.081   9.352 -0.0356 -0.0254  0.5519
  425loPI   C2A 6792   6.875   2.051   8.903  0.1090  0.1722 -0.2335
  425loPI   C3A 6793   7.054   2.023   8.532  0.0574  0.0250 -0.0204
  425loPI   C4A 6794   7.392   2.108   8.237 -0.1268  0.0135  0.1052
  425loPI   C5A 6795   7.616   2.487   8.086 -0.4503 -0.0263 -0.0365
  425loPI   C6A 6796   7.341   2.888   7.974 -0.2095 -0.0305 -0.1419
  425loPI   C1B 6797   7.610   2.321   9.405 -0.1244 -0.0330  0.0726
  425loPI   C2B 6798   7.875   2.370   9.072 -0.0549 -0.0241 -0.1353
  425loPI   C3B 6799   8.185   2.471   8.911 -0.1710 -0.0077 -0.1124
  425loPI   C4B 6800   8.638   2.568   8.935 -0.0181  0.1323 -0.1090
  426loPI    C1 6801  18.092  16.108  10.542 -0.0334 -0.1096  0.0229
  426loPI    C2 6802  17.911  16.020  10.888  0.0369  0.0404  0.0989
  426loPI    C3 6803  18.222  16.272  10.883 -0.0796  0.1839 -0.0971
  426loPI   PO4 6804  18.033  15.923  10.367  0.3576  0.3036 -0.0783
  426loPI   GL1 6805  18.307  15.914  10.008  0.1424 -0.3490 -0.0997
  426loPI   GL2 6806  18.404  16.216  10.019 -0.0742 -0.4806 -0.1973
  426loPI   C1A 6807  18.374  15.708   9.558 -0.0248  0.0137  0.3007
  426loPI   C2A 6808  18.378  15.836   9.167 -0.1601  0.0124 -0.2879
  426loPI   C3A 6809  18.315  15.862   8.775  0.2196 -0.0406 -0.1300
  426loPI   C4A 6810  18.366  15.972   8.347  0.0355 -0.2064 -0.0509
  426loPI   C5A 6811  18.572  16.038   8.020  0.0012 -0.1290 -0.0668
  426loPI   C6A 6812  18.659  15.891   7.591 -0.6095  0.1503 -0.0949
  426loPI   C1B 6813  18.630  16.126   9.608  0.2980 -0.3095  0.2859
  426loPI   C2B 6814  18.875  16.007   9.239 -0.0073  0.0897 -0.2640
  426loPI   C3B 6815  18.885  15.927   8.771  0.1128  0.1478 -0.2646
  426loPI   C4B 6816  18.934  15.944   8.399 -0.1078  0.2460  0.1865
  427loPI    C1 6817   5.421  13.799  10.497  0.1488 -0.1304  0.1403
  427loPI    C2 6818   5.367  13.662  10.868 -0.2752 -0.0630  0.1089
  427loPI    C3 6819   5.216  13.461  10.557  0.0336 -0.0916 -0.0261
  427loPI   PO4 6820   5.601  13.884  10.470 -0.1246 -0.0400  0.3129
  427loPI   GL1 6821   5.609  13.896  10.015 -0.1112  0.1006 -0.1362
  427loPI   GL2 6822   5.863  13.720   9.899  0.2545 -0.2204  0.3104
  427loPI   C1A 6823   5.846  14.255   9.662 -0.3431 -0.1169 -0.0163
  427loPI   C2A 6824   5.827  14.190   9.190 -0.4553  0.2218 -0.0844
  427loPI   C3A 6825   5.802  14.152   8.784  0.2523 -0.0199  0.0987
  427loPI   C4A 6826   5.856  14.133   8.259  0.0629  0.2964 -0.0863
  427loPI   C5A 6827   5.743  14.030   7.859  0.3398 -0.1170 -0.0884
  427loPI   C6A 6828   5.742  13.911   7.509 -0.1628  0.1558  0.1007
  427loPI   C1B 6829   5.804  13.752   9.434  0.1449  0.0289 -0.0139
  427loPI   C2B 6830   5.836  13.635   9.084  0.1123 -0.1122 -0.0220
  427loPI   C3B 6831   5.848  13.652   8.640  0.0121 -0.0929 -0.0447
  427loPI   C4B 6832   5.841  13.657   8.152  0.0797  0.1773  0.0892
  428loPI    C1 6833  10.203   5.182  10.552 -0.0512  0.2267 -0.0642
  428loPI    C2 6834  10.395   5.145  10.900  0.1449 -0.0339 -0.1965
  428loPI    C3 6835  10.144   5.451  10.842  0.0594 -0.0242  0.1952
  428loPI   PO4 6836  10.316   5.202  10.377  0.2210  0.0936  0.2558
  428loPI   GL1 6837  10.349   5.386  10.039 -0.2491 -0.1765  0.2348
  428loPI   GL2 6838  10.388   5.188   9.800  0.1940  0.0359  0.3524
  428loPI   C1A 6839  10.514   5.707   9.691 -0.2402  0.2661 -0.1493
  428loPI   C2A 6840  10.694   5.689   9.301  0.1117  0.0088  0.0885
  428loPI   C3A 6841  10.723   5.783   8.835 -0.1743  0.1924  0.0875
  428loPI   C4A 6842  10.787   5.712   8.392 -0.0452 -0.1188 -0.1262
  428loPI   C5A 6843  10.831   5.984   8.048 -0.2466 -0.0015  0.0010
  428loPI   C6A 6844  11.170   6.264   7.822 -0.2237 -0.0480 -0.0421
  428loPI   C1B 6845  10.435   5.224   9.443  0.2706  0.1508  0.3755
  428loPI   C2B 6846  10.213   5.217   9.039 -0.0100  0.2069  0.3400
  428loPI   C3B 6847   9.992   5.045   8.752 -0.3628 -0.0128  0.0091
  428loPI   C4B 6848   9.956   4.699   8.438 -0.1927  0.0940 -0.3572
  429loPI    C1 6849   5.308   0.915  10.819 -0.0162 -0.2131 -0.0878
  429loPI    C2 6850   5.202   1.083  11.166 -0.2551 -0.1929 -0.1687
  429loPI    C3 6851   5.546   0.881  11.139 -0.0971  0.0469  0.0027
  429loPI   PO4 6852   5.203   1.061  10.637  0.3768  0.3293  0.0265
  429loPI   GL1 6853   5.209   1.195  10.195 -0.1050  0.1247 -0.0184
  429loPI   GL2 6854   5.382   1.388   9.926 -0.1882  0.1268  0.1208
  429loPI   C1A 6855   5.076   0.902   9.772  0.1822  0.0435  0.2631
  429loPI   C2A 6856   4.962   0.949   9.389  0.1528 -0.0866  0.1116
  429loPI   C3A 6857   4.862   0.947   8.960 -0.3357  0.0823  0.0706
  429loPI   C4A 6858   4.904   0.997   8.570 -0.0675  0.1106  0.1292
  429loPI   C5A 6859   4.739   1.092   8.213 -0.0762 -0.0300  0.0671
  429loPI   C6A 6860   5.039   1.286   8.132  0.0524 -0.0616 -0.0884
  429loPI   C1B 6861   5.658   1.553   9.524  0.1618 -0.1683  0.2644
  429loPI   C2B 6862   5.573   1.435   9.171 -0.0562 -0.1413 -0.0831
  429loPI   C3B 6863   5.655   1.503   8.753 -0.0917 -0.3293 -0.1601
  429loPI   C4B 6864   5.437   1.629   8.323  0.2356  0.1830  0.4274
  430loPI    C1 6865  15.641   8.960  10.257  0.0367 -0.2613 -0.3088
  430loPI    C2 6866  15.868   8.706  10.467  0.1603  0.1757  0.1045
  430loPI    C3 6867  15.500   8.799  10.595  0.0807  0.1384 -0.0933
  430loPI   PO4 6868  15.859   9.152  10.194  0.0337 -0.0171  0.4172
  430loPI   GL1 6869  15.814   9.439   9.959  0.0861 -0.1829  0.0737
  430loPI   GL2 6870  15.659   9.795  10.043  0.2084 -0.0262 -0.0729
  430loPI   C1A 6871  15.815   9.278   9.571 -0.0454  0.1498 -0.0813
  430loPI   C2A 6872  16.055   9.240   9.185 -0.0733  0.0919  0.2452
  430loPI   C3A 6873  16.091   9.026   8.769 -0.3265  0.3267  0.2851
  430loPI   C4A 6874  15.905   8.833   8.355  0.2291 -0.0694 -0.0420
  430loPI   C5A 6875  15.888   8.942   7.957 -0.0640 -0.0652 -0.1437
  430loPI   C6A 6876  15.941   9.057   7.609 -0.1188  0.2321 -0.0120
  430loPI   C1B 6877  15.517   9.654   9.611  0.0118 -0.2520  0.1329
  430loPI   C2B 6878  15.622   9.514   9.209 -0.4247 -0.0441  0.2535
  430loPI   C3B 6879  15.668   9.328   8.802  0.0325  0.1433 -0.0230
  430loPI   C4B 6880  15.653   9.219   8.418  0.0480 -0.1773  0.0501
  431loPI    C1 6881   6.850   4.336  10.550  0.1578 -0.0349  0.2471
  431loPI    C2 6882   6.512   4.124  10.563  0.0190  0.1560 -0.0998
  431loPI    C3 6883   6.508   4.512  10.659  0.1711  0.1242  0.0398
  431loPI   PO4 6884   7.003   4.215  10.320 -0.2426 -0.1598  0.1506
  431loPI   GL1 6885   7.257   4.344   9.971  0.1202  0.0688  0.0428
  431loPI   GL2 6886   7.044   4.685   9.986 -0.1169 -0.0250 -0.4057
  431loPI   C1A 6887   7.192   4.139   9.560  0.0186 -0.0888 -0.2270
  431loPI   C2A 6888   7.350   3.862   9.323 -0.0275 -0.2918  0.2834
  431loPI   C3A 6889   7.402   3.828   8.856  0.0281 -0.1181 -0.1254
  431loPI   C4A 6890   7.274   3.775   8.476 -0.2527  0.1722  0.2471
  431loPI   C5A 6891   7.289   3.906   7.987  0.3231 -0.0774  0.2380
  431loPI   C6A 6892   7.493   4.167   7.812 -0.2154  0.0806 -0.1980
  431loPI   C1B 6893   6.962   4.567   9.500  0.1706  0.0491 -0.1944
  431loPI   C2B 6894   7.132   4.358   9.089  0.4204 -0.2114  0.1774
  431loPI   C3B 6895   7.132   4.233   8.667 -0.0712 -0.0725  0.1552
  431loPI   C4B 6896   7.116   4.560   8.232 -0.0361  0.1723  0.0519
  432loPI    C1 6897  15.358  17.929  10.229 -0.2122 -0.0312  0.2003
  432loPI    C2 6898  15.442  17.702  10.548 -0.0038 -0.0474  0.1357
  432loPI    C3 6899  15.333  18.083  10.597 -0.0593 -0.0751  0.2298
  432loPI   PO4 6900  15.570  17.810  10.056  0.2999 -0.0018 -0.2470
  432loPI   GL1 6901  15.813  17.699   9.742  0.0477  0.3234 -0.2617
  432loPI   GL2 6902  16.043  17.912   9.896  0.0354  0.2269  0.3498
  432loPI   C1A 6903  15.734  17.964   9.280 -0.1558 -0.0198 -0.0400
  432loPI   C2A 6904  15.752  18.005   8.850  0.0674  0.2215 -0.4285
  432loPI   C3A 6905  15.736  18.021   8.443 -0.1036  0.0755 -0.0918
  432loPI   C4A 6906  15.689  17.897   7.986 -0.0442  0.3457  0.1611
  432loPI   C5A 6907  15.757  17.712   7.566  0.2086  0.0158  0.2657
  432loPI   C6A 6908  15.521  17.952   7.160  0.2967 -0.4024  0.0400
  432loPI   C1B 6909  16.226  17.747   9.468  0.1961  0.0889 -0.3323
  432loPI   C2B 6910  16.090  17.661   9.039 -0.0735  0.0586  0.0942
  432loPI   C3B 6911  16.054  17.620   8.705 -0.1183 -0.1467 -0.1877
  432loPI   C4B 6912  16.184  17.713   8.336 -0.2298  0.0022  0.1028
  433loPI    C1 6913  10.600   6.672  10.718 -0.1014 -0.2120 -0.4982
  433loPI    C2 6914  10.423   6.351  10.879 -0.2479  0.1712  0.1448
  433loPI    C3 6915  10.394   6.706  11.060  0.4679  0.4224 -0.1950
  433loPI   PO4 6916  10.440   6.732  10.468 -0.4722 -0.3730 -0.0279
  433loPI   GL1 6917  10.453   6.601  10.047 -0.0608 -0.4689 -0.0476
  433loPI   GL2 6918  10.686   6.790  10.012 -0.0568 -0.0119  0.1134
  433loPI   C1A 6919  10.591   6.636   9.580  0.2015  0.2880 -0.5468
  433loPI   C2A 6920  10.643   6.644   9.165  0.1500 -0.0519 -0.0230
  433loPI   C3A 6921  10.583   6.683   8.785 -0.2557 -0.2311  0.2644
  433loPI   C4A 6922  10.501   6.784   8.415  0.2147 -0.1624  0.1662
  433loPI   C5A 6923  10.693   6.616   7.954  0.1454 -0.1710 -0.0340
  433loPI   C6A 6924  10.735   6.773   7.608 -0.0421  0.2128 -0.1737
  433loPI   C1B 6925  10.614   7.131   9.759 -0.0272 -0.0481 -0.2762
  433loPI   C2B 6926  10.712   7.096   9.333  0.3145 -0.0593 -0.1444
  433loPI   C3B 6927  10.801   7.087   8.876 -0.4102 -0.1203  0.2002
  433loPI   C4B 6928  10.748   7.245   8.519 -0.3876 -0.1039  0.0225
  434loPI    C1 6929   5.128   2.563  10.341  0.0778  0.1692  0.0872
  434loPI    C2 6930   4.789   2.757  10.254 -0.0199 -0.0188  0.0442
  434loPI    C3 6931   4.844   2.604  10.619 -0.0317 -0.0914  0.0157
  434loPI   PO4 6932   5.358   2.466  10.169 -0.0019  0.2030  0.2455
  434loPI   GL1 6933   5.523   2.622   9.748 -0.3027 -0.1738 -0.1916
  434loPI   GL2 6934   5.385   2.269   9.669 -0.0196  0.0810 -0.1663
  434loPI   C1A 6935   5.666   2.913   9.358 -0.0229  0.1413  0.3304
  434loPI   C2A 6936   5.954   2.959   8.930 -0.0651  0.2206  0.3492
  434loPI   C3A 6937   6.031   2.930   8.486 -0.0633 -0.0055  0.0874
  434loPI   C4A 6938   5.941   2.905   8.106  0.0937 -0.0976  0.1938
  434loPI   C5A 6939   5.689   2.904   7.716  0.2395  0.0099  0.1704
  434loPI   C6A 6940   5.277   3.003   7.418  0.4797 -0.1302 -0.0304
  434loPI   C1B 6941   5.458   2.428   9.264  0.1437 -0.0149 -0.2747
  434loPI   C2B 6942   5.569   2.491   8.892 -0.2398 -0.4028 -0.0875
  434loPI   C3B 6943   5.569   2.648   8.446  0.1171  0.0761  0.1056
  434loPI   C4B 6944   5.569   2.504   7.997  0.2008 -0.0377 -0.3044
  435loPI    C1 6945   8.615  13.543  10.686 -0.0208  0.1176  0.0423
  435loPI    C2 6946   8.772  13.603  10.323  0.1703 -0.0736  0.0918
  435loPI    C3 6947   8.812  13.882  10.606  0.0607  0.0561 -0.0196
  435loPI   PO4 6948   8.708  13.237  10.635 -0.1149  0.2652  0.0474
  435loPI   GL1 6949   8.638  13.073  10.233 -0.1689 -0.1074 -0.1662
  435loPI   GL2 6950   8.359  12.944  10.277  0.1453 -0.1613  0.1384
  435loPI   C1A 6951   8.695  12.937   9.797  0.0791  0.1356  0.0149
  435loPI   C2A 6952   8.807  12.699   9.375 -0.1604 -0.1541  0.1127
  435loPI   C3A 6953   8.916  12.520   8.918  0.1962 -0.0403 -0.4472
  435loPI   C4A 6954   9.023  12.671   8.501  0.3828 -0.1920  0.2378
  435loPI   C5A 6955   9.127  12.903   8.093 -0.0314  0.0723 -0.1101
  435loPI   C6A 6956   9.479  12.886   7.940 -0.1616  0.2432 -0.0225
  435loPI   C1B 6957   8.228  13.071   9.860 -0.2857  0.0787  0.1284
  435loPI   C2B 6958   8.291  13.001   9.403  0.1670 -0.0883  0.1012
  435loPI   C3B 6959   8.111  12.981   8.921 -0.1376 -0.0888 -0.2373
  435loPI   C4B 6960   8.122  12.977   8.461 -0.0255  0.0081 -0.3512
  436loPI    C1 6961   0.664   4.507  10.420 -0.2865 -0.0859 -0.0920
  436loPI    C2 6962   0.595   4.853  10.608  0.0749 -0.0846  0.0470
  436loPI    C3 6963   0.668   4.521  10.820  0.0700 -0.1728 -0.0885
  436loPI   PO4 6964   0.904   4.628  10.249 -0.1744 -0.0843  0.0777
  436loPI   GL1 6965   1.093   4.434   9.952  0.0795 -0.0578 -0.2096
  436loPI   GL2 6966   0.842   4.136   9.999  0.1639  0.0699  0.0678
  436loPI   C1A 6967   0.974   4.377   9.531  0.2758 -0.0497  0.3106
  436loPI   C2A 6968   0.888   4.456   9.097  0.1266 -0.0288  0.4526
  436loPI   C3A 6969   0.972   4.474   8.622 -0.0808 -0.2957  0.1451
  436loPI   C4A 6970   0.823   4.382   8.170 -0.2254 -0.0743  0.1360
  436loPI   C5A 6971   0.743   4.522   7.755 -0.3243 -0.0774 -0.2537
  436loPI   C6A 6972   0.496   4.764   7.560  0.2285  0.0468  0.1387
  436loPI   C1B 6973   0.708   4.031   9.695  0.1883 -0.0874  0.1676
  436loPI   C2B 6974   0.751   3.903   9.225 -0.1557 -0.1742 -0.2079
  436loPI   C3B 6975   0.675   4.029   8.852 -0.0314 -0.1793  0.1178
  436loPI   C4B 6976   0.719   4.030   8.494 -0.2207  0.4603  0.3646
  437loPI    C1 6977   3.538   5.867  10.096  0.0240  0.1673  0.0906
  437loPI    C2 6978   3.164   5.734  10.147  0.0987 -0.1634 -0.1869
  437loPI    C3 6979   3.434   5.687  10.438 -0.0410 -0.0367 -0.0347
  437loPI   PO4 6980   3.588   5.807   9.891  0.1440 -0.0317  0.2530
  437loPI   GL1 6981   3.870   5.901   9.579 -0.3183 -0.1346  0.1728
  437loPI   GL2 6982   4.101   6.095   9.618 -0.0042 -0.1009 -0.0201
  437loPI   C1A 6983   3.688   6.082   9.154 -0.1186 -0.1157 -0.0215
  437loPI   C2A 6984   3.610   6.037   8.761  0.2665  0.1970  0.1428
  437loPI   C3A 6985   3.511   6.061   8.351 -0.0045  0.0426  0.1294
  437loPI   C4A 6986   3.377   5.916   7.896  0.0794  0.2180 -0.1913
  437loPI   C5A 6987   3.366   5.979   7.459  0.1038  0.2854 -0.2638
  437loPI   C6A 6988   3.781   5.840   7.359  0.0272 -0.1227 -0.1392
  437loPI   C1B 6989   4.202   6.067   9.195  0.0365 -0.0705 -0.3141
  437loPI   C2B 6990   4.132   6.016   8.775  0.2945  0.1106 -0.1676
  437loPI   C3B 6991   4.010   5.825   8.477 -0.2562  0.1010 -0.0512
  437loPI   C4B 6992   3.827   5.707   8.113  0.0354  0.1834 -0.1529
  438loPI    C1 6993  17.872  17.916  10.056  0.1827 -0.0835 -0.0611
  438loPI    C2 6994  17.474  17.939  10.090  0.1856  0.1157 -0.1446
  438loPI    C3 6995  17.706  18.002  10.410  0.1491 -0.0831 -0.0769
  438loPI   PO4 6996  17.904  17.813   9.868  0.0663 -0.0222 -0.1049
  438loPI   GL1 6997  17.757  17.892   9.433  0.1189 -0.1185  0.1899
  438loPI   GL2 6998  18.178  17.952   9.481  0.2775  0.0967  0.1932
  438loPI   C1A 6999  17.709  17.875   9.061  0.3326  0.1396  0.1012
  438loPI   C2A 7000  17.611  18.097   8.705 -0.1634 -0.1933 -0.1558
  438loPI   C3A 7001  17.695  18.104   8.305 -0.0656  0.1199 -0.1446
  438loPI   C4A 7002  17.626  17.931   7.885 -0.2836  0.3998 -0.2209
  438loPI   C5A 7003  17.509  17.475   7.828 -0.2062  0.2781 -0.1106
  438loPI   C6A 7004  17.276  17.167   7.776 -0.0841  0.1543  0.1747
  438loPI   C1B 7005  18.249  17.793   9.047 -0.0930  0.3471 -0.1216
  438loPI   C2B 7006  17.962  17.722   8.672  0.0626  0.1979 -0.0131
  438loPI   C3B 7007  17.666  17.599   8.307 -0.2092  0.1062 -0.1031
  438loPI   C4B 7008  17.561  17.125   8.206 -0.1627 -0.2110 -0.0931
  439loPI    C1 7009  11.738  14.407  10.932 -0.0228  0.0434 -0.0447
  439loPI    C2 7010  11.958  14.585  10.650 -0.0480  0.1487  0.0018
  439loPI    C3 7011  12.071  14.603  11.033 -0.0358  0.0404  0.0036
  439loPI   PO4 7012  11.518  14.396  10.837  0.0959  0.2750  0.1896
  439loPI   GL1 7013  11.182  14.307  10.532 -0.1890  0.0669  0.1612
  439loPI   GL2 7014  11.281  14.535  10.357  0.2569 -0.0958 -0.1849
  439loPI   C1A 7015  11.124  14.122  10.105 -0.1109 -0.1351  0.2658
  439loPI   C2A 7016  11.229  14.099   9.750  0.1164  0.2439  0.0132
  439loPI   C3A 7017  11.312  14.082   9.336  0.1536  0.1226 -0.0082
  439loPI   C4A 7018  11.391  14.226   8.993 -0.2616 -0.1142  0.0986
  439loPI   C5A 7019  11.480  14.343   8.588 -0.1636  0.3252  0.0911
  439loPI   C6A 7020  11.291  14.491   8.216  0.0693  0.2777 -0.1388
  439loPI   C1B 7021  11.185  14.620   9.940 -0.2493  0.3895  0.0489
  439loPI   C2B 7022  11.235  14.610   9.514 -0.2867  0.0241 -0.4062
  439loPI   C3B 7023  11.181  15.085   9.331  0.0341  0.0627  0.2676
  439loPI   C4B 7024  11.438  15.329   8.950 -0.2036  0.2790  0.2155
  440loPI    C1 7025  17.192  15.546  10.695 -0.1608  0.0094  0.1269
  440loPI    C2 7026  17.434  15.706  10.971 -0.0006 -0.1474  0.0791
  440loPI    C3 7027  17.039  15.690  11.036 -0.0120  0.2060  0.1119
  440loPI   PO4 7028  17.154  15.680  10.472 -0.5186  0.1252 -0.3203
  440loPI   GL1 7029  17.289  15.506  10.084  0.0840  0.1162 -0.0846
  440loPI   GL2 7030  17.287  15.737  10.009 -0.0452  0.4007  0.1498
  440loPI   C1A 7031  17.598  15.381   9.876  0.0518 -0.0728 -0.0211
  440loPI   C2A 7032  17.935  15.458   9.577 -0.0507  0.0895 -0.0699
  440loPI   C3A 7033  18.009  15.439   9.131 -0.1441  0.0347 -0.1042
  440loPI   C4A 7034  17.880  15.664   8.745 -0.3310 -0.2998  0.2725
  440loPI   C5A 7035  17.886  15.872   8.398 -0.1602  0.0629 -0.0266
  440loPI   C6A 7036  17.968  16.180   8.131  0.4115 -0.0053  0.0784
  440loPI   C1B 7037  17.463  15.751   9.615  0.0051 -0.1356  0.2088
  440loPI   C2B 7038  17.440  15.729   9.180 -0.0072 -0.1912  0.1665
  440loPI   C3B 7039  17.229  15.690   8.782 -0.0420  0.1423 -0.0659
  440loPI   C4B 7040  16.836  15.569   8.607 -0.1232  0.1028 -0.0756
  441loPI    C1 7041  11.218   9.297  11.062  0.1735 -0.0386 -0.1094
  441loPI    C2 7042  11.409   8.970  11.191  0.0062 -0.1553 -0.1540
  441loPI    C3 7043  11.010   8.974  11.174  0.0045  0.0768 -0.0875
  441loPI   PO4 7044  11.413   9.336  10.726 -0.0947  0.2978 -0.1482
  441loPI   GL1 7045  11.594   9.076  10.406  0.1229  0.1473 -0.1734
  441loPI   GL2 7046  11.420   9.320  10.215  0.0096  0.0448 -0.0069
  441loPI   C1A 7047  11.629   8.824   9.962  0.2527  0.0233 -0.1378
  441loPI   C2A 7048  11.706   8.815   9.606 -0.1360 -0.0903  0.1015
  441loPI   C3A 7049  11.722   8.796   9.109  0.2999 -0.2421 -0.1477
  441loPI   C4A 7050  11.774   8.787   8.575  0.2037 -0.2256 -0.1084
  441loPI   C5A 7051  11.744   8.931   8.248 -0.0857  0.1243  0.0713
  441loPI   C6A 7052  11.634   9.284   7.957  0.1235 -0.0969  0.2045
  441loPI   C1B 7053  11.280   9.295   9.756  0.1800  0.2124  0.3181
  441loPI   C2B 7054  11.409   9.131   9.362 -0.0506 -0.3348  0.0315
  441loPI   C3B 7055  11.412   9.140   8.870 -0.0540  0.2519 -0.1002
  441loPI   C4B 7056  11.420   9.256   8.408  0.1465  0.2557 -0.2459
  442loPI    C1 7057  14.540   9.797  10.654  0.1786 -0.0181 -0.1073
  442loPI    C2 7058  14.507   9.419  10.781  0.4179 -0.0023  0.0075
  442loPI    C3 7059  14.496   9.720  11.044  0.3073  0.0668 -0.0754
  442loPI   PO4 7060  14.615   9.755  10.341  0.0447 -0.1051 -0.0909
  442loPI   GL1 7061  14.509   9.584   9.956  0.4069  0.0194 -0.1855
  442loPI   GL2 7062  14.757   9.591   9.805  0.1903 -0.0497  0.1852
  442loPI   C1A 7063  14.275   9.926   9.848 -0.2629 -0.2429  0.0729
  442loPI   C2A 7064  14.188  10.080   9.478  0.1558  0.1295 -0.1949
  442loPI   C3A 7065  14.193  10.086   9.082  0.1612  0.0732 -0.3726
  442loPI   C4A 7066  14.234  10.034   8.717 -0.2102 -0.3800 -0.1032
  442loPI   C5A 7067  14.037  10.221   8.369 -0.0487 -0.3408  0.2321
  442loPI   C6A 7068  14.423  10.467   8.120  0.0178  0.2120 -0.0408
  442loPI   C1B 7069  14.536   9.709   9.349  0.1338  0.2514  0.1712
  442loPI   C2B 7070  14.393   9.630   8.947  0.0368 -0.2477  0.0461
  442loPI   C3B 7071  14.599   9.661   8.528 -0.1429  0.1300  0.2013
  442loPI   C4B 7072  14.970   9.945   8.468 -0.0340  0.1843  0.2897
  443loPI    C1 7073   5.545   5.202  10.678  0.1127 -0.1544 -0.4475
  443loPI    C2 7074   5.936   5.133  10.726  0.0565 -0.0812  0.2032
  443loPI    C3 7075   5.670   4.950  10.962 -0.2572  0.3851  0.2264
  443loPI   PO4 7076   5.507   5.129  10.437 -0.0994  0.2262 -0.3598
  443loPI   GL1 7077   5.586   5.169  10.069 -0.3348  0.2421 -0.1039
  443loPI   GL2 7078   5.899   5.257  10.149  0.0513  0.1208 -0.1379
  443loPI   C1A 7079   5.703   5.280   9.594 -0.0321 -0.2417  0.0666
  443loPI   C2A 7080   5.675   5.329   9.133  0.1339 -0.0836  0.3212
  443loPI   C3A 7081   5.711   5.278   8.677  0.0103  0.2289 -0.2639
  443loPI   C4A 7082   5.926   5.302   8.279  0.1745 -0.1816  0.1218
  443loPI   C5A 7083   6.245   5.152   8.086  0.1113  0.0019  0.3292
  443loPI   C6A 7084   6.327   4.692   8.133 -0.0868  0.0251  0.1377
  443loPI   C1B 7085   6.207   5.453   9.854 -0.0792  0.0024 -0.3000
  443loPI   C2B 7086   6.366   5.625   9.524 -0.3431  0.5395  0.0228
  443loPI   C3B 7087   6.510   5.808   9.167  0.1049 -0.0709 -0.0162
  443loPI   C4B 7088   6.462   5.812   8.750  0.1860  0.0549 -0.1734
  444loPI    C1 7089  13.562   0.840  10.040 -0.0417  0.2689 -0.0109
  444loPI    C2 7090  13.604   1.034  10.387 -0.0213 -0.0838  0.1892
  444loPI    C3 7091  13.247   0.888  10.281 -0.0755  0.2061 -0.0421
  444loPI   PO4 7092  13.755   0.649  10.080  0.0146  0.1163  0.2651
  444loPI   GL1 7093  14.079   0.577   9.939 -0.1991 -0.0991 -0.2068
  444loPI   GL2 7094  14.325   0.502  10.014  0.0280 -0.2797  0.2130
  444loPI   C1A 7095  14.208   0.677   9.424 -0.1310 -0.0372  0.0947
  444loPI   C2A 7096  14.184   0.631   8.997  0.0773  0.0462  0.0405
  444loPI   C3A 7097  14.155   0.619   8.514 -0.0498  0.3336 -0.1565
  444loPI   C4A 7098  14.206   0.609   8.099  0.1779 -0.2206  0.1242
  444loPI   C5A 7099  14.420   0.777   7.763  0.0320  0.2229  0.2461
  444loPI   C6A 7100  14.512   1.100   7.549  0.1772 -0.0850 -0.2282
  444loPI   C1B 7101  14.578   0.377   9.652 -0.2133 -0.2049  0.0166
  444loPI   C2B 7102  14.527   0.254   9.270  0.1884 -0.3436 -0.1666
  444loPI   C3B 7103  14.464   0.244   8.837 -0.2358  0.0254 -0.0410
  444loPI   C4B 7104  14.555   0.218   8.365  0.0879  0.1707  0.2147
  445loPI    C1 7105  17.511  16.027  10.587  0.0249  0.0639 -0.1365
  445loPI    C2 7106  17.166  16.080  10.783  0.0398 -0.0616 -0.0747
  445loPI    C3 7107  17.463  16.345  10.825  0.1007 -0.1700  0.1992
  445loPI   PO4 7108  17.458  16.026  10.334  0.2424  0.1449  0.0484
  445loPI   GL1 7109  17.713  16.150  10.097  0.1735  0.0979  0.0171
  445loPI   GL2 7110  17.804  15.865   9.930 -0.1285 -0.2141 -0.0253
  445loPI   C1A 7111  17.656  16.304   9.607  0.2308 -0.2402 -0.1523
  445loPI   C2A 7112  17.410  16.416   9.198  0.2662  0.1215 -0.0430
  445loPI   C3A 7113  17.263  16.474   8.725  0.2282  0.2144  0.3378
  445loPI   C4A 7114  17.504  16.590   8.325  0.0572  0.2966  0.0754
  445loPI   C5A 7115  17.394  16.673   7.921  0.5255 -0.1649 -0.0489
  445loPI   C6A 7116  17.441  16.716   7.512 -0.0912 -0.2460 -0.0080
  445loPI   C1B 7117  17.964  15.952   9.483 -0.0922  0.1405 -0.0667
  445loPI   C2B 7118  17.820  16.059   9.145 -0.0220 -0.3245  0.1218
  445loPI   C3B 7119  17.531  16.088   8.848  0.1094  0.0993 -0.0206
  445loPI   C4B 7120  17.458  16.131   8.440  0.1921  0.0119 -0.0248
  446loPI    C1 7121  12.635  15.453  10.471  0.0949  0.0412 -0.0449
  446loPI    C2 7122  12.318  15.680  10.381 -0.0363 -0.1035  0.0462
  446loPI    C3 7123  12.276  15.364  10.623  0.1817 -0.1143  0.0725
  446loPI   PO4 7124  12.812  15.562  10.464  0.1554  0.0158 -0.2244
  446loPI   GL1 7125  12.822  15.757  10.057  0.0504 -0.0067  0.0421
  446loPI   GL2 7126  12.555  15.963   9.991  0.1624 -0.2757  0.2441
  446loPI   C1A 7127  13.112  15.726   9.859 -0.0003  0.1595 -0.0765
  446loPI   C2A 7128  13.340  15.781   9.516 -0.0861 -0.4190  0.0259
  446loPI   C3A 7129  13.493  15.788   9.096 -0.1429 -0.3810 -0.1083
  446loPI   C4A 7130  13.582  15.648   8.659 -0.1151  0.2298 -0.3810
  446loPI   C5A 7131  13.604  15.821   8.198  0.1611  0.2356 -0.0355
  446loPI   C6A 7132  13.383  16.150   7.975  0.1018  0.0319  0.3263
  446loPI   C1B 7133  12.731  16.060   9.589  0.2583 -0.0687  0.3305
  446loPI   C2B 7134  12.977  16.074   9.245  0.1445 -0.0309 -0.0188
  446loPI   C3B 7135  13.220  16.122   8.862  0.2277  0.1672 -0.1732
  446loPI   C4B 7136  13.123  16.183   8.372  0.0047 -0.1035  0.2299
  447loPI    C1 7137  18.069   0.786  10.364  0.0105  0.2443  0.2550
  447loPI    C2 7138  18.168   0.429  10.514 -0.1902 -0.0340 -0.2494
  447loPI    C3 7139  18.437   0.640  10.306 -0.0663  0.1234  0.0634
  447loPI   PO4 7140  17.829   0.742  10.253 -0.1054 -0.1660 -0.0664
  447loPI   GL1 7141  17.503   0.757   9.927 -0.2115 -0.4447 -0.0990
  447loPI   GL2 7142  17.673   0.705   9.769 -0.0040 -0.0724 -0.2186
  447loPI   C1A 7143  17.140   0.693   9.669 -0.2505 -0.0401 -0.0878
  447loPI   C2A 7144  17.086   0.693   9.220  0.0040  0.1710  0.1096
  447loPI   C3A 7145  17.062   0.753   8.810 -0.0519 -0.0453 -0.3829
  447loPI   C4A 7146  17.001   0.805   8.357 -0.1710 -0.0002 -0.1833
  447loPI   C5A 7147  17.027   0.755   7.870  0.0529  0.3361  0.0167
  447loPI   C6A 7148  17.008   0.733   7.500  0.1144 -0.0354 -0.0134
  447loPI   C1B 7149  17.627   0.877   9.308  0.0557 -0.0304  0.2578
  447loPI   C2B 7150  17.669   0.935   8.824  0.0104  0.1113 -0.1613
  447loPI   C3B 7151  17.731   0.994   8.402  0.1806 -0.0542  0.2034
  447loPI   C4B 7152  17.865   1.002   7.981 -0.0985  0.0037  0.2933
  448loPI    C1 7153  12.433  10.021  11.003  0.0514  0.1517  0.0025
  448loPI    C2 7154  12.038  10.002  11.065  0.0351  0.2005 -0.0845
  448loPI    C3 7155  12.282  10.116  11.361  0.0145 -0.1267  0.0629
  448loPI   PO4 7156  12.483   9.895  10.818 -0.0367 -0.0970  0.0966
  448loPI   GL1 7157  12.243   9.830  10.478  0.0107  0.0036  0.0835
  448loPI   GL2 7158  12.563   9.930  10.321  0.2430  0.0193  0.1429
  448loPI   C1A 7159  11.824   9.715  10.279 -0.2884 -0.1194 -0.1174
  448loPI   C2A 7160  11.536   9.703   9.886 -0.1506 -0.0418  0.1437
  448loPI   C3A 7161  11.501   9.680   9.455 -0.1076 -0.0232 -0.1328
  448loPI   C4A 7162  11.269   9.554   9.147 -0.0277  0.2282  0.1306
  448loPI   C5A 7163  11.374   9.668   8.690 -0.0781  0.0412 -0.2712
  448loPI   C6A 7164  11.482   9.913   8.245  0.0523 -0.0270 -0.2124
  448loPI   C1B 7165  12.344   9.733  10.012 -0.2549  0.1090 -0.2454
  448loPI   C2B 7166  11.978   9.771   9.676  0.0007 -0.0513 -0.0439
  448loPI   C3B 7167  11.947   9.870   9.214 -0.1809  0.1908  0.0474
  448loPI   C4B 7168  11.990   9.823   8.763  0.2088  0.0489  0.1679
  449loPI    C1 7169  15.149  13.825  10.911 -0.2258  0.1004 -0.0021
  449loPI    C2 7170  15.344  13.529  11.096 -0.1466  0.0616 -0.1460
  449loPI    C3 7171  14.960  13.600  11.182 -0.1768 -0.1069 -0.1377
  449loPI   PO4 7172  15.176  13.793  10.567  0.0906  0.1241  0.0151
  449loPI   GL1 7173  15.335  13.470  10.247  0.0382 -0.2489 -0.0707
  449loPI   GL2 7174  15.615  13.610  10.241  0.0723  0.1527  0.1859
  449loPI   C1A 7175  15.331  13.339   9.799  0.0221  0.0782  0.2391
  449loPI   C2A 7176  15.339  13.512   9.423 -0.2689  0.1445  0.1816
  449loPI   C3A 7177  15.486  13.890   9.227 -0.1609 -0.1435 -0.2399
  449loPI   C4A 7178  15.665  14.049   8.862  0.0558 -0.3604  0.0211
  449loPI   C5A 7179  15.727  14.061   8.435  0.2919  0.1384  0.2425
  449loPI   C6A 7180  15.975  13.974   8.092 -0.1923  0.1115 -0.0564
  449loPI   C1B 7181  15.829  13.516   9.762 -0.3493  0.0143 -0.3761
  449loPI   C2B 7182  15.859  13.586   9.332 -0.2296  0.1397 -0.0372
  449loPI   C3B 7183  15.880  13.555   8.890  0.0128 -0.1982  0.0227
  449loPI   C4B 7184  16.018  13.680   8.545 -0.0653 -0.2818  0.1132
  450loPI    C1 7185  17.596  17.532  10.311  0.0320  0.1470 -0.1284
  450loPI    C2 7186  17.810  17.271  10.527 -0.0754  0.0138 -0.1821
  450loPI    C3 7187  17.670  17.605  10.698  0.2479  0.1450 -0.1683
  450loPI   PO4 7188  17.439  17.377  10.203  0.3624 -0.2532 -0.0850
  450loPI   GL1 7189  17.533  17.170   9.787 -0.4087 -0.1455 -0.1081
  450loPI   GL2 7190  17.558  17.483   9.727 -0.0063  0.1091 -0.2580
  450loPI   C1A 7191  17.110  17.277   9.617 -0.2411  0.1538  0.1202
  450loPI   C2A 7192  16.956  17.306   9.236  0.1884 -0.0712  0.2257
  450loPI   C3A 7193  16.924  17.459   8.821  0.1078  0.0076 -0.0927
  450loPI   C4A 7194  17.126  17.390   8.384  0.0318 -0.0754  0.1182
  450loPI   C5A 7195  17.054  16.870   8.269 -0.1282 -0.1166  0.1047
  450loPI   C6A 7196  17.006  16.410   8.131  0.0387  0.0076  0.2460
  450loPI   C1B 7197  17.451  17.457   9.278  0.1031 -0.2401  0.1951
  450loPI   C2B 7198  17.395  17.042   9.145 -0.0346  0.1599  0.1078
  450loPI   C3B 7199  17.071  16.825   9.070  0.0362  0.0707 -0.0623
  450loPI   C4B 7200  16.795  16.978   8.723 -0.0078  0.0786 -0.2766
  451loPI    C1 7201   1.887   8.678  10.134 -0.3026 -0.2129  0.1518
  451loPI    C2 7202   2.034   8.610  10.500 -0.0010  0.0500  0.0841
  451loPI    C3 7203   1.959   8.985  10.381 -0.1759 -0.0403 -0.0949
  451loPI   PO4 7204   1.944   8.521   9.929  0.0149 -0.0545 -0.1177
  451loPI   GL1 7205   1.740   8.341   9.620 -0.0640 -0.3530 -0.0526
  451loPI   GL2 7206   1.944   8.209   9.439 -0.1619  0.0417  0.1257
  451loPI   C1A 7207   1.522   8.619   9.361 -0.1368  0.0246  0.1481
  451loPI   C2A 7208   1.531   8.667   8.876  0.0115 -0.1602 -0.1914
  451loPI   C3A 7209   1.534   8.650   8.406 -0.1396  0.1087 -0.0326
  451loPI   C4A 7210   1.433   8.553   8.027 -0.2364  0.0913  0.0534
  451loPI   C5A 7211   1.258   8.661   7.661 -0.0951 -0.1400  0.1646
  451loPI   C6A 7212   1.143   8.575   7.224  0.0611 -0.3356  0.0431
  451loPI   C1B 7213   1.770   8.286   9.029 -0.2158 -0.1907 -0.0439
  451loPI   C2B 7214   1.669   8.204   8.609  0.3940  0.2210  0.1185
  451loPI   C3B 7215   1.770   8.136   8.138 -0.0790 -0.1367  0.0104
  451loPI   C4B 7216   1.685   8.138   7.722 -0.1046 -0.1440 -0.0304
  452loPI    C1 7217  17.788   6.988  10.517 -0.2181  0.0901 -0.1674
  452loPI    C2 7218  17.520   7.166  10.755 -0.1674  0.0674 -0.0928
  452loPI    C3 7219  17.822   6.957  10.915  0.0105  0.2598 -0.1717
  452loPI   PO4 7220  17.654   6.749  10.294 -0.2711 -0.0490  0.0143
  452loPI   GL1 7221  17.396   6.556  10.122  0.0136  0.0913  0.1979
  452loPI   GL2 7222  17.198   6.816   9.895 -0.3010  0.2179  0.3731
  452loPI   C1A 7223  17.219   6.245   9.909 -0.0018  0.0439 -0.1801
  452loPI   C2A 7224  17.156   6.135   9.489 -0.0288 -0.0854  0.0723
  452loPI   C3A 7225  17.204   6.151   9.076  0.1836  0.2093  0.0866
  452loPI   C4A 7226  17.121   6.171   8.593 -0.1069  0.2136  0.1044
  452loPI   C5A 7227  17.454   6.126   8.333  0.0299 -0.0753  0.2213
  452loPI   C6A 7228  17.727   6.070   7.948  0.0442  0.1898 -0.1011
  452loPI   C1B 7229  16.965   6.597   9.490 -0.0250 -0.3727 -0.0849
  452loPI   C2B 7230  16.791   6.555   9.100  0.0081 -0.0278  0.0249
  452loPI   C3B 7231  16.678   6.676   8.690  0.0178  0.0143 -0.2407
  452loPI   C4B 7232  16.810   6.474   8.354  0.0003  0.2046 -0.3712
  453loPI    C1 7233  10.374  14.884  10.655  0.0103 -0.1918 -0.1776
  453loPI    C2 7234  10.191  14.725  10.972  0.0500  0.1349  0.0142
  453loPI    C3 7235  10.558  14.879  11.010  0.1549 -0.0442 -0.2488
  453loPI   PO4 7236  10.147  14.987  10.397 -0.1164 -0.0702  0.1793
  453loPI   GL1 7237  10.242  15.016   9.929 -0.0459  0.1463  0.1779
  453loPI   GL2 7238  10.394  14.698  10.064  0.0559 -0.0380  0.0888
  453loPI   C1A 7239  10.249  14.954   9.491  0.1985 -0.1646 -0.0509
  453loPI   C2A 7240  10.363  14.961   9.097  0.2368 -0.3187  0.0086
  453loPI   C3A 7241  10.801  15.100   9.009  0.4554 -0.1190 -0.0111
  453loPI   C4A 7242  11.055  15.086   8.671  0.0267  0.2540  0.1474
  453loPI   C5A 7243  11.021  14.977   8.267 -0.0283 -0.1264  0.3631
  453loPI   C6A 7244  11.007  14.910   7.885 -0.0370  0.2127  0.0427
  453loPI   C1B 7245  10.589  14.670   9.686 -0.1795 -0.0682  0.0050
  453loPI   C2B 7246  10.802  14.725   9.295 -0.2095 -0.2105 -0.0469
  453loPI   C3B 7247  11.157  14.685   9.046  0.2507  0.0811 -0.0603
  453loPI   C4B 7248  11.030  14.596   8.654 -0.0516 -0.0273 -0.3456
  454loPI    C1 7249   8.611   2.646  10.138 -0.0284 -0.0539 -0.0397
  454loPI    C2 7250   8.868   2.347  10.071  0.0517  0.0938 -0.4150
  454loPI    C3 7251   8.487   2.313   9.954 -0.0468 -0.0298 -0.0709
  454loPI   PO4 7252   8.741   2.838  10.100 -0.2193  0.0208  0.1405
  454loPI   GL1 7253   8.841   3.081   9.784 -0.1132  0.1263 -0.0251
  454loPI   GL2 7254   8.811   2.673   9.664  0.1062  0.3034  0.1995
  454loPI   C1A 7255   9.047   3.084   9.413 -0.3098 -0.2358  0.0441
  454loPI   C2A 7256   8.941   3.034   8.989  0.1693  0.0032  0.3383
  454loPI   C3A 7257   8.879   3.011   8.536 -0.0401  0.0619  0.2988
  454loPI   C4A 7258   8.827   2.908   8.129  0.0675 -0.0783  0.2830
  454loPI   C5A 7259   8.505   2.583   7.907 -0.0116 -0.0296  0.1259
  454loPI   C6A 7260   8.094   2.381   7.885 -0.1552  0.0244 -0.4285
  454loPI   C1B 7261   8.571   2.885   9.316 -0.0339  0.0863  0.0031
  454loPI   C2B 7262   8.513   3.077   8.833 -0.0548  0.2140 -0.0253
  454loPI   C3B 7263   8.405   2.983   8.409 -0.2874  0.0485  0.1029
  454loPI   C4B 7264   8.328   3.029   8.012 -0.0157  0.0354 -0.1643
  455loPI    C1 7265   2.478  14.128  10.498  0.1262 -0.2317  0.1274
  455loPI    C2 7266   2.163  14.253  10.710 -0.0213 -0.1616 -0.1289
  455loPI    C3 7267   2.520  14.427  10.760 -0.0279 -0.2213  0.1408
  455loPI   PO4 7268   2.416  14.068  10.309 -0.3635  0.0238 -0.0371
  455loPI   GL1 7269   2.259  14.042   9.924  0.0249 -0.1485 -0.1268
  455loPI   GL2 7270   2.649  14.192   9.889 -0.1125  0.0263 -0.0832
  455loPI   C1A 7271   2.099  14.056   9.511 -0.2206 -0.2535 -0.0877
  455loPI   C2A 7272   2.197  14.074   9.131 -0.2938 -0.0535 -0.0116
  455loPI   C3A 7273   2.116  14.104   8.681 -0.1042  0.2085 -0.0182
  455loPI   C4A 7274   2.170  14.113   8.196  0.0516  0.1718 -0.2238
  455loPI   C5A 7275   1.984  14.171   7.748 -0.1132 -0.0100  0.1169
  455loPI   C6A 7276   1.775  14.007   7.370  0.1839 -0.2529  0.1708
  455loPI   C1B 7277   2.640  14.382   9.597  0.0253  0.2528  0.0543
  455loPI   C2B 7278   2.670  14.316   9.233 -0.0458  0.0318 -0.2830
  455loPI   C3B 7279   2.670  14.335   8.768  0.0146  0.1115 -0.0939
  455loPI   C4B 7280   2.614  14.434   8.282 -0.0853 -0.1509 -0.0195
  456loPI    C1 7281  14.343  12.393  10.677 -0.1247 -0.1140  0.0977
  456loPI    C2 7282  14.624  12.392  10.962 -0.0575 -0.0029  0.0326
  456loPI    C3 7283  14.448  12.735  10.857 -0.2136 -0.0713  0.0687
  456loPI   PO4 7284  14.361  12.219  10.494  0.0130  0.0831  0.0466
  456loPI   GL1 7285  14.337  12.258  10.111 -0.2573  0.1252 -0.1919
  456loPI   GL2 7286  14.544  12.428   9.944 -0.0483 -0.1647  0.1009
  456loPI   C1A 7287  13.994  12.338   9.797 -0.0300 -0.1461  0.1559
  456loPI   C2A 7288  13.775  12.489   9.484 -0.0439  0.0457 -0.0544
  456loPI   C3A 7289  13.880  12.455   9.006  0.1097 -0.0355 -0.1046
  456loPI   C4A 7290  13.839  12.463   8.539  0.0623 -0.1345  0.2546
  456loPI   C5A 7291  13.739  12.281   8.146  0.0037  0.3020 -0.3743
  456loPI   C6A 7292  13.536  11.847   8.101  0.0494 -0.2096  0.0084
  456loPI   C1B 7293  14.579  12.326   9.526 -0.0554 -0.0787 -0.0357
  456loPI   C2B 7294  14.651  12.280   9.035  0.0392 -0.0442  0.0707
  456loPI   C3B 7295  14.730  12.232   8.715  0.4412 -0.0730 -0.0601
  456loPI   C4B 7296  15.114  12.029   8.609 -0.0301  0.1989 -0.2560
  457loPI    C1 7297   7.364   9.015  10.331 -0.1248  0.3661 -0.0997
  457loPI    C2 7298   7.710   8.960  10.524 -0.1539  0.0695 -0.1276
  457loPI    C3 7299   7.404   9.141  10.708 -0.1268 -0.0604  0.0483
  457loPI   PO4 7300   7.371   8.807  10.147  0.2741  0.1442  0.1960
  457loPI   GL1 7301   7.523   8.877   9.779  0.0319  0.0896  0.0685
  457loPI   GL2 7302   7.591   9.186   9.944  0.0459  0.2582 -0.1897
  457loPI   C1A 7303   7.528   8.479   9.498 -0.3093  0.2826  0.1244
  457loPI   C2A 7304   7.578   8.314   9.156 -0.0828  0.2213 -0.0994
  457loPI   C3A 7305   7.578   8.446   8.737 -0.1954  0.2404  0.2515
  457loPI   C4A 7306   7.431   8.674   8.405  0.0106  0.4199 -0.2274
  457loPI   C5A 7307   7.130   8.840   8.169  0.0161  0.1616  0.1924
  457loPI   C6A 7308   6.638   8.998   8.031 -0.1783 -0.2554  0.0676
  457loPI   C1B 7309   7.475   9.373   9.513  0.1123  0.0554  0.1184
  457loPI   C2B 7310   7.202   9.293   9.089 -0.2021 -0.1984 -0.2578
  457loPI   C3B 7311   6.893   9.271   8.870  0.0366 -0.3664  0.0784
  457loPI   C4B 7312   6.874   9.273   8.383 -0.0730  0.0941 -0.1596
  458loPI    C1 7313   0.349  17.903  10.334 -0.1735 -0.1223  0.1482
  458loPI    C2 7314   0.034  17.881  10.579 -0.2492  0.2900  0.0949
  458loPI    C3 7315   0.299  18.178  10.620 -0.0144  0.1018 -0.0354
  458loPI   PO4 7316   0.305  17.672  10.208  0.1294  0.3686 -0.0717
  458loPI   GL1 7317   0.523  17.610   9.910 -0.0693 -0.2178  0.0132
  458loPI   GL2 7318   0.516  18.020   9.855 -0.0684  0.0648  0.0246
  458loPI   C1A 7319   0.293  17.711   9.488  0.2225  0.1025  0.0682
  458loPI   C2A 7320   0.254  17.915   9.106  0.0750  0.3707  0.1800
  458loPI   C3A 7321   0.126  18.043   8.819 -0.1097  0.0765  0.0214
  458loPI   C4A 7322   0.141  18.329   8.581  0.0332  0.2487 -0.3500
  458loPI   C5A 7323   0.271  18.708   8.348  0.0090 -0.1018 -0.0435
  458loPI   C6A 7324   0.610  18.859   8.228 -0.1872 -0.0905  0.2496
  458loPI   C1B 7325   0.718  17.960   9.504 -0.2072 -0.2669  0.0285
  458loPI   C2B 7326   0.714  17.963   9.132 -0.4343 -0.0951 -0.0360
  458loPI   C3B 7327   0.685  17.889   8.644  0.1950  0.0249  0.4128
  458loPI   C4B 7328   0.414  17.842   8.311  0.0785  0.0929 -0.0376
  459loPI    C1 7329  13.792  11.699  10.650 -0.1894 -0.1824 -0.0258
  459loPI    C2 7330  13.974  11.913  10.365 -0.1965 -0.0161  0.0934
  459loPI    C3 7331  14.081  11.533  10.428 -0.0726  0.0002 -0.0125
  459loPI   PO4 7332  13.465  11.740  10.549 -0.3501  0.3269 -0.4295
  459loPI   GL1 7333  13.480  11.934  10.231  0.4250 -0.1990  0.0745
  459loPI   GL2 7334  13.535  12.122  10.077 -0.1725 -0.3293 -0.2091
  459loPI   C1A 7335  13.849  11.774   9.919 -0.1507 -0.1510 -0.1526
  459loPI   C2A 7336  13.798  11.919   9.528  0.0464 -0.3932 -0.1056
  459loPI   C3A 7337  13.774  11.945   9.103 -0.0522 -0.0578 -0.2431
  459loPI   C4A 7338  13.776  11.982   8.619 -0.3622 -0.1170 -0.1811
  459loPI   C5A 7339  13.976  11.798   8.325 -0.0420 -0.2070  0.0450
  459loPI   C6A 7340  13.932  11.592   7.959 -0.4796 -0.1826  0.0024
  459loPI   C1B 7341  13.416  12.215   9.693  0.2533  0.2768  0.0686
  459loPI   C2B 7342  13.323  12.190   9.293  0.2558 -0.0347 -0.1059
  459loPI   C3B 7343  13.446  12.326   8.843  0.1790 -0.0734 -0.2164
  459loPI   C4B 7344  13.299  12.514   8.414  0.1422 -0.3101 -0.1729
  460loPI    C1 7345   2.587   5.125  10.467 -0.0306  0.1341 -0.1115
  460loPI    C2 7346   2.657   4.778  10.654 -0.0007  0.1274 -0.1349
  460loPI    C3 7347   2.722   5.124  10.843 -0.2630  0.1199 -0.0267
  460loPI   PO4 7348   2.574   5.041  10.139 -0.3285 -0.1776  0.0369
  460loPI   GL1 7349   2.191   5.134   9.934 -0.0589  0.2066 -0.4580
  460loPI   GL2 7350   2.270   5.461   9.866  0.1429  0.2169  0.2241
  460loPI   C1A 7351   2.039   4.956   9.439 -0.0664  0.0680  0.1095
  460loPI   C2A 7352   2.198   4.971   9.060  0.2867 -0.2694 -0.0467
  460loPI   C3A 7353   2.139   5.087   8.667 -0.0450  0.2495 -0.0991
  460loPI   C4A 7354   2.073   5.105   8.264  0.1317  0.0470 -0.0365
  460loPI   C5A 7355   2.177   5.109   7.893 -0.0070  0.0432  0.1108
  460loPI   C6A 7356   2.486   5.252   7.692 -0.0395  0.4895  0.1685
  460loPI   C1B 7357   2.341   5.375   9.466  0.2059  0.1308 -0.0012
  460loPI   C2B 7358   2.408   5.407   9.056  0.0944  0.1052  0.2771
  460loPI   C3B 7359   2.393   5.529   8.591  0.1275  0.0025 -0.2634
  460loPI   C4B 7360   2.210   5.845   8.470 -0.1213 -0.3359 -0.1218
  461loPI    C1 7361  16.601  15.578  10.384  0.3777 -0.1806  0.1027
  461loPI    C2 7362  16.704  15.851  10.658  0.2405 -0.0604  0.0355
  461loPI    C3 7363  16.336  15.694  10.661  0.2505 -0.0859 -0.0567
  461loPI   PO4 7364  16.742  15.658  10.168  0.0485 -0.1386 -0.2303
  461loPI   GL1 7365  16.770  15.508   9.935 -0.1944  0.2435 -0.0245
  461loPI   GL2 7366  16.497  15.443   9.790  0.2624  0.1447 -0.1536
  461loPI   C1A 7367  16.980  15.647   9.555 -0.0554 -0.0995 -0.1986
  461loPI   C2A 7368  16.846  15.524   9.118  0.2002 -0.5973 -0.0494
  461loPI   C3A 7369  17.077  15.162   8.885 -0.0046 -0.0962  0.0412
  461loPI   C4A 7370  17.134  15.029   8.444  0.0293  0.1168 -0.0316
  461loPI   C5A 7371  17.232  14.722   8.075 -0.4306 -0.1510  0.1624
  461loPI   C6A 7372  17.105  14.352   7.867 -0.2238  0.0077 -0.0992
  461loPI   C1B 7373  16.327  15.518   9.366 -0.1692  0.1506  0.1633
  461loPI   C2B 7374  16.368  15.374   8.930  0.0727  0.4655  0.0822
  461loPI   C3B 7375  16.418  15.298   8.547  0.1280 -0.2331  0.2727
  461loPI   C4B 7376  16.522  15.490   8.158 -0.1572 -0.0347 -0.2904
  462loPI    C1 7377   2.538  16.413  10.756 -0.0998 -0.1707  0.1120
  462loPI    C2 7378   2.212  16.636  10.821 -0.0994 -0.1162 -0.0670
  462loPI    C3 7379   2.486  16.592  11.109 -0.1151  0.0892 -0.0196
  462loPI   PO4 7380   2.393  16.257  10.595  0.1183  0.1643  0.0753
  462loPI   GL1 7381   2.462  16.220  10.163 -0.0134 -0.1014  0.0228
  462loPI   GL2 7382   2.643  15.997  10.167  0.1371  0.5339  0.1713
  462loPI   C1A 7383   2.404  16.475   9.799 -0.1298  0.4272  0.0662
  462loPI   C2A 7384   2.449  16.487   9.397  0.3267 -0.3012  0.0690
  462loPI   C3A 7385   2.575  16.482   9.078 -0.2809 -0.1143  0.0627
  462loPI   C4A 7386   2.591  16.421   8.669  0.0292 -0.0596 -0.2724
  462loPI   C5A 7387   2.604  16.555   8.282 -0.0384  0.2286 -0.2424
  462loPI   C6A 7388   2.454  16.920   8.096 -0.1098 -0.4244 -0.2472
  462loPI   C1B 7389   2.545  15.995   9.721 -0.1612 -0.1959 -0.2367
  462loPI   C2B 7390   2.543  15.956   9.306 -0.3273  0.1995 -0.1948
  462loPI   C3B 7391   2.575  15.817   8.904 -0.1942 -0.0904 -0.0797
  462loPI   C4B 7392   2.641  15.922   8.486 -0.0451 -0.2302 -0.0052
  463loPI    C1 7393   0.328   1.650  10.462  0.1835  0.2515  0.0179
  463loPI    C2 7394   0.143   1.825  10.770 -0.0807 -0.1046  0.0671
  463loPI    C3 7395   0.485   1.627  10.830 -0.0623 -0.0608  0.1079
  463loPI   PO4 7396   0.216   1.798  10.209 -0.0357  0.1646 -0.0931
  463loPI   GL1 7397  -0.070   1.922   9.990 -0.1551  0.1321 -0.2652
  463loPI   GL2 7398  -0.246   1.644   9.946 -0.0044 -0.2989 -0.1768
  463loPI   C1A 7399  -0.035   1.996   9.581  0.2357  0.0407 -0.3131
  463loPI   C2A 7400  -0.035   2.115   9.128  0.2431  0.1169  0.4990
  463loPI   C3A 7401  -0.239   2.458   8.830  0.1848 -0.0350 -0.1285
  463loPI   C4A 7402  -0.546   2.518   8.582  0.1669 -0.0795 -0.0151
  463loPI   C5A 7403  -0.971   2.463   8.508 -0.1001  0.1268 -0.2156
  463loPI   C6A 7404  -1.382   2.209   8.557 -0.1838 -0.2955 -0.0514
  463loPI   C1B 7405  -0.271   1.599   9.407 -0.0811  0.0736 -0.2553
  463loPI   C2B 7406  -0.272   1.649   9.032 -0.1169 -0.1156 -0.1396
  463loPI   C3B 7407  -0.164   1.919   8.698  0.0521  0.1809 -0.0749
  463loPI   C4B 7408   0.112   1.812   8.309  0.0019  0.0040  0.0352
  464loPI    C1 7409   7.663  15.145  10.662 -0.1515  0.2473 -0.2672
  464loPI    C2 7410   7.387  15.341  10.874 -0.0167  0.1669 -0.0132
  464loPI    C3 7411   7.769  15.344  10.993  0.0712  0.1707 -0.2905
  464loPI   PO4 7412   7.534  15.154  10.386  0.0949 -0.1025  0.0447
  464loPI   GL1 7413   7.716  15.110   9.953  0.0695  0.2567  0.0389
  464loPI   GL2 7414   7.395  15.212   9.900  0.1947  0.2186 -0.0556
  464loPI   C1A 7415   8.020  15.076   9.577  0.2109  0.0128 -0.1293
  464loPI   C2A 7416   8.255  14.969   9.267  0.0753 -0.1227  0.0883
  464loPI   C3A 7417   8.406  14.886   8.893  0.2335  0.0940  0.3472
  464loPI   C4A 7418   8.444  14.851   8.492  0.0871 -0.1300 -0.0232
  464loPI   C5A 7419   8.382  14.696   8.063  0.1201 -0.0956 -0.1930
  464loPI   C6A 7420   8.475  14.313   7.926  0.0124 -0.2154  0.2328
  464loPI   C1B 7421   7.495  15.230   9.536  0.0186  0.1409  0.0614
  464loPI   C2B 7422   7.582  15.203   9.150  0.3562 -0.0275  0.2749
  464loPI   C3B 7423   7.542  15.352   8.685 -0.0962  0.2740  0.0861
  464loPI   C4B 7424   7.611  15.355   8.219  0.4035 -0.1760 -0.2618
  465loPI    C1 7425   9.854   6.113  10.915  0.1968 -0.2472 -0.1429
  465loPI    C2 7426   9.980   5.817  11.152  0.0411 -0.1384  0.0793
  465loPI    C3 7427   9.603   5.950  11.180  0.1743  0.2364  0.1459
  465loPI   PO4 7428   9.908   6.062  10.681  0.4326 -0.1561 -0.2705
  465loPI   GL1 7429   9.802   6.330  10.381  0.1019 -0.0371  0.0025
  465loPI   GL2 7430   9.709   6.049  10.170  0.5903 -0.1246  0.1133
  465loPI   C1A 7431  10.045   6.412   9.985  0.2274 -0.1693  0.3490
  465loPI   C2A 7432  10.283   6.243   9.586 -0.1067 -0.0871  0.0943
  465loPI   C3A 7433  10.488   6.140   9.196 -0.2787 -0.0969  0.0764
  465loPI   C4A 7434  10.367   6.243   8.805 -0.2763 -0.0447  0.0010
  465loPI   C5A 7435  10.053   6.642   8.652 -0.1067  0.0678 -0.0474
  465loPI   C6A 7436   9.591   6.755   8.516 -0.2038  0.0852  0.1537
  465loPI   C1B 7437   9.798   6.067   9.640  0.1161 -0.0005 -0.3680
  465loPI   C2B 7438   9.926   6.164   9.254 -0.2085  0.1658 -0.4390
  465loPI   C3B 7439   9.693   6.409   9.042  0.0584 -0.4077  0.0439
  465loPI   C4B 7440   9.675   6.855   9.095  0.0086 -0.0201 -0.0044
  466loPI    C1 7441  11.729  11.836  10.906  0.1829 -0.0852 -0.0313
  466loPI    C2 7442  11.604  11.456  10.918 -0.1262  0.0174  0.0870
  466loPI    C3 7443  11.696  11.648  11.257  0.0577  0.0404  0.0252
  466loPI   PO4 7444  11.685  11.893  10.651  0.0596 -0.1906 -0.4203
  466loPI   GL1 7445  11.878  11.861  10.291  0.0910  0.0302 -0.1578
  466loPI   GL2 7446  12.095  11.659  10.150 -0.1582 -0.2617 -0.2467
  466loPI   C1A 7447  11.907  12.062   9.944 -0.0148 -0.0852  0.2345
  466loPI   C2A 7448  11.997  12.179   9.480  0.5039  0.1694 -0.0466
  466loPI   C3A 7449  11.954  12.215   9.031 -0.0142  0.4347 -0.1127
  466loPI   C4A 7450  11.855  12.292   8.634 -0.4735  0.0268  0.1122
  466loPI   C5A 7451  11.784  11.913   8.389 -0.0473 -0.1917 -0.2524
  466loPI   C6A 7452  11.621  11.746   7.976 -0.2676  0.1466 -0.1127
  466loPI   C1B 7453  11.884  11.520   9.823  0.0836  0.1957  0.2123
  466loPI   C2B 7454  11.841  11.690   9.404 -0.0677  0.0581  0.1329
  466loPI   C3B 7455  11.809  11.690   8.991  0.2507 -0.1024  0.0452
  466loPI   C4B 7456  11.557  11.575   8.646  0.1816  0.1248 -0.0234
  467loPI    C1 7457   0.734  12.393  10.791  0.0556 -0.0061  0.0489
  467loPI    C2 7458   0.756  12.027  10.949  0.1921  0.0746  0.2213
  467loPI    C3 7459   0.570  12.320  11.148 -0.0291  0.0698  0.0258
  467loPI   PO4 7460   0.801  12.402  10.475  0.1093  0.1931 -0.1536
  467loPI   GL1 7461   0.783  12.273  10.086  0.0374 -0.0094  0.0383
  467loPI   GL2 7462   0.706  11.977   9.895 -0.1914  0.2247  0.1348
  467loPI   C1A 7463   0.902  12.552   9.685  0.2899  0.1769  0.0508
  467loPI   C2A 7464   0.946  12.747   9.326  0.1889  0.1045  0.1101
  467loPI   C3A 7465   0.930  12.738   8.838 -0.1138 -0.0955 -0.1643
  467loPI   C4A 7466   0.743  12.787   8.367 -0.0083  0.0354  0.1557
  467loPI   C5A 7467   0.973  12.759   7.988 -0.3958 -0.0569 -0.0901
  467loPI   C6A 7468   1.014  12.600   7.581  0.2964  0.2301 -0.0038
  467loPI   C1B 7469   0.723  12.060   9.569 -0.3086 -0.2343  0.2008
  467loPI   C2B 7470   0.942  12.215   9.170  0.5471 -0.2538 -0.0166
  467loPI   C3B 7471   1.069  12.219   8.796  0.1097 -0.1718  0.1342
  467loPI   C4B 7472   1.112  12.363   8.398 -0.3193  0.1195  0.2300
  468loPI    C1 7473   0.065  11.057  10.659  0.2203  0.0204  0.1544
  468loPI    C2 7474  -0.175  10.861  10.913 -0.0303 -0.0784 -0.1523
  468loPI    C3 7475  -0.220  11.255  10.858  0.0313 -0.0549 -0.0375
  468loPI   PO4 7476   0.052  10.879  10.404  0.1090  0.1630  0.0275
  468loPI   GL1 7477  -0.310  10.813  10.049  0.2314 -0.1738 -0.0825
  468loPI   GL2 7478  -0.070  10.628   9.966  0.0211  0.3870 -0.2431
  468loPI   C1A 7479  -0.059  11.026   9.672  0.3159 -0.1998  0.0247
  468loPI   C2A 7480  -0.025  11.023   9.207 -0.2820 -0.4172  0.1050
  468loPI   C3A 7481   0.014  11.039   8.751  0.1360  0.1848 -0.0126
  468loPI   C4A 7482  -0.203  11.036   8.367 -0.0070  0.0284  0.0000
  468loPI   C5A 7483  -0.290  11.411   8.145  0.0076 -0.1122  0.0286
  468loPI   C6A 7484  -0.479  11.801   8.080 -0.0364  0.1044  0.3689
  468loPI   C1B 7485   0.362  10.740   9.836  0.4350 -0.0508  0.3529
  468loPI   C2B 7486   0.654  10.744   9.483 -0.0432  0.2898 -0.2390
  468loPI   C3B 7487   0.489  10.879   9.018  0.2641 -0.1277 -0.2468
  468loPI   C4B 7488   0.529  11.060   8.596  0.0773  0.0794 -0.0987
  469loPI    C1 7489   6.182   8.587  10.469  0.0079  0.0076  0.2174
  469loPI    C2 7490   6.540   8.652  10.303 -0.1093 -0.0494 -0.0626
  469loPI    C3 7491   6.357   8.945  10.505 -0.0455  0.0794 -0.1897
  469loPI   PO4 7492   6.095   8.382  10.186  0.3388 -0.0352 -0.1024
  469loPI   GL1 7493   6.204   8.287   9.767  0.0167  0.0573 -0.1028
  469loPI   GL2 7494   6.527   8.302   9.834 -0.2652  0.1220 -0.0701
  469loPI   C1A 7495   5.985   8.367   9.482  0.0923  0.1616  0.0200
  469loPI   C2A 7496   6.122   8.436   9.050 -0.0476 -0.1189  0.2812
  469loPI   C3A 7497   5.872   8.356   8.714 -0.1008 -0.3453 -0.0002
  469loPI   C4A 7498   6.051   8.154   8.299  0.1604  0.0865 -0.2473
  469loPI   C5A 7499   5.812   7.962   7.920  0.0470  0.3337 -0.0935
  469loPI   C6A 7500   5.480   7.975   7.597 -0.3503  0.1073 -0.0836
  469loPI   C1B 7501   6.757   7.988   9.490  0.0685 -0.3723 -0.1306
  469loPI   C2B 7502   6.798   7.880   9.080  0.0810 -0.1018  0.0156
  469loPI   C3B 7503   6.760   7.966   8.619 -0.1009  0.0774  0.0524
  469loPI   C4B 7504   6.511   8.000   8.268  0.0891 -0.1271  0.1408
  470loPI    C1 7505  17.043  12.625  10.510 -0.1116  0.0482  0.0065
  470loPI    C2 7506  16.763  12.835  10.316  0.0564  0.0055 -0.2877
  470loPI    C3 7507  17.074  13.023  10.485  0.0812  0.0149 -0.3437
  470loPI   PO4 7508  17.063  12.408  10.326 -0.1310  0.3188 -0.0214
  470loPI   GL1 7509  17.026  12.368   9.964  0.2040 -0.1089  0.1851
  470loPI   GL2 7510  16.832  12.527   9.777 -0.2430  0.1571  0.1111
  470loPI   C1A 7511  17.363  12.403   9.715  0.3113 -0.0577 -0.0401
  470loPI   C2A 7512  17.418  12.137   9.315  0.1381 -0.0630  0.0668
  470loPI   C3A 7513  17.510  12.120   8.906  0.0499 -0.2420  0.0420
  470loPI   C4A 7514  17.548  12.230   8.472 -0.2682 -0.0307 -0.3908
  470loPI   C5A 7515  17.537  12.165   8.071  0.1705  0.0236  0.2278
  470loPI   C6A 7516  17.481  12.315   7.567  0.0028 -0.0351 -0.0136
  470loPI   C1B 7517  16.906  12.275   9.452 -0.0941  0.0264 -0.0208
  470loPI   C2B 7518  16.974  12.103   8.996  0.1628  0.0653  0.0630
  470loPI   C3B 7519  17.031  12.199   8.623  0.0657  0.0252  0.0432
  470loPI   C4B 7520  17.103  12.542   8.368  0.2228  0.0366  0.0316
  471loPI    C1 7521  14.762   5.757  10.202  0.0355 -0.0712 -0.0633
  471loPI    C2 7522  14.553   5.675  10.532  0.2403 -0.1100  0.0583
  471loPI    C3 7523  14.828   5.965  10.536  0.4432 -0.2982  0.0054
  471loPI   PO4 7524  14.597   5.834  10.010  0.1660  0.2230 -0.2568
  471loPI   GL1 7525  14.288   5.625   9.722  0.0360  0.0216  0.2553
  471loPI   GL2 7526  14.483   5.722   9.544  0.1587  0.1123 -0.1383
  471loPI   C1A 7527  14.015   5.613   9.378  0.0649  0.0217 -0.0027
  471loPI   C2A 7528  13.917   5.663   8.946 -0.1713 -0.1017 -0.1733
  471loPI   C3A 7529  14.014   5.664   8.477 -0.0019  0.0034  0.0854
  471loPI   C4A 7530  14.109   5.522   8.064  0.1541  0.0616 -0.1294
  471loPI   C5A 7531  14.103   5.566   7.648  0.0084  0.0899  0.0600
  471loPI   C6A 7532  13.861   5.779   7.365  0.1062 -0.0426  0.1106
  471loPI   C1B 7533  14.417   5.734   9.119  0.3741 -0.0856 -0.1769
  471loPI   C2B 7534  14.470   5.794   8.708 -0.4033 -0.3409  0.2843
  471loPI   C3B 7535  14.537   5.738   8.288  0.1885  0.0099  0.0340
  471loPI   C4B 7536  14.462   5.853   7.893 -0.2168  0.2668 -0.0028
  472loPI    C1 7537  16.102   4.328  10.636  0.1387  0.2226 -0.0958
  472loPI    C2 7538  15.837   4.491  10.887 -0.0488 -0.0041 -0.1430
  472loPI    C3 7539  16.226   4.576  10.925 -0.0791 -0.0045  0.1986
  472loPI   PO4 7540  16.018   4.144  10.550  0.0541  0.2318 -0.2549
  472loPI   GL1 7541  15.913   4.021  10.266  0.0797 -0.2984 -0.1062
  472loPI   GL2 7542  16.007   3.895  10.031 -0.1303  0.2302  0.1420
  472loPI   C1A 7543  15.618   4.190   9.957 -0.0141  0.1925  0.3542
  472loPI   C2A 7544  15.739   4.201   9.467 -0.0153  0.0562  0.1633
  472loPI   C3A 7545  15.803   4.157   9.003  0.0392 -0.2173  0.1190
  472loPI   C4A 7546  15.836   4.189   8.577  0.2414  0.2805 -0.0748
  472loPI   C5A 7547  15.642   3.968   8.105 -0.0729 -0.3376 -0.0652
  472loPI   C6A 7548  15.508   3.698   7.795 -0.0247 -0.1562 -0.2138
  472loPI   C1B 7549  16.079   3.861   9.646 -0.3643 -0.0600 -0.2088
  472loPI   C2B 7550  16.045   3.734   9.271  0.1870 -0.0829 -0.0592
  472loPI   C3B 7551  16.012   3.728   8.801  0.0555  0.1345  0.1655
  472loPI   C4B 7552  16.098   3.773   8.238  0.0783  0.2075  0.1240
  473loPI    C1 7553  13.046   8.952  10.988  0.2242 -0.2499  0.0503
  473loPI    C2 7554  13.171   8.786  11.330  0.0438 -0.0041  0.2388
  473loPI    C3 7555  13.114   9.181  11.308  0.3352  0.0220 -0.1639
  473loPI   PO4 7556  13.206   8.978  10.738 -0.0111  0.2221  0.0236
  473loPI   GL1 7557  13.221   8.891  10.357 -0.0231 -0.0307 -0.0819
  473loPI   GL2 7558  12.898   9.122  10.198 -0.1135 -0.1369  0.0625
  473loPI   C1A 7559  13.266   8.910   9.922  0.0807  0.1844 -0.1705
  473loPI   C2A 7560  13.140   9.066   9.531  0.0904 -0.0799  0.3365
  473loPI   C3A 7561  13.289   9.033   9.089 -0.0200  0.0865  0.0385
  473loPI   C4A 7562  13.288   9.292   8.705 -0.2194 -0.0795  0.3082
  473loPI   C5A 7563  13.517   9.507   8.328 -0.2624  0.1040 -0.0415
  473loPI   C6A 7564  13.784   9.860   8.185  0.3557  0.0371  0.1284
  473loPI   C1B 7565  12.691   8.928   9.754  0.3433 -0.0533  0.0657
  473loPI   C2B 7566  12.672   8.944   9.292  0.1446  0.0467 -0.2371
  473loPI   C3B 7567  12.724   9.011   8.825 -0.1558 -0.1011 -0.1026
  473loPI   C4B 7568  12.752   9.254   8.484  0.4069 -0.0572  0.0486
  474loPI    C1 7569  11.868  15.097  10.448 -0.0802  0.1251  0.2468
  474loPI    C2 7570  11.925  15.041  10.839 -0.2940  0.1931  0.2892
  474loPI    C3 7571  11.582  14.926  10.669 -0.0877 -0.1044  0.0636
  474loPI   PO4 7572  12.086  15.034  10.334  0.6091 -0.0776 -0.2809
  474loPI   GL1 7573  12.486  15.097  10.076 -0.2020  0.0076  0.0017
  474loPI   GL2 7574  12.380  15.388   9.987 -0.1434  0.2776  0.2421
  474loPI   C1A 7575  12.613  14.982   9.769 -0.0721  0.0138  0.2455
  474loPI   C2A 7576  12.780  15.132   9.299  0.1371 -0.0873 -0.0022
  474loPI   C3A 7577  12.897  15.180   8.906 -0.0992  0.0461  0.1787
  474loPI   C4A 7578  12.942  15.092   8.420  0.1807  0.1159  0.1743
  474loPI   C5A 7579  13.191  14.973   8.184  0.3658  0.0847 -0.0076
  474loPI   C6A 7580  13.624  14.881   8.080 -0.0771 -0.3383 -0.0270
  474loPI   C1B 7581  12.695  15.500   9.652 -0.1786 -0.0573  0.1387
  474loPI   C2B 7582  12.913  15.569   9.328  0.0373  0.0132 -0.1022
  474loPI   C3B 7583  13.048  15.653   8.941  0.3497  0.1722  0.0042
  474loPI   C4B 7584  13.097  15.633   8.519  0.1335 -0.0160  0.0534
  475loPI    C1 7585   6.099   7.646  10.794  0.1616  0.2330 -0.1744
  475loPI    C2 7586   6.380   7.366  10.845 -0.1433 -0.0347  0.0779
  475loPI    C3 7587   6.443   7.738  10.977  0.0456 -0.1214  0.2382
  475loPI   PO4 7588   5.935   7.619  10.517  0.1477  0.2980 -0.0827
  475loPI   GL1 7589   6.012   7.358  10.133  0.0973  0.4945  0.1494
  475loPI   GL2 7590   6.066   7.115   9.947 -0.0881  0.3529 -0.2064
  475loPI   C1A 7591   5.931   7.523   9.686 -0.1200 -0.2345 -0.1151
  475loPI   C2A 7592   5.981   7.585   9.257  0.1165 -0.0676 -0.1790
  475loPI   C3A 7593   5.805   7.479   8.785  0.3032 -0.0157  0.1279
  475loPI   C4A 7594   5.379   7.540   8.682  0.0133 -0.0076 -0.1596
  475loPI   C5A 7595   5.226   7.791   8.362 -0.0802 -0.2346 -0.1690
  475loPI   C6A 7596   5.235   7.745   7.915 -0.1310 -0.3597  0.0301
  475loPI   C1B 7597   6.269   7.156   9.519  0.2185 -0.1718 -0.0767
  475loPI   C2B 7598   6.221   7.104   9.113 -0.1240  0.1828 -0.1208
  475loPI   C3B 7599   6.251   7.155   8.691 -0.0179 -0.0534  0.0441
  475loPI   C4B 7600   6.199   7.186   8.278 -0.2625  0.1501  0.2247
  476loPI    C1 7601   3.095  15.330  10.386  0.3453 -0.0219  0.1001
  476loPI    C2 7602   3.100  15.532  10.732 -0.0664 -0.0266  0.1135
  476loPI    C3 7603   3.077  15.730  10.384 -0.0138 -0.0350  0.1052
  476loPI   PO4 7604   3.365  15.196  10.396  0.2480 -0.2569  0.1205
  476loPI   GL1 7605   3.629  15.086  10.000  0.0990  0.0111  0.2569
  476loPI   GL2 7606   3.428  14.927   9.649 -0.0602  0.3798 -0.2207
  476loPI   C1A 7607   3.847  15.254   9.674 -0.6665 -0.3268 -0.2478
  476loPI   C2A 7608   3.916  15.153   9.204  0.1088 -0.1797 -0.3369
  476loPI   C3A 7609   4.025  15.144   8.761  0.0936  0.0779  0.1762
  476loPI   C4A 7610   3.969  15.161   8.448  0.0005 -0.0470  0.1373
  476loPI   C5A 7611   3.951  15.161   8.037  0.0983  0.3293 -0.2549
  476loPI   C6A 7612   4.157  14.915   7.694 -0.1021  0.1754  0.0597
  476loPI   C1B 7613   3.494  14.857   9.283 -0.0834  0.1543  0.3376
  476loPI   C2B 7614   3.512  14.897   8.811  0.0572  0.1741 -0.0728
  476loPI   C3B 7615   3.541  14.965   8.388 -0.0951  0.1421  0.1208
  476loPI   C4B 7616   3.370  15.003   8.021 -0.1512  0.0455  0.2547
  477loPI    C1 7617  18.087   3.501  10.554 -0.0510 -0.0742  0.0808
  477loPI    C2 7618  18.225   3.837  10.719  0.0077 -0.1334  0.1528
  477loPI    C3 7619  17.889   3.669  10.857 -0.3126  0.1788 -0.2223
  477loPI   PO4 7620  18.177   3.499  10.295  0.1065 -0.1625  0.1704
  477loPI   GL1 7621  18.497   3.410   9.904  0.4037  0.0569  0.2162
  477loPI   GL2 7622  18.337   3.162   9.974 -0.1527 -0.0338  0.3396
  477loPI   C1A 7623  18.598   3.359   9.498  0.1072  0.1126 -0.2811
  477loPI   C2A 7624  18.548   3.373   9.022  0.0380 -0.2811 -0.1075
  477loPI   C3A 7625  18.486   3.525   8.614 -0.3514  0.0276 -0.0621
  477loPI   C4A 7626  18.526   3.463   8.168 -0.1982 -0.0260 -0.0638
  477loPI   C5A 7627  18.669   3.083   7.932  0.1012 -0.1638 -0.2406
  477loPI   C6A 7628  18.656   2.613   7.886  0.1400 -0.2137  0.0490
  477loPI   C1B 7629  18.388   2.922   9.490  0.1970 -0.2148 -0.1311
  477loPI   C2B 7630  18.315   2.898   9.028 -0.3375 -0.1764  0.0879
  477loPI   C3B 7631  18.201   2.994   8.584  0.1381 -0.0138  0.0639
  477loPI   C4B 7632  18.199   2.796   8.269 -0.0091 -0.1429  0.0527
  478loPI    C1 7633  12.385   1.445   9.976  0.0401 -0.2741  0.0301
  478loPI    C2 7634  12.244   1.125  10.171  0.0762 -0.2932  0.0252
  478loPI    C3 7635  12.460   1.399  10.366  0.1025 -0.3062  0.0146
  478loPI   PO4 7636  12.289   1.408   9.763 -0.1254  0.2318 -0.1271
  478loPI   GL1 7637  12.307   1.441   9.413  0.1246  0.0791  0.1660
  478loPI   GL2 7638  11.995   1.397   9.349 -0.0512  0.3857 -0.1048
  478loPI   C1A 7639  12.658   1.621   9.071  0.1044 -0.3749 -0.2834
  478loPI   C2A 7640  12.671   1.694   8.627 -0.3843 -0.0319  0.1182
  478loPI   C3A 7641  12.590   1.761   8.256  0.3773  0.3766 -0.0237
  478loPI   C4A 7642  12.506   1.867   7.832  0.2686 -0.1710  0.0293
  478loPI   C5A 7643  12.331   1.678   7.443 -0.2475  0.2562 -0.1382
  478loPI   C6A 7644  12.157   1.534   7.189  0.3623  0.0896  0.0158
  478loPI   C1B 7645  12.102   1.433   9.004 -0.0908 -0.1404  0.3078
  478loPI   C2B 7646  12.135   1.767   8.637 -0.1295  0.1299  0.2375
  478loPI   C3B 7647  12.273   2.104   8.454 -0.1272 -0.3168 -0.3228
  478loPI   C4B 7648  12.205   2.237   8.120 -0.0122  0.1257 -0.2401
  479loPI    C1 7649   7.622   6.968  10.417  0.2394 -0.2851 -0.0334
  479loPI    C2 7650   7.657   7.077  10.801  0.1282  0.1355 -0.1372
  479loPI    C3 7651   7.393   6.795  10.696  0.1829 -0.0059  0.0968
  479loPI   PO4 7652   7.666   7.196  10.303  0.0530 -0.1946 -0.1284
  479loPI   GL1 7653   7.505   7.337   9.869  0.2850  0.0930  0.0218
  479loPI   GL2 7654   7.248   7.468   9.730 -0.1494  0.1918 -0.2799
  479loPI   C1A 7655   7.596   7.393   9.360  0.0485 -0.0936 -0.0105
  479loPI   C2A 7656   7.624   7.407   8.987 -0.2088  0.3000 -0.0453
  479loPI   C3A 7657   7.674   7.454   8.504 -0.0055 -0.1142 -0.1201
  479loPI   C4A 7658   7.903   7.722   8.147  0.0098  0.4079  0.3470
  479loPI   C5A 7659   8.042   8.033   7.921  0.0662  0.0916 -0.2433
  479loPI   C6A 7660   8.393   8.222   7.681  0.0974 -0.2304 -0.2532
  479loPI   C1B 7661   7.128   7.515   9.332 -0.0014  0.2226  0.0826
  479loPI   C2B 7662   7.000   7.473   8.865 -0.2721  0.0747  0.1155
  479loPI   C3B 7663   7.080   7.510   8.396 -0.0388 -0.0189 -0.1203
  479loPI   C4B 7664   6.998   7.887   8.127  0.0543 -0.0374 -0.2295
  480loPI    C1 7665  16.200   7.828   9.981 -0.0146 -0.1618 -0.2309
  480loPI    C2 7666  16.028   7.575  10.238  0.0691  0.0185  0.0053
  480loPI    C3 7667  15.802   7.821  10.018  0.0075  0.0195  0.0692
  480loPI   PO4 7668  16.390   7.916  10.136  0.1114 -0.0745  0.2535
  480loPI   GL1 7669  16.807   8.096   9.911 -0.0922 -0.0770  0.2051
  480loPI   GL2 7670  16.839   8.403   9.912  0.0248  0.1416  0.2698
  480loPI   C1A 7671  16.630   7.965   9.489  0.2649 -0.1032 -0.2939
  480loPI   C2A 7672  16.499   7.969   9.038  0.0550  0.3134 -0.1751
  480loPI   C3A 7673  16.536   8.194   8.681 -0.1042  0.0182 -0.2591
  480loPI   C4A 7674  16.713   8.226   8.343 -0.0038  0.1648 -0.1365
  480loPI   C5A 7675  16.507   8.163   7.964 -0.3024  0.0175  0.1242
  480loPI   C6A 7676  16.108   8.001   7.836 -0.1104  0.1759  0.1843
  480loPI   C1B 7677  16.779   8.550   9.520  0.0281 -0.2268 -0.0392
  480loPI   C2B 7678  16.910   8.703   9.077  0.0079  0.1503  0.1296
  480loPI   C3B 7679  17.002   8.853   8.592  0.0973  0.1688 -0.1998
  480loPI   C4B 7680  17.275   8.973   8.254 -0.1339 -0.2990 -0.0317
  481loPI    C1 7681   7.267  11.826  10.302 -0.2189  0.0120 -0.0411
  481loPI    C2 7682   6.988  12.113  10.316 -0.1606  0.0691 -0.0445
  481loPI    C3 7683   7.135  11.959  10.655 -0.2383 -0.0022 -0.0430
  481loPI   PO4 7684   7.099  11.647  10.075  0.0763  0.2156  0.2507
  481loPI   GL1 7685   6.939  11.743   9.638  0.0562  0.1637  0.2673
  481loPI   GL2 7686   7.098  11.457   9.505  0.0507 -0.3341  0.0164
  481loPI   C1A 7687   6.791  12.005   9.347  0.4511  0.0735 -0.0294
  481loPI   C2A 7688   6.758  12.135   8.885  0.1005  0.0404  0.1523
  481loPI   C3A 7689   6.769  12.151   8.532 -0.1912  0.0302  0.1429
  481loPI   C4A 7690   7.096  12.211   8.247 -0.0981  0.1149  0.0591
  481loPI   C5A 7691   7.067  12.365   7.834  0.3524  0.1207 -0.4294
  481loPI   C6A 7692   7.133  12.128   7.405 -0.3428 -0.0147  0.4084
  481loPI   C1B 7693   7.129  11.293   9.043  0.3221  0.0577  0.0133
  481loPI   C2B 7694   7.294  11.410   8.635  0.1933  0.2154  0.0859
  481loPI   C3B 7695   7.499  11.104   8.319 -0.1612 -0.0892  0.0062
  481loPI   C4B 7696   7.815  11.387   8.201  0.1423  0.1991  0.0312
  482loPI    C1 7697   7.537   5.495  10.384  0.1346 -0.1365  0.0566
  482loPI    C2 7698   7.380   5.161  10.538 -0.0525 -0.0742  0.0029
  482loPI    C3 7699   7.560   5.427  10.778 -0.0911 -0.1127  0.0750
  482loPI   PO4 7700   7.709   5.468  10.205 -0.1529  0.1561 -0.3182
  482loPI   GL1 7701   7.897   5.798   9.923  0.0803 -0.0225 -0.0236
  482loPI   GL2 7702   7.873   6.125   9.962 -0.0547  0.0845 -0.1738
  482loPI   C1A 7703   7.946   5.639   9.537 -0.0918 -0.0483 -0.1301
  482loPI   C2A 7704   8.083   5.667   9.171  0.1234  0.3317 -0.2640
  482loPI   C3A 7705   8.189   5.718   8.808  0.1629  0.2059 -0.4747
  482loPI   C4A 7706   7.913   5.752   8.499 -0.0002 -0.1683  0.0259
  482loPI   C5A 7707   7.834   5.779   8.126  0.0685 -0.3319 -0.2412
  482loPI   C6A 7708   8.037   6.046   7.816 -0.0224  0.0895 -0.0653
  482loPI   C1B 7709   7.777   6.117   9.546 -0.0894  0.1527  0.3111
  482loPI   C2B 7710   7.816   6.078   9.076  0.0301  0.2931  0.2658
  482loPI   C3B 7711   7.677   6.198   8.712 -0.1675 -0.0519 -0.1045
  482loPI   C4B 7712   7.809   6.244   8.305  0.0464 -0.0351  0.4345
  483loPI    C1 7713  15.492   4.780  10.625  0.1487  0.1178  0.0502
  483loPI    C2 7714  15.527   5.122  10.831  0.0008  0.2435 -0.1297
  483loPI    C3 7715  15.226   5.074  10.571  0.1359  0.0541 -0.2546
  483loPI   PO4 7716  15.705   4.749  10.514  0.0178 -0.0118 -0.1166
  483loPI   GL1 7717  15.948   4.515  10.180  0.0633  0.1035  0.2691
  483loPI   GL2 7718  15.661   4.673  10.024 -0.0845 -0.0870  0.0794
  483loPI   C1A 7719  16.104   4.362   9.828 -0.2680  0.0666  0.0989
  483loPI   C2A 7720  16.238   4.249   9.418  0.0810  0.0693 -0.1454
  483loPI   C3A 7721  16.270   4.314   8.958  0.0951 -0.0552  0.0687
  483loPI   C4A 7722  16.330   4.219   8.483  0.0939 -0.1200 -0.3096
  483loPI   C5A 7723  16.377   4.168   8.058 -0.0512  0.3257  0.2554
  483loPI   C6A 7724  16.358   4.448   7.679  0.0713  0.1286  0.1320
  483loPI   C1B 7725  15.453   4.625   9.558 -0.0860 -0.1295  0.2662
  483loPI   C2B 7726  15.474   4.539   9.170 -0.1509 -0.0763 -0.2679
  483loPI   C3B 7727  15.462   4.485   8.799  0.3741  0.3594  0.0885
  483loPI   C4B 7728  15.512   4.492   8.312  0.0505  0.0786  0.0705
  484loPI    C1 7729   3.604   7.166   9.903 -0.0278 -0.1507 -0.1295
  484loPI    C2 7730   3.731   7.013  10.250  0.0161 -0.0481 -0.1001
  484loPI    C3 7731   3.466   6.812  10.028  0.1729 -0.2290 -0.1255
  484loPI   PO4 7732   3.817   7.275   9.796 -0.2471  0.1280 -0.2619
  484loPI   GL1 7733   4.007   7.302   9.531  0.0059 -0.1030  0.0082
  484loPI   GL2 7734   4.273   7.065   9.362 -0.1542  0.1298  0.1234
  484loPI   C1A 7735   3.895   7.584   9.124 -0.0123  0.2004  0.0242
  484loPI   C2A 7736   3.743   7.878   8.732  0.1510 -0.0439 -0.1106
  484loPI   C3A 7737   3.900   7.854   8.365  0.0758  0.0960 -0.0895
  484loPI   C4A 7738   3.791   7.837   7.902 -0.1120  0.1186  0.0530
  484loPI   C5A 7739   3.456   7.671   7.652  0.1466 -0.0179  0.2335
  484loPI   C6A 7740   3.006   7.574   7.538  0.0429 -0.1421 -0.1514
  484loPI   C1B 7741   4.204   7.042   8.955 -0.1581  0.1221 -0.0230
  484loPI   C2B 7742   3.995   6.901   8.537 -0.1482  0.0712  0.0222
  484loPI   C3B 7743   3.854   6.902   8.093  0.0999  0.0481 -0.2826
  484loPI   C4B 7744   4.210   6.921   7.672  0.2325 -0.2689  0.0837
  485loPI    C1 7745  12.970   9.476  10.792  0.1691 -0.0258 -0.0733
  485loPI    C2 7746  12.742   9.546  11.114 -0.0091  0.1569 -0.2367
  485loPI    C3 7747  13.119   9.680  11.103 -0.0005  0.1451 -0.1026
  485loPI   PO4 7748  12.793   9.536  10.531 -0.2911 -0.0495  0.0250
  485loPI   GL1 7749  13.021   9.787  10.159 -0.1715  0.0314  0.3281
  485loPI   GL2 7750  13.220   9.460   9.935  0.0823  0.2513 -0.0332
  485loPI   C1A 7751  12.785   9.668   9.772 -0.1410  0.1247  0.1996
  485loPI   C2A 7752  12.635   9.876   9.485 -0.0218 -0.0361 -0.1136
  485loPI   C3A 7753  12.507   9.954   9.040 -0.1081  0.1389 -0.0110
  485loPI   C4A 7754  12.525   9.834   8.560 -0.2265 -0.1520 -0.0710
  485loPI   C5A 7755  12.348   9.583   8.308 -0.0523 -0.1871  0.3642
  485loPI   C6A 7756  12.161   9.325   7.997  0.2358 -0.3795  0.0646
  485loPI   C1B 7757  13.257   9.555   9.538  0.0265  0.1450 -0.1994
  485loPI   C2B 7758  12.931   9.425   9.188  0.0801 -0.0051  0.2776
  485loPI   C3B 7759  12.928   9.668   8.840  0.0347  0.0636 -0.0811
  485loPI   C4B 7760  12.994   9.717   8.499 -0.0239  0.0885 -0.3598
  486loPI    C1 7761  13.003  14.535  11.014 -0.0491 -0.1234 -0.0803
  486loPI    C2 7762  12.949  14.646  11.395 -0.1586  0.1688 -0.1787
  486loPI    C3 7763  12.847  14.277  11.278  0.1981 -0.0419  0.1507
  486loPI   PO4 7764  12.890  14.727  10.835  0.2619  0.1340 -0.0998
  486loPI   GL1 7765  13.008  14.944  10.510 -0.0223 -0.1556  0.1787
  486loPI   GL2 7766  13.168  15.192  10.300  0.1723  0.1166 -0.1105
  486loPI   C1A 7767  12.923  14.671  10.093 -0.2426  0.2472 -0.2348
  486loPI   C2A 7768  13.123  14.728   9.701 -0.0624  0.0750 -0.0077
  486loPI   C3A 7769  13.325  14.751   9.368  0.0830 -0.1320 -0.2353
  486loPI   C4A 7770  13.390  14.734   8.939 -0.1148  0.1450 -0.2605
  486loPI   C5A 7771  13.392  14.601   8.523  0.2567 -0.1026  0.1095
  486loPI   C6A 7772  13.245  14.501   8.091  0.1022  0.0496  0.0517
  486loPI   C1B 7773  13.159  15.166   9.840  0.0076  0.2032  0.0832
  486loPI   C2B 7774  13.352  15.236   9.537  0.4085 -0.0208  0.0808
  486loPI   C3B 7775  13.426  15.257   9.015  0.3623 -0.1444  0.0904
  486loPI   C4B 7776  13.428  15.144   8.591  0.2503 -0.0437  0.1335
  487loPI    C1 7777   3.661  15.877  10.633  0.1655  0.1499  0.0400
  487loPI    C2 7778   3.315  16.021  10.772 -0.0628 -0.0414 -0.3140
  487loPI    C3 7779   3.596  16.271  10.636  0.0546  0.1312  0.2210
  487loPI   PO4 7780   3.574  15.725  10.509  0.1317 -0.0701  0.4009
  487loPI   GL1 7781   3.676  15.658  10.052  0.0792  0.0996 -0.0120
  487loPI   GL2 7782   3.368  15.515  10.025 -0.0474 -0.1183 -0.1409
  487loPI   C1A 7783   3.515  15.904   9.683  0.0871 -0.2165  0.0584
  487loPI   C2A 7784   3.457  15.954   9.322  0.1292 -0.1783  0.0644
  487loPI   C3A 7785   3.415  15.923   8.943 -0.0665 -0.2927  0.0869
  487loPI   C4A 7786   3.482  15.899   8.609  0.1397  0.3591 -0.1436
  487loPI   C5A 7787   3.487  16.066   8.234 -0.0815  0.0109  0.2411
  487loPI   C6A 7788   3.418  16.465   8.055  0.0501  0.1121  0.0619
  487loPI   C1B 7789   3.440  15.416   9.576  0.2862 -0.1643 -0.2788
  487loPI   C2B 7790   3.511  15.343   9.207 -0.1541  0.3418 -0.0810
  487loPI   C3B 7791   3.483  15.417   8.738 -0.1242 -0.0813  0.2072
  487loPI   C4B 7792   3.548  15.432   8.278  0.0028 -0.2162 -0.0877
  488loPI    C1 7793   9.158  13.536  10.877  0.2255  0.0662  0.1195
  488loPI    C2 7794   8.891  13.377  11.128  0.2431  0.0070  0.1009
  488loPI    C3 7795   8.918  13.774  11.090 -0.1738  0.0083 -0.2526
  488loPI   PO4 7796   9.143  13.443  10.617 -0.1667 -0.0721 -0.0346
  488loPI   GL1 7797   9.115  13.196  10.324  0.0738  0.1220 -0.1368
  488loPI   GL2 7798   9.090  12.927  10.205 -0.0361  0.0654  0.0923
  488loPI   C1A 7799   9.056  13.315   9.804  0.1535  0.2278  0.0991
  488loPI   C2A 7800   9.160  13.110   9.475  0.0486  0.1642  0.1731
  488loPI   C3A 7801   9.103  13.000   9.081  0.0671 -0.4002  0.0014
  488loPI   C4A 7802   9.047  13.174   8.646  0.1729  0.3505  0.2414
  488loPI   C5A 7803   8.943  13.296   8.256  0.1388  0.0147  0.0594
  488loPI   C6A 7804   8.543  13.480   8.047  0.1593 -0.0231 -0.3495
  488loPI   C1B 7805   9.295  12.809   9.876 -0.0185 -0.0097  0.1847
  488loPI   C2B 7806   9.458  12.688   9.551  0.1660 -0.2028  0.0563
  488loPI   C3B 7807   9.410  12.525   9.153  0.2613 -0.1297 -0.2548
  488loPI   C4B 7808   9.362  12.474   8.781 -0.1333  0.3812 -0.1199
  489loPI    C1 7809   1.983   9.690  10.198 -0.2745 -0.0803 -0.0161
  489loPI    C2 7810   2.063   9.748  10.586 -0.0720  0.0033 -0.0690
  489loPI    C3 7811   2.238   9.448  10.389 -0.1237  0.0014 -0.1125
  489loPI   PO4 7812   2.018   9.945  10.076 -0.1159 -0.0622  0.0586
  489loPI   GL1 7813   2.203  10.383  10.010 -0.0022 -0.1066  0.3502
  489loPI   GL2 7814   1.880  10.443   9.870 -0.2201  0.0866  0.0301
  489loPI   C1A 7815   2.453  10.502   9.633  0.2486  0.2253  0.3272
  489loPI   C2A 7816   2.763  10.486   9.281  0.2298 -0.3648  0.1351
  489loPI   C3A 7817   2.735  10.625   8.844 -0.0604 -0.2316 -0.1591
  489loPI   C4A 7818   2.796  10.617   8.308  0.0457 -0.0868  0.0577
  489loPI   C5A 7819   2.996  10.664   7.923  0.2703 -0.1866  0.1617
  489loPI   C6A 7820   3.297  10.536   7.699  0.2449  0.3871 -0.0998
  489loPI   C1B 7821   1.853  10.582   9.426 -0.0659 -0.1762  0.0312
  489loPI   C2B 7822   1.804  10.650   8.986  0.0803 -0.1332  0.0073
  489loPI   C3B 7823   1.856  10.709   8.518 -0.2705 -0.0946  0.1023
  489loPI   C4B 7824   2.137  10.539   8.118  0.0712  0.3518  0.2419
  490loPI    C1 7825  11.316   4.354  10.307  0.0845 -0.1689  0.0133
  490loPI    C2 7826  11.640   4.357  10.541  0.0777 -0.4322  0.0295
  490loPI    C3 7827  11.278   4.309  10.703  0.0396 -0.2551 -0.0005
  490loPI   PO4 7828  11.287   4.474  10.128 -0.0174  0.0869  0.1937
  490loPI   GL1 7829  11.377   4.447   9.727 -0.0612 -0.3718 -0.2216
  490loPI   GL2 7830  11.252   4.274   9.615  0.2161 -0.0743 -0.4983
  490loPI   C1A 7831  11.709   4.495   9.376 -0.0188  0.1361 -0.1284
  490loPI   C2A 7832  11.781   4.749   8.986  0.2029  0.2479 -0.4591
  490loPI   C3A 7833  11.936   5.094   8.764  0.0174  0.2915  0.0377
  490loPI   C4A 7834  11.925   5.265   8.335 -0.3825 -0.0820 -0.0035
  490loPI   C5A 7835  11.980   5.221   7.934 -0.0243  0.2040  0.2031
  490loPI   C6A 7836  12.029   5.183   7.558 -0.2228 -0.2448 -0.1095
  490loPI   C1B 7837  11.322   4.208   9.224  0.4453 -0.0526 -0.0504
  490loPI   C2B 7838  11.388   4.417   8.819  0.1725  0.0938 -0.1575
  490loPI   C3B 7839  11.391   4.496   8.386  0.0666  0.0717 -0.0418
  490loPI   C4B 7840  11.325   4.674   8.005 -0.0419  0.1725 -0.0793
  491loPI    C1 7841  11.948   5.444  10.636 -0.0238 -0.1768 -0.2190
  491loPI    C2 7842  12.183   5.125  10.688 -0.1473 -0.2060  0.1960
  491loPI    C3 7843  12.292   5.480  10.837 -0.0272 -0.0562 -0.2342
  491loPI   PO4 7844  11.928   5.404  10.297  0.1550  0.2256  0.1840
  491loPI   GL1 7845  12.073   5.718   9.912  0.1353 -0.0990 -0.0439
  491loPI   GL2 7846  12.131   5.347   9.871  0.2339 -0.0022 -0.0925
  491loPI   C1A 7847  12.161   6.008   9.541  0.2403 -0.0453  0.0115
  491loPI   C2A 7848  12.280   6.160   9.141  0.2452 -0.1567 -0.0644
  491loPI   C3A 7849  12.232   6.112   8.724  0.0299 -0.2353  0.3073
  491loPI   C4A 7850  12.227   6.137   8.232 -0.0648  0.2792  0.2702
  491loPI   C5A 7851  12.346   6.422   7.945  0.0986 -0.1100  0.3483
  491loPI   C6A 7852  12.013   6.531   7.693  0.0454 -0.0642  0.1500
  491loPI   C1B 7853  12.064   5.557   9.386 -0.1212  0.5220  0.1340
  491loPI   C2B 7854  12.155   5.578   8.916 -0.1635 -0.0286  0.0723
  491loPI   C3B 7855  12.136   5.707   8.473  0.0039 -0.1215 -0.2398
  491loPI   C4B 7856  12.139   5.689   8.095 -0.3957 -0.0758  0.2628
  492loPI    C1 7857  12.015  15.818  10.790  0.0826 -0.1536 -0.1218
  492loPI    C2 7858  11.900  15.503  11.008 -0.1689 -0.0227 -0.0620
  492loPI    C3 7859  11.849  15.874  11.150  0.3358  0.0418 -0.0321
  492loPI   PO4 7860  11.858  15.854  10.539 -0.1156 -0.0042 -0.0856
  492loPI   GL1 7861  11.745  16.139  10.231 -0.0836 -0.3473 -0.2649
  492loPI   GL2 7862  12.017  16.256  10.116 -0.1889  0.1152  0.0880
  492loPI   C1A 7863  11.668  15.984   9.876 -0.3264  0.0438 -0.1691
  492loPI   C2A 7864  11.829  15.853   9.484 -0.1458  0.0533  0.0885
  492loPI   C3A 7865  11.980  15.917   9.081  0.0955 -0.1063  0.1380
  492loPI   C4A 7866  12.162  15.868   8.669 -0.1817  0.2218  0.0687
  492loPI   C5A 7867  12.344  15.845   8.164  0.3728 -0.1651 -0.4359
  492loPI   C6A 7868  12.299  15.583   7.802  0.1420 -0.0486  0.4641
  492loPI   C1B 7869  12.134  16.214   9.737 -0.2412 -0.0465  0.0457
  492loPI   C2B 7870  12.188  16.322   9.300  0.0005 -0.0271 -0.3958
  492loPI   C3B 7871  12.323  16.360   8.812  0.0594  0.0148  0.4263
  492loPI   C4B 7872  12.277  16.359   8.295  0.1107 -0.0009 -0.1150
  493loPI    C1 7873   9.267   2.041  10.100  0.1327 -0.1016  0.2041
  493loPI    C2 7874   8.983   1.797   9.960  0.2511 -0.0075 -0.2154
  493loPI    C3 7875   9.080   1.789  10.348 -0.2286 -0.1326 -0.0909
  493loPI   PO4 7876   9.277   2.180   9.837 -0.0127  0.0034  0.2877
  493loPI   GL1 7877   9.437   2.065   9.495  0.2844 -0.1460 -0.0612
  493loPI   GL2 7878   9.325   1.820   9.476 -0.1523 -0.2709  0.0377
  493loPI   C1A 7879   9.166   2.111   9.086  0.2128  0.0188  0.1915
  493loPI   C2A 7880   9.022   2.064   8.694 -0.0001 -0.2142  0.0267
  493loPI   C3A 7881   8.929   1.831   8.253 -0.1238  0.1032 -0.0375
  493loPI   C4A 7882   8.958   1.986   7.896 -0.0692  0.1940  0.0447
  493loPI   C5A 7883   8.987   2.048   7.509 -0.0709 -0.2419  0.4272
  493loPI   C6A 7884   8.957   1.873   7.077  0.3983 -0.0963 -0.1561
  493loPI   C1B 7885   9.632   1.927   9.097  0.0089 -0.0188 -0.1661
  493loPI   C2B 7886  10.047   1.995   8.812 -0.0236  0.1143 -0.3784
  493loPI   C3B 7887  10.111   2.188   8.363  0.2428  0.2394 -0.6195
  493loPI   C4B 7888   9.980   2.109   7.959 -0.1029  0.1049 -0.1993
  494loPI    C1 7889  16.641  10.855  10.662  0.0022  0.0523  0.1225
  494loPI    C2 7890  16.744  10.571  10.399 -0.0040  0.3936 -0.2580
  494loPI    C3 7891  17.027  10.776  10.593  0.0104  0.4386 -0.3260
  494loPI   PO4 7892  16.420  10.968  10.485 -0.0537 -0.3406  0.1372
  494loPI   GL1 7893  16.313  10.815  10.187  0.0314  0.3119  0.0384
  494loPI   GL2 7894  16.552  11.029   9.976 -0.0273  0.0410 -0.3002
  494loPI   C1A 7895  16.341  10.386  10.135  0.0379 -0.0932  0.0964
  494loPI   C2A 7896  16.253  10.373   9.674 -0.0142  0.0121  0.0701
  494loPI   C3A 7897  16.200  10.232   9.265 -0.1115 -0.1369 -0.1346
  494loPI   C4A 7898  16.347  10.080   8.918 -0.0375  0.0674  0.0753
  494loPI   C5A 7899  16.704  10.013   8.731  0.0496  0.0980 -0.0283
  494loPI   C6A 7900  16.796   9.612   8.612  0.0306  0.0759  0.0425
  494loPI   C1B 7901  16.470  10.842   9.558  0.1451  0.0263 -0.3169
  494loPI   C2B 7902  16.318  10.757   9.197  0.1781  0.1572 -0.0323
  494loPI   C3B 7903  16.239  10.525   8.725  0.0493 -0.0969  0.1943
  494loPI   C4B 7904  16.213  10.223   8.456 -0.0884 -0.3509 -0.0186
  495loPI    C1 7905  18.389   5.634  10.155 -0.3697 -0.1583  0.0436
  495loPI    C2 7906  18.099   5.892  10.059 -0.3398 -0.0352  0.2782
  495loPI    C3 7907  18.287   5.924  10.410 -0.0077 -0.0840  0.1091
  495loPI   PO4 7908  18.419   5.483   9.955 -0.2106 -0.1042  0.0093
  495loPI   GL1 7909  18.247   5.142   9.663  0.1923  0.0568 -0.0449
  495loPI   GL2 7910  18.295   5.292   9.336 -0.0476  0.0935 -0.1968
  495loPI   C1A 7911  17.790   5.132   9.440 -0.0065 -0.4098 -0.0774
  495loPI   C2A 7912  17.659   4.795   9.110  0.0174 -0.0728 -0.1755
  495loPI   C3A 7913  17.550   4.712   8.601 -0.3254  0.1210  0.0110
  495loPI   C4A 7914  17.662   4.893   8.196 -0.2974  0.0330 -0.1581
  495loPI   C5A 7915  17.461   5.291   8.105 -0.0220  0.0443  0.1856
  495loPI   C6A 7916  17.419   5.634   8.089 -0.0175  0.1083 -0.3361
  495loPI   C1B 7917  18.301   5.263   8.903  0.0342 -0.0369 -0.2573
  495loPI   C2B 7918  18.263   5.254   8.491  0.1092  0.3954  0.0665
  495loPI   C3B 7919  18.172   5.173   8.063  0.0439 -0.0643  0.2294
  495loPI   C4B 7920  17.821   5.246   7.802 -0.0015 -0.0386 -0.0268
  496loPI    C1 7921  12.645  11.948  10.924  0.1698  0.0332  0.0226
  496loPI    C2 7922  12.944  12.191  11.030  0.0960  0.0696  0.1499
  496loPI    C3 7923  12.730  12.003  11.311 -0.1469  0.2208  0.0690
  496loPI   PO4 7924  12.544  12.184  10.693  0.0613 -0.0879  0.2574
  496loPI   GL1 7925  12.673  12.500  10.339  0.1482  0.0144  0.0830
  496loPI   GL2 7926  12.781  12.858  10.342 -0.0127  0.1184  0.3909
  496loPI   C1A 7927  12.620  12.651   9.899 -0.1018 -0.0253 -0.1458
  496loPI   C2A 7928  12.962  12.446   9.668  0.2241 -0.1293 -0.3049
  496loPI   C3A 7929  12.903  12.507   9.190 -0.1074  0.3584 -0.0741
  496loPI   C4A 7930  12.968  12.400   8.800 -0.1119  0.0570 -0.0145
  496loPI   C5A 7931  12.862  12.753   8.423  0.0405  0.1026 -0.0447
  496loPI   C6A 7932  12.454  12.642   8.121 -0.2551  0.2996 -0.0492
  496loPI   C1B 7933  12.625  13.143  10.012 -0.1254 -0.0232  0.3726
  496loPI   C2B 7934  12.524  13.436   9.754 -0.1160  0.1183 -0.2689
  496loPI   C3B 7935  12.632  13.453   9.355 -0.0762 -0.1838  0.0473
  496loPI   C4B 7936  12.633  13.387   8.964  0.3708 -0.0486 -0.1489
  497loPI    C1 7937  16.347   2.352  10.493 -0.2534  0.2590  0.0868
  497loPI    C2 7938  16.385   2.750  10.497  0.1558  0.2232  0.1198
  497loPI    C3 7939  16.260   2.558  10.825 -0.0930  0.3264  0.0875
  497loPI   PO4 7940  16.603   2.274  10.365  0.4019  0.1597 -0.1767
  497loPI   GL1 7941  16.700   2.237   9.958 -0.1941  0.0190  0.1406
  497loPI   GL2 7942  16.373   2.249   9.924 -0.0376 -0.2373  0.1898
  497loPI   C1A 7943  16.805   2.408   9.582  0.1659  0.1943 -0.0432
  497loPI   C2A 7944  16.668   2.503   9.200  0.3291  0.0108  0.1483
  497loPI   C3A 7945  16.575   2.419   8.782 -0.2042  0.0028 -0.1240
  497loPI   C4A 7946  16.626   2.311   8.329  0.0797 -0.0440 -0.1492
  497loPI   C5A 7947  16.850   2.118   8.046  0.1658  0.0042  0.0046
  497loPI   C6A 7948  16.754   2.085   7.642  0.1464  0.0860  0.1426
  497loPI   C1B 7949  16.117   2.437   9.610 -0.1559  0.2737 -0.1824
  497loPI   C2B 7950  16.064   2.410   9.054 -0.2355 -0.2002  0.0549
  497loPI   C3B 7951  16.148   2.156   8.687 -0.1738  0.0953 -0.1114
  497loPI   C4B 7952  16.050   1.800   8.382  0.1487 -0.1361 -0.0016
  498loPI    C1 7953   8.443   5.336  10.538  0.0795 -0.0754  0.0473
  498loPI    C2 7954   8.205   5.534  10.284  0.2083 -0.0135 -0.0260
  498loPI    C3 7955   8.091   5.479  10.664  0.0250 -0.0866 -0.0903
  498loPI   PO4 7956   8.671   5.355  10.606  0.0250  0.1732  0.0584
  498loPI   GL1 7957   8.874   5.737  10.429 -0.1123 -0.2278  0.1971
  498loPI   GL2 7958   8.725   5.603  10.195 -0.0941 -0.0952 -0.0318
  498loPI   C1A 7959   9.170   6.051  10.249  0.0055 -0.0535 -0.0201
  498loPI   C2A 7960   9.383   6.189   9.838 -0.1287  0.1333 -0.0309
  498loPI   C3A 7961   9.364   6.205   9.404  0.0132 -0.0898  0.1166
  498loPI   C4A 7962   9.176   6.420   9.031  0.2474 -0.0700  0.1100
  498loPI   C5A 7963   9.125   6.519   8.665 -0.2640  0.2290  0.0644
  498loPI   C6A 7964   9.169   6.467   8.163  0.0777 -0.1335 -0.1014
  498loPI   C1B 7965   8.871   5.914   9.880 -0.1610  0.1561  0.1860
  498loPI   C2B 7966   8.837   6.112   9.374  0.0564 -0.4448 -0.0529
  498loPI   C3B 7967   8.709   6.512   9.127  0.4727  0.1545 -0.3449
  498loPI   C4B 7968   8.677   6.763   8.837 -0.0947 -0.2886 -0.1883
  499loPI    C1 7969   1.572   9.425  10.714 -0.0193  0.0096  0.0362
  499loPI    C2 7970   1.662   9.756  10.919 -0.1618  0.1576 -0.1362
  499loPI    C3 7971   1.281   9.669  10.838 -0.1251 -0.0498 -0.0926
  499loPI   PO4 7972   1.706   9.397  10.526 -0.1691 -0.3336 -0.1008
  499loPI   GL1 7973   1.634   9.309  10.045  0.0810 -0.0965  0.0914
  499loPI   GL2 7974   1.560   9.604   9.941  0.0764  0.3076 -0.1423
  499loPI   C1A 7975   1.439   9.192   9.644  0.3784 -0.1148  0.1055
  499loPI   C2A 7976   1.450   9.105   9.194  0.0334  0.0822  0.1190
  499loPI   C3A 7977   1.358   9.275   8.838 -0.3960  0.0406  0.1461
  499loPI   C4A 7978   1.220   9.171   8.482 -0.1422 -0.2431  0.1627
  499loPI   C5A 7979   1.205   9.329   8.103 -0.0920  0.1385 -0.1593
  499loPI   C6A 7980   1.335   9.169   7.668  0.0024 -0.1502  0.0812
  499loPI   C1B 7981   1.712   9.694   9.390  0.0208 -0.0579 -0.0380
  499loPI   C2B 7982   1.784   9.674   8.947  0.1134 -0.0499  0.0285
  499loPI   C3B 7983   1.707   9.508   8.560 -0.3949 -0.1697 -0.2645
  499loPI   C4B 7984   1.858   9.501   8.165 -0.1692  0.0172 -0.2719
  500loPI    C1 7985   2.529  18.300  10.264  0.1869  0.0778 -0.0266
  500loPI    C2 7986   2.508  17.968  10.486 -0.1892  0.1564  0.0613
  500loPI    C3 7987   2.660  18.304  10.642  0.2464  0.0150 -0.0464
  500loPI   PO4 7988   2.400  18.173  10.055  0.1474 -0.1199 -0.3189
  500loPI   GL1 7989   2.486  18.085   9.673  0.0665 -0.0086 -0.1289
  500loPI   GL2 7990   2.139  17.879   9.741  0.0382  0.0011 -0.0931
  500loPI   C1A 7991   2.645  17.981   9.294  0.0253 -0.2492  0.1739
  500loPI   C2A 7992   2.492  18.043   8.903 -0.0997  0.0054 -0.2917
  500loPI   C3A 7993   2.309  18.044   8.532  0.1639 -0.1357  0.0053
  500loPI   C4A 7994   2.136  18.048   8.077 -0.0633  0.0322  0.2008
  500loPI   C5A 7995   2.158  18.398   7.878 -0.2733  0.0828 -0.2400
  500loPI   C6A 7996   2.281  18.707   7.783  0.0821 -0.0425 -0.1979
  500loPI   C1B 7997   2.172  17.767   9.270 -0.2417 -0.0925  0.0655
  500loPI   C2B 7998   2.145  17.740   8.853  0.0583 -0.0665  0.2774
  500loPI   C3B 7999   1.937  17.688   8.367  0.0161 -0.0921  0.0618
  500loPI   C4B 8000   1.762  17.698   7.916 -0.3702 -0.0917 -0.0602
  501loPI    C1 8001  15.244  10.313  10.722  0.1486 -0.3446  0.1798
  501loPI    C2 8002  15.456  10.102  10.458 -0.0973 -0.0954 -0.2279
  501loPI    C3 8003  15.066  10.028  10.506 -0.0413 -0.1839  0.1210
  501loPI   PO4 8004  15.442  10.500  10.808  0.0772 -0.0598 -0.2545
  501loPI   GL1 8005  15.387  10.840  10.544  0.2423 -0.1103  0.0809
  501loPI   GL2 8006  15.235  10.616  10.334 -0.0938 -0.1783 -0.3621
  501loPI   C1A 8007  15.601  10.841  10.142 -0.2111  0.1600 -0.2479
  501loPI   C2A 8008  15.364  10.722   9.728  0.1047  0.2367  0.1512
  501loPI   C3A 8009  15.294  10.537   9.357  0.0298  0.2779  0.0593
  501loPI   C4A 8010  15.075  10.381   9.070  0.1730  0.3569 -0.2947
  501loPI   C5A 8011  15.357  10.291   8.662  0.0407 -0.1042 -0.0301
  501loPI   C6A 8012  15.486  10.184   8.288 -0.5427 -0.1550 -0.0238
  501loPI   C1B 8013  15.264  10.330  10.018  0.1024  0.3392 -0.0919
  501loPI   C2B 8014  15.255  10.103   9.661  0.1945  0.3469 -0.0970
  501loPI   C3B 8015  15.028   9.884   9.381 -0.2775 -0.0336  0.0308
  501loPI   C4B 8016  14.901   9.867   8.965  0.1595 -0.4198 -0.0823
  502loPI    C1 8017   6.918   3.397  10.368  0.0301  0.2024 -0.1654
  502loPI    C2 8018   6.804   3.734  10.552  0.0738  0.0645  0.1186
  502loPI    C3 8019   6.787   3.384  10.746  0.1656 -0.0778 -0.1261
  502loPI   PO4 8020   6.865   3.341  10.054 -0.0385  0.2498  0.0706
  502loPI   GL1 8021   6.842   3.642   9.773 -0.3019  0.1762  0.0653
  502loPI   GL2 8022   6.761   3.860  10.061 -0.1255  0.0162 -0.0373
  502loPI   C1A 8023   6.861   3.747   9.461  0.0637 -0.2574  0.1178
  502loPI   C2A 8024   6.926   3.861   9.000  0.0409  0.0867  0.0550
  502loPI   C3A 8025   6.818   3.864   8.548 -0.0053 -0.3650 -0.1681
  502loPI   C4A 8026   6.890   4.053   8.228  0.2083 -0.1077  0.2028
  502loPI   C5A 8027   6.698   4.389   7.982  0.0900  0.0791 -0.0086
  502loPI   C6A 8028   6.904   4.766   7.804  0.0758  0.0101 -0.1251
  502loPI   C1B 8029   6.735   4.184   9.756  0.0193 -0.0898 -0.0583
  502loPI   C2B 8030   6.615   4.249   9.341 -0.2188 -0.2071 -0.0439
  502loPI   C3B 8031   6.636   4.365   8.932 -0.2358 -0.2274 -0.3574
  502loPI   C4B 8032   6.625   4.356   8.524  0.0348  0.1760 -0.0458
  503loPI    C1 8033   1.856  10.444  10.415 -0.0613  0.0294  0.1296
  503loPI    C2 8034   2.217  10.291  10.497  0.0733  0.1281 -0.2586
  503loPI    C3 8035   2.078  10.600  10.709  0.1791  0.0357 -0.0519
  503loPI   PO4 8036   1.731  10.270  10.335  0.1298 -0.0924 -0.0157
  503loPI   GL1 8037   1.515  10.128  10.031 -0.2366  0.3239  0.0520
  503loPI   GL2 8038   1.604  10.077   9.738 -0.0111  0.1367  0.1825
  503loPI   C1A 8039   1.073  10.135   9.809  0.1134  0.1113 -0.0079
  503loPI   C2A 8040   0.921  10.338   9.453 -0.2029 -0.0921 -0.2182
  503loPI   C3A 8041   0.923  10.551   9.063 -0.2664  0.0612  0.3417
  503loPI   C4A 8042   0.975  10.661   8.682  0.1584  0.0112  0.1244
  503loPI   C5A 8043   0.736  10.643   8.297  0.0360  0.0120  0.0078
  503loPI   C6A 8044   0.346  10.813   8.254 -0.1764 -0.0476 -0.4141
  503loPI   C1B 8045   1.456  10.326   9.363 -0.2091 -0.1233 -0.2475
  503loPI   C2B 8046   1.361  10.256   8.994  0.1698  0.0296  0.1771
  503loPI   C3B 8047   1.437  10.381   8.580 -0.0416 -0.5779  0.2053
  503loPI   C4B 8048   1.460  10.521   8.145  0.0305  0.0695 -0.0180
  504loPI    C1 8049  13.542  14.391  11.132 -0.1080  0.1016  0.0069
  504loPI    C2 8050  13.503  14.169  11.463 -0.2606  0.1699  0.0354
  504loPI    C3 8051  13.837  14.380  11.402 -0.1813  0.0599  0.0858
  504loPI   PO4 8052  13.409  14.202  10.878  0.0636  0.1439 -0.2294
  504loPI   GL1 8053  13.627  14.295  10.532 -0.0206 -0.2454  0.2444
  504loPI   GL2 8054  13.550  14.542  10.196  0.0584  0.0627 -0.0870
  504loPI   C1A 8055  13.460  14.075  10.173  0.1187  0.0679 -0.0275
  504loPI   C2A 8056  13.502  13.874   9.719  0.1414  0.1263 -0.4598
  504loPI   C3A 8057  13.507  13.872   9.350  0.1287 -0.1454 -0.1764
  504loPI   C4A 8058  13.620  13.912   8.942 -0.1054  0.1262 -0.2602
  504loPI   C5A 8059  13.504  14.017   8.474 -0.0904  0.1036 -0.0540
  504loPI   C6A 8060  13.681  13.907   8.030 -0.2113 -0.1295  0.0100
  504loPI   C1B 8061  13.584  14.401   9.737 -0.0813 -0.0619  0.1323
  504loPI   C2B 8062  13.680  14.342   9.320 -0.0282 -0.0279 -0.1423
  504loPI   C3B 8063  13.721  14.351   8.820  0.2835  0.1207 -0.0346
  504loPI   C4B 8064  13.848  14.400   8.381 -0.0168  0.1075 -0.2732
  505loPI    C1 8065  14.104  11.060  10.650 -0.2851  0.2089  0.1340
  505loPI    C2 8066  13.963  11.309  10.930  0.0316  0.3265  0.1929
  505loPI    C3 8067  14.343  11.338  10.809 -0.0473  0.1474 -0.1091
  505loPI   PO4 8068  13.985  11.030  10.478  0.0176 -0.0345  0.2325
  505loPI   GL1 8069  14.083  11.218  10.052  0.1576 -0.2839  0.3118
  505loPI   GL2 8070  14.332  10.977   9.858  0.0681 -0.1916 -0.1800
  505loPI   C1A 8071  14.134  11.444   9.573 -0.2519  0.1555 -0.0087
  505loPI   C2A 8072  14.119  11.614   9.166  0.0283  0.0221 -0.1216
  505loPI   C3A 8073  14.064  11.581   8.743  0.1745  0.1732 -0.1206
  505loPI   C4A 8074  14.216  11.385   8.427 -0.3229 -0.0731  0.0351
  505loPI   C5A 8075  14.455  11.489   8.042 -0.1710 -0.2732 -0.2305
  505loPI   C6A 8076  14.641  11.858   7.768  0.4793  0.0124 -0.2990
  505loPI   C1B 8077  14.556  11.096   9.585 -0.0180 -0.2621  0.0248
  505loPI   C2B 8078  14.469  11.246   9.229  0.0795 -0.1053 -0.3132
  505loPI   C3B 8079  14.534  11.273   8.842  0.2523  0.2228 -0.0808
  505loPI   C4B 8080  14.768  11.313   8.454  0.0345 -0.1059 -0.2312
  506loPI    C1 8081  11.287  16.317  10.413  0.0346 -0.0456 -0.0544
  506loPI    C2 8082  11.295  15.930  10.515  0.0124  0.0511  0.3286
  506loPI    C3 8083  11.023  16.175  10.678 -0.0905  0.1946 -0.0477
  506loPI   PO4 8084  11.218  16.383  10.173 -0.0816  0.4537  0.0724
  506loPI   GL1 8085  11.312  16.390   9.795  0.1120  0.0711  0.0104
  506loPI   GL2 8086  11.628  16.476   9.844 -0.0344  0.2391 -0.0243
  506loPI   C1A 8087  11.350  16.019   9.506  0.1776  0.1806 -0.2473
  506loPI   C2A 8088  11.489  15.788   9.103 -0.0101  0.0996  0.0390
  506loPI   C3A 8089  11.686  15.767   8.696  0.2298 -0.0148  0.0530
  506loPI   C4A 8090  11.908  15.554   8.385 -0.2218  0.1370  0.2315
  506loPI   C5A 8091  12.288  15.301   8.252 -0.1439 -0.0778 -0.0225
  506loPI   C6A 8092  12.580  15.160   7.983 -0.0184  0.1572  0.0764
  506loPI   C1B 8093  11.694  16.406   9.396 -0.2759 -0.3123 -0.0002
  506loPI   C2B 8094  11.608  16.229   8.985  0.2684 -0.2885  0.0013
  506loPI   C3B 8095  11.823  16.254   8.586 -0.4545  0.0524  0.0721
  506loPI   C4B 8096  11.905  16.019   8.193  0.2989  0.0209  0.2911
  507loPI    C1 8097  16.225   9.729  10.639  0.1185  0.2515 -0.0860
  507loPI    C2 8098  16.310   9.618  11.014 -0.2107  0.2365 -0.0126
  507loPI    C3 8099  16.387   9.991  10.894 -0.1321  0.2501  0.0793
  507loPI   PO4 8100  16.294   9.531  10.495  0.0201  0.0475 -0.2667
  507loPI   GL1 8101  16.489   9.566  10.133 -0.1584 -0.1941 -0.0750
  507loPI   GL2 8102  16.359   9.328   9.976 -0.2228  0.0340  0.2679
  507loPI   C1A 8103  16.535  10.023   9.954 -0.1905 -0.0173 -0.0558
  507loPI   C2A 8104  16.597  10.000   9.447  0.0214  0.2120  0.0131
  507loPI   C3A 8105  16.585   9.652   9.115  0.1149 -0.0690  0.1661
  507loPI   C4A 8106  16.313   9.610   8.708 -0.0683 -0.2760  0.1595
  507loPI   C5A 8107  16.308   9.292   8.336  0.0899  0.0219  0.0192
  507loPI   C6A 8108  16.342   8.855   8.108 -0.0453  0.2777  0.1481
  507loPI   C1B 8109  16.659   9.488   9.635 -0.2314  0.1045 -0.4173
  507loPI   C2B 8110  16.931   9.624   9.416  0.0344 -0.1532  0.1419
  507loPI   C3B 8111  17.103   9.833   8.987 -0.1234  0.1541  0.1951
  507loPI   C4B 8112  17.121  10.269   8.760 -0.1258  0.2353 -0.4624
  508loPI    C1 8113  14.622  17.406  10.578 -0.2776 -0.1704  0.3194
  508loPI    C2 8114  14.600  17.652  10.892  0.0261  0.1713  0.0812
  508loPI    C3 8115  14.949  17.485  10.793 -0.0831  0.0072 -0.0333
  508loPI   PO4 8116  14.570  17.516  10.312 -0.1409 -0.2360 -0.0956
  508loPI   GL1 8117  14.578  17.191  10.016 -0.2983 -0.1340 -0.1112
  508loPI   GL2 8118  14.626  17.473   9.846 -0.3478  0.1701 -0.1658
  508loPI   C1A 8119  14.777  17.015   9.656  0.0710 -0.6856  0.2524
  508loPI   C2A 8120  14.827  16.960   9.275  0.0076 -0.0460 -0.3342
  508loPI   C3A 8121  14.881  16.999   8.799  0.0852 -0.3450 -0.1647
  508loPI   C4A 8122  14.980  16.768   8.417  0.3478  0.0805 -0.3381
  508loPI   C5A 8123  14.626  16.537   8.088  0.0448  0.0482 -0.0141
  508loPI   C6A 8124  14.833  16.391   7.613  0.3160  0.3138  0.0327
  508loPI   C1B 8125  14.570  17.414   9.333  0.1493 -0.0605  0.1131
  508loPI   C2B 8126  14.582  17.435   8.933  0.0973  0.1898  0.1104
  508loPI   C3B 8127  14.572  17.282   8.511 -0.0805 -0.0782 -0.2202
  508loPI   C4B 8128  14.530  17.302   8.067  0.1001  0.0919  0.1283
  509loPI    C1 8129  13.941   1.400  10.511  0.0144 -0.0333  0.0193
  509loPI    C2 8130  13.739   1.716  10.649  0.2799  0.0256  0.2848
  509loPI    C3 8131  13.714   1.364  10.838  0.1942 -0.0448  0.1444
  509loPI   PO4 8132  13.930   1.518  10.221 -0.2071 -0.2717 -0.1065
  509loPI   GL1 8133  13.775   1.837  10.056 -0.0619  0.0212  0.1636
  509loPI   GL2 8134  13.570   1.973   9.943  0.1183  0.0038 -0.2256
  509loPI   C1A 8135  14.032   2.079   9.716  0.3897 -0.1187  0.0470
  509loPI   C2A 8136  14.107   2.008   9.204  0.0439  0.0957 -0.0143
  509loPI   C3A 8137  14.128   2.023   8.751  0.1882  0.3712 -0.0835
  509loPI   C4A 8138  14.197   2.011   8.302  0.0594 -0.1389 -0.1447
  509loPI   C5A 8139  14.217   2.054   7.856 -0.1753  0.1402  0.0336
  509loPI   C6A 8140  14.614   1.838   7.575 -0.2934  0.1012 -0.1646
  509loPI   C1B 8141  13.616   2.019   9.478 -0.0999 -0.0004 -0.0955
  509loPI   C2B 8142  13.587   1.824   9.021  0.2365 -0.0789  0.0134
  509loPI   C3B 8143  13.576   1.836   8.614 -0.0493 -0.3196  0.0446
  509loPI   C4B 8144  13.659   1.841   8.114 -0.1099 -0.0017 -0.0155
  510loPI    C1 8145  15.943  13.861  10.468  0.0500 -0.2433  0.0507
  510loPI    C2 8146  16.060  14.079  10.783  0.0441  0.0115 -0.1207
  510loPI    C3 8147  15.673  13.995  10.731  0.0430 -0.0153 -0.0699
  510loPI   PO4 8148  16.027  13.950  10.297 -0.0722 -0.1121  0.1260
  510loPI   GL1 8149  15.939  14.263  10.014  0.0832  0.1207 -0.0063
  510loPI   GL2 8150  16.141  14.563  10.032 -0.0343 -0.2457 -0.1920
  510loPI   C1A 8151  15.874  14.037   9.472  0.0928  0.2699  0.2446
  510loPI   C2A 8152  16.112  14.176   9.105 -0.0810  0.0852 -0.0496
  510loPI   C3A 8153  16.169  14.138   8.606 -0.1079  0.1979 -0.0369
  510loPI   C4A 8154  16.399  14.228   8.260 -0.2253  0.1812 -0.1928
  510loPI   C5A 8155  16.802  14.519   8.199  0.4114  0.0578  0.1230
  510loPI   C6A 8156  16.774  15.023   8.133  0.0518  0.0381  0.0265
  510loPI   C1B 8157  16.350  14.866   9.773 -0.0201  0.1979 -0.2892
  510loPI   C2B 8158  16.462  14.602   9.337  0.1469  0.2406  0.0315
  510loPI   C3B 8159  16.665  14.265   9.209 -0.1080 -0.2196 -0.1799
  510loPI   C4B 8160  16.662  14.171   8.770 -0.0587  0.0504 -0.0927
  511loPI    C1 8161   9.979   0.912  10.024  0.0435 -0.0212 -0.2473
  511loPI    C2 8162   9.666   1.066   9.828  0.0251  0.0752 -0.1432
  511loPI    C3 8163   9.734   1.170  10.208 -0.0818 -0.2981 -0.0179
  511loPI   PO4 8164  10.152   0.930   9.798 -0.2785 -0.2197 -0.0128
  511loPI   GL1 8165  10.107   0.626   9.510 -0.0605 -0.3368  0.2238
  511loPI   GL2 8166   9.911   0.827   9.376  0.2256 -0.3074  0.1116
  511loPI   C1A 8167  10.037   0.448   9.127 -0.1693 -0.1097  0.3751
  511loPI   C2A 8168   9.764   0.393   8.899  0.1630  0.2958 -0.1545
  511loPI   C3A 8169   9.691   0.252   8.510 -0.0014  0.3589  0.2946
  511loPI   C4A 8170   9.535   0.173   8.123  0.1684 -0.1969  0.0792
  511loPI   C5A 8171   9.149   0.062   7.821  0.0718  0.0041 -0.1615
  511loPI   C6A 8172   8.730   0.038   7.714 -0.1890 -0.0361  0.0806
  511loPI   C1B 8173   9.958   0.903   9.002 -0.4774 -0.1323 -0.1588
  511loPI   C2B 8174  10.288   0.971   8.757 -0.1936  0.1228  0.0461
  511loPI   C3B 8175  10.426   0.823   8.275 -0.0712  0.0420 -0.1319
  511loPI   C4B 8176  10.347   0.806   7.904  0.2688 -0.4233 -0.0006
  512loPI    C1 8177  14.522  15.763  10.718 -0.2770 -0.0387 -0.0782
  512loPI    C2 8178  14.561  16.063  10.457 -0.0195 -0.0038 -0.0020
  512loPI    C3 8179  14.509  16.141  10.846  0.1696 -0.0556  0.0350
  512loPI   PO4 8180  14.343  15.588  10.496  0.0021 -0.2601 -0.1922
  512loPI   GL1 8181  14.143  15.439  10.140 -0.0142  0.2091  0.0437
  512loPI   GL2 8182  14.362  15.143  10.203  0.0340  0.0552  0.2046
  512loPI   C1A 8183  14.254  15.557   9.685 -0.0116 -0.0825  0.0334
  512loPI   C2A 8184  14.402  15.553   9.305 -0.2395  0.1516 -0.1003
  512loPI   C3A 8185  14.486  15.534   8.924  0.0740  0.1531 -0.1633
  512loPI   C4A 8186  14.117  15.374   8.616 -0.3343 -0.0926  0.0827
  512loPI   C5A 8187  13.843  15.302   8.262  0.2442  0.1984  0.0622
  512loPI   C6A 8188  13.372  15.398   8.177  0.3965 -0.0597 -0.1165
  512loPI   C1B 8189  14.235  15.001   9.888  0.0590 -0.3101 -0.2502
  512loPI   C2B 8190  14.221  15.086   9.541 -0.0613 -0.0916 -0.0421
  512loPI   C3B 8191  14.326  15.094   9.106  0.0387 -0.1567 -0.0714
  512loPI   C4B 8192  14.458  14.970   8.682 -0.0729  0.1455 -0.2915
  513loPI    C1 8193  14.859   2.415  10.500 -0.1776 -0.0139  0.0378
  513loPI    C2 8194  14.734   2.530  10.862 -0.0471 -0.0290  0.0881
  513loPI    C3 8195  14.975   2.213  10.825 -0.1683 -0.1090 -0.0244
  513loPI   PO4 8196  15.036   2.616  10.392  0.2579  0.3073  0.1766
  513loPI   GL1 8197  15.097   2.944  10.097  0.0092  0.2524 -0.3063
  513loPI   GL2 8198  14.890   3.171  10.130  0.1139 -0.1813 -0.1375
  513loPI   C1A 8199  15.251   2.690   9.684 -0.3444 -0.2266 -0.3057
  513loPI   C2A 8200  15.297   2.688   9.262  0.5043  0.1389 -0.0420
  513loPI   C3A 8201  15.200   2.621   8.829 -0.0751 -0.1500  0.0569
  513loPI   C4A 8202  15.405   2.670   8.464 -0.0572 -0.0558 -0.1972
  513loPI   C5A 8203  15.655   2.522   8.177 -0.0501  0.1024  0.0059
  513loPI   C6A 8204  15.834   2.520   7.825  0.0647  0.1867 -0.0807
  513loPI   C1B 8205  14.946   3.132   9.617 -0.1171 -0.0422  0.1695
  513loPI   C2B 8206  14.925   3.070   9.179  0.1415 -0.1224  0.1047
  513loPI   C3B 8207  14.955   3.025   8.750  0.0452 -0.2532 -0.1600
  513loPI   C4B 8208  14.901   2.989   8.337 -0.2738 -0.0265  0.1174
  514loPI    C1 8209   8.204   8.465  10.308  0.0630 -0.0473 -0.0282
  514loPI    C2 8210   8.162   8.650  10.660 -0.2006 -0.0160 -0.0746
  514loPI    C3 8211   8.221   8.255  10.648 -0.2840 -0.0312  0.0026
  514loPI   PO4 8212   8.389   8.522  10.149 -0.1732  0.0530  0.1211
  514loPI   GL1 8213   8.511   8.655   9.729  0.0427  0.1251  0.0296
  514loPI   GL2 8214   8.757   8.446   9.829  0.1388 -0.2360  0.2636
  514loPI   C1A 8215   8.318   8.664   9.319  0.0535 -0.2776  0.4147
  514loPI   C2A 8216   8.037   8.454   9.055  0.3024 -0.2580  0.0361
  514loPI   C3A 8217   8.092   8.611   8.703 -0.2220  0.0313 -0.1228
  514loPI   C4A 8218   8.065   8.887   8.311 -0.2608 -0.0287 -0.1059
  514loPI   C5A 8219   7.717   9.077   8.158  0.0784 -0.2750  0.0335
  514loPI   C6A 8220   7.724   9.172   7.710  0.0388  0.3233 -0.0077
  514loPI   C1B 8221   8.794   8.330   9.445  0.1994  0.0576  0.0069
  514loPI   C2B 8222   8.690   8.349   9.033  0.0266  0.2009  0.0940
  514loPI   C3B 8223   8.845   8.501   8.651 -0.2276  0.1684 -0.1222
  514loPI   C4B 8224   8.955   8.390   8.267 -0.1914  0.1308  0.1075
  515loPI    C1 8225   4.976   1.507  10.581 -0.1381  0.0815 -0.1740
  515loPI    C2 8226   5.328   1.602  10.415 -0.0648 -0.0462 -0.0933
  515loPI    C3 8227   5.284   1.616  10.812 -0.2051  0.1450 -0.1142
  515loPI   PO4 8228   4.780   1.577  10.387  0.2961 -0.1186  0.1088
  515loPI   GL1 8229   4.874   1.475  10.014 -0.0763 -0.3301 -0.2561
  515loPI   GL2 8230   4.599   1.696   9.870 -0.2409 -0.1799 -0.4280
  515loPI   C1A 8231   5.023   1.364   9.623 -0.0901 -0.5468 -0.0589
  515loPI   C2A 8232   5.057   1.369   9.179  0.2810  0.1008 -0.2658
  515loPI   C3A 8233   5.173   1.411   8.772  0.1426  0.0827 -0.0914
  515loPI   C4A 8234   4.987   1.607   8.466  0.0715 -0.0505 -0.3392
  515loPI   C5A 8235   4.903   1.800   8.071  0.1222  0.2630 -0.3305
  515loPI   C6A 8236   4.758   1.866   7.675  0.0088  0.2044 -0.0883
  515loPI   C1B 8237   4.701   1.786   9.420  0.1268 -0.0883  0.1024
  515loPI   C2B 8238   4.791   1.851   8.925  0.4630  0.0275  0.2813
  515loPI   C3B 8239   4.866   2.104   8.513 -0.1411  0.1333 -0.0377
  515loPI   C4B 8240   4.672   2.308   8.137  0.3851 -0.0836  0.0817
  516loPI    C1 8241  11.497  10.463  10.808  0.0490 -0.0061 -0.1519
  516loPI    C2 8242  11.596  10.194  11.088  0.0543  0.1594  0.0074
  516loPI    C3 8243  11.867  10.460  10.961  0.0500  0.0893 -0.1517
  516loPI   PO4 8244  11.447  10.362  10.625 -0.2225  0.0703  0.2075
  516loPI   GL1 8245  11.292  10.272  10.198  0.1294  0.0833  0.1495
  516loPI   GL2 8246  11.560  10.124  10.177  0.2113  0.3014 -0.2785
  516loPI   C1A 8247  11.225  10.586   9.946 -0.0757 -0.0949 -0.3244
  516loPI   C2A 8248  11.394  10.871   9.521  0.3308 -0.0394 -0.0940
  516loPI   C3A 8249  11.614  11.058   9.132 -0.2957 -0.0708  0.3058
  516loPI   C4A 8250  11.861  11.206   8.903  0.2040 -0.0114 -0.5535
  516loPI   C5A 8251  11.997  11.398   8.596  0.1530  0.3704  0.0679
  516loPI   C6A 8252  12.188  11.655   8.281  0.2755 -0.0752 -0.1179
  516loPI   C1B 8253  11.419  10.168   9.716 -0.2011  0.2024 -0.2215
  516loPI   C2B 8254  11.468  10.051   9.174  0.0643 -0.3072 -0.1507
  516loPI   C3B 8255  11.614  10.100   8.762  0.0002 -0.2104 -0.0488
  516loPI   C4B 8256  11.656  10.411   8.420 -0.2214  0.0696 -0.1589
  517loPI    C1 8257   3.413   4.965  10.343 -0.2258  0.1349 -0.0653
  517loPI    C2 8258   3.097   4.968  10.588 -0.1990 -0.0492 -0.0276
  517loPI    C3 8259   3.402   5.218  10.653 -0.2414 -0.0203  0.0620
  517loPI   PO4 8260   3.453   4.713  10.239 -0.0685 -0.1297 -0.1945
  517loPI   GL1 8261   3.317   4.469   9.905  0.2488  0.0249  0.0518
  517loPI   GL2 8262   3.553   4.609   9.753  0.0390 -0.1536  0.0390
  517loPI   C1A 8263   3.057   4.609   9.568  0.2049 -0.0318 -0.0980
  517loPI   C2A 8264   3.005   4.584   9.101 -0.0552  0.3660  0.2254
  517loPI   C3A 8265   2.950   4.645   8.700  0.2650  0.0522 -0.1330
  517loPI   C4A 8266   3.079   4.743   8.271 -0.1597  0.1760  0.2968
  517loPI   C5A 8267   3.025   5.054   8.010 -0.1203  0.0752 -0.1387
  517loPI   C6A 8268   3.062   5.316   7.641 -0.0580 -0.0519  0.0617
  517loPI   C1B 8269   3.815   4.922   9.474  0.1694  0.2561 -0.1870
  517loPI   C2B 8270   3.858   5.056   9.066 -0.0060 -0.1349  0.0115
  517loPI   C3B 8271   3.900   4.941   8.630  0.1969 -0.0018 -0.0748
  517loPI   C4B 8272   3.660   5.020   8.240 -0.0820  0.0173 -0.1294
  518loPI    C1 8273  18.172  18.301   9.885  0.1559  0.1391  0.0706
  518loPI    C2 8274  18.197  18.277  10.283  0.0716  0.0233  0.0696
  518loPI    C3 8275  18.383  18.007  10.056  0.0208  0.0191  0.0328
  518loPI   PO4 8276  18.010  18.338   9.816  0.1501 -0.3332 -0.1093
  518loPI   GL1 8277  17.874  18.453   9.425  0.2434  0.3603 -0.2194
  518loPI   GL2 8278  17.686  18.658   9.680  0.3382 -0.0813  0.2892
  518loPI   C1A 8279  17.810  18.456   9.012  0.1546 -0.0844 -0.1481
  518loPI   C2A 8280  17.747  18.583   8.647  0.2265  0.0072  0.1515
  518loPI   C3A 8281  17.655  18.581   8.195  0.0384  0.3094  0.3134
  518loPI   C4A 8282  17.530  18.390   7.770  0.2559 -0.1439  0.1945
  518loPI   C5A 8283  17.443  18.643   7.356 -0.0839 -0.2636 -0.0729
  518loPI   C6A 8284  17.348  18.964   7.156 -0.3890  0.1827  0.3273
  518loPI   C1B 8285  17.475  18.877   9.347 -0.1671  0.0125  0.0603
  518loPI   C2B 8286  17.444  18.927   8.956  0.1624  0.3573 -0.0001
  518loPI   C3B 8287  17.484  18.976   8.571  0.1594  0.4599  0.1260
  518loPI   C4B 8288  17.476  19.163   8.084 -0.0410 -0.0910 -0.3835
  519loPI    C1 8289   0.912  11.229  10.674 -0.3155 -0.0410  0.2444
  519loPI    C2 8290   1.270  11.091  10.785 -0.1549  0.0178 -0.1810
  519loPI    C3 8291   0.976  11.122  11.054  0.1422 -0.0759  0.1635
  519loPI   PO4 8292   1.018  11.467  10.596 -0.0622 -0.2613  0.0603
  519loPI   GL1 8293   1.028  11.610  10.190 -0.1062  0.0281 -0.0505
  519loPI   GL2 8294   1.139  11.870  10.162  0.2674 -0.1872 -0.0776
  519loPI   C1A 8295   1.056  11.562   9.688 -0.2481 -0.0423  0.0077
  519loPI   C2A 8296   0.872  11.654   9.373 -0.1813  0.0718  0.0702
  519loPI   C3A 8297   0.824  11.734   9.027 -0.1437  0.0252 -0.1323
  519loPI   C4A 8298   0.910  11.789   8.611  0.0922  0.0093  0.0891
  519loPI   C5A 8299   0.825  11.964   8.216 -0.0789  0.0370 -0.1176
  519loPI   C6A 8300   0.724  12.342   8.008 -0.0660 -0.0088  0.1715
  519loPI   C1B 8301   1.226  12.124   9.776 -0.0683 -0.0552  0.1943
  519loPI   C2B 8302   1.408  12.411   9.427 -0.1929 -0.0705  0.2095
  519loPI   C3B 8303   1.371  12.518   9.103 -0.2107 -0.0074 -0.2423
  519loPI   C4B 8304   1.432  12.548   8.703 -0.1071 -0.0460 -0.2484
  520loPI    C1 8305   8.168  15.387  10.689 -0.0957  0.1821 -0.0109
  520loPI    C2 8306   7.934  15.711  10.689 -0.0832  0.1921 -0.1957
  520loPI    C3 8307   8.201  15.657  10.982 -0.0860  0.3483 -0.1634
  520loPI   PO4 8308   8.329  15.392  10.458  0.1660  0.1475 -0.0109
  520loPI   GL1 8309   8.159  15.284  10.019  0.2228 -0.2962  0.0961
  520loPI   GL2 8310   8.544  15.247   9.991 -0.0038 -0.0044 -0.0031
  520loPI   C1A 8311   8.108  15.548   9.750  0.1687 -0.2136 -0.4523
  520loPI   C2A 8312   8.194  15.552   9.344  0.1017  0.2474  0.1348
  520loPI   C3A 8313   8.018  15.310   8.975  0.3405  0.1833  0.1206
  520loPI   C4A 8314   8.005  15.128   8.546  0.1538  0.0147  0.1541
  520loPI   C5A 8315   8.245  15.197   8.214  0.0200 -0.2392  0.1543
  520loPI   C6A 8316   8.572  15.371   8.167 -0.0665 -0.2369 -0.2653
  520loPI   C1B 8317   8.669  15.374   9.588 -0.1403 -0.1295 -0.1933
  520loPI   C2B 8318   8.699  15.145   9.234 -0.4358 -0.1096 -0.3773
  520loPI   C3B 8319   8.776  15.193   8.748  0.1322  0.3080 -0.1196
  520loPI   C4B 8320   8.986  15.206   8.478 -0.2554  0.3405  0.0583
  521loPI    C1 8321   1.433   5.509  10.453  0.2320  0.5749 -0.0940
  521loPI    C2 8322   1.070   5.624  10.574  0.0397  0.0418 -0.1406
  521loPI    C3 8323   1.378   5.636  10.828 -0.1338 -0.0486  0.0768
  521loPI   PO4 8324   1.331   5.470  10.185 -0.0207 -0.2244 -0.1393
  521loPI   GL1 8325   1.480   5.261   9.831 -0.0928 -0.1857 -0.3116
  521loPI   GL2 8326   1.271   5.499   9.726  0.1991 -0.1570  0.0809
  521loPI   C1A 8327   1.597   5.012   9.355  0.0075  0.3361 -0.0594
  521loPI   C2A 8328   1.684   4.978   8.961  0.2514 -0.1736 -0.0969
  521loPI   C3A 8329   1.585   5.105   8.649 -0.0452 -0.1370  0.0142
  521loPI   C4A 8330   1.607   5.076   8.250  0.2294 -0.1403  0.1964
  521loPI   C5A 8331   1.761   4.778   7.889 -0.1487 -0.1656 -0.0404
  521loPI   C6A 8332   1.703   4.431   7.679 -0.2234 -0.3160 -0.1303
  521loPI   C1B 8333   1.283   5.455   9.222  0.1953  0.0096 -0.2779
  521loPI   C2B 8334   1.301   5.506   8.742 -0.1370 -0.1341 -0.1074
  521loPI   C3B 8335   1.255   5.515   8.261 -0.2274  0.1572 -0.0214
  521loPI   C4B 8336   1.366   5.317   7.817 -0.0832  0.1662 -0.1011
  522loPI    C1 8337   2.657  13.710  10.683  0.1734 -0.0879  0.1550
  522loPI    C2 8338   2.876  14.028  10.787  0.2021 -0.0842  0.0845
  522loPI    C3 8339   2.526  13.958  10.968  0.1065  0.0917 -0.0296
  522loPI   PO4 8340   2.815  13.533  10.658  0.0079  0.1494  0.0608
  522loPI   GL1 8341   2.941  13.325  10.250 -0.1653 -0.0244  0.2670
  522loPI   GL2 8342   3.125  13.179  10.137 -0.0112 -0.0502  0.1458
  522loPI   C1A 8343   2.648  13.235   9.893 -0.1647  0.1370 -0.1207
  522loPI   C2A 8344   2.676  13.343   9.434 -0.0353  0.1182  0.2384
  522loPI   C3A 8345   2.652  13.310   9.013  0.3099 -0.3289 -0.2874
  522loPI   C4A 8346   2.580  13.279   8.640 -0.0951 -0.2091  0.0237
  522loPI   C5A 8347   2.638  13.217   8.141  0.0478  0.2220  0.0103
  522loPI   C6A 8348   2.700  12.761   8.252  0.1856  0.1264  0.0527
  522loPI   C1B 8349   3.115  13.134   9.681 -0.2537 -0.3119  0.0097
  522loPI   C2B 8350   3.049  13.038   9.208 -0.0515  0.0435  0.0979
  522loPI   C3B 8351   3.160  12.984   8.745 -0.0847  0.0853  0.0927
  522loPI   C4B 8352   3.172  13.036   8.277  0.2721 -0.0838  0.2441
  523loPI    C1 8353  13.683   4.272  10.454 -0.0085  0.0821 -0.1061
  523loPI    C2 8354  13.959   4.499  10.634 -0.1284  0.1666 -0.0278
  523loPI    C3 8355  13.747   4.236  10.847  0.1281 -0.1430 -0.1470
  523loPI   PO4 8356  13.792   4.203  10.207  0.0433 -0.1979  0.1330
  523loPI   GL1 8357  14.048   4.024   9.937 -0.2556  0.0494  0.3954
  523loPI   GL2 8358  14.015   4.306   9.679  0.2027  0.0895 -0.0961
  523loPI   C1A 8359  14.247   3.887   9.537  0.1130 -0.0410 -0.0001
  523loPI   C2A 8360  14.325   3.848   9.051  0.2494 -0.0644  0.1175
  523loPI   C3A 8361  14.288   3.839   8.675  0.3768 -0.2249  0.1645
  523loPI   C4A 8362  14.287   3.834   8.192 -0.0329  0.3192 -0.0792
  523loPI   C5A 8363  14.296   3.670   7.745 -0.1549 -0.0024 -0.0306
  523loPI   C6A 8364  14.588   3.541   7.358 -0.0011  0.2158  0.4294
  523loPI   C1B 8365  13.946   4.189   9.200  0.2977  0.0521  0.0800
  523loPI   C2B 8366  13.969   4.329   8.800 -0.1078  0.0550  0.0908
  523loPI   C3B 8367  13.978   4.270   8.418 -0.0888 -0.0632  0.0429
  523loPI   C4B 8368  13.969   4.149   7.946 -0.0654 -0.2794 -0.1147
  524loPI    C1 8369   3.739  17.050  10.713  0.0883 -0.1321  0.0936
  524loPI    C2 8370   3.964  16.981  11.036 -0.0951  0.1183  0.2797
  524loPI    C3 8371   3.781  17.334  10.993 -0.2289  0.0165 -0.0048
  524loPI   PO4 8372   3.548  16.777  10.680  0.2402 -0.1429  0.1068
  524loPI   GL1 8373   3.341  16.649  10.302 -0.1161 -0.0408 -0.2371
  524loPI   GL2 8374   3.694  16.579  10.228  0.0749  0.1795 -0.0512
  524loPI   C1A 8375   3.373  16.889   9.924 -0.2588 -0.2345 -0.0001
  524loPI   C2A 8376   3.387  17.004   9.468  0.0050 -0.2050  0.5462
  524loPI   C3A 8377   3.437  16.995   9.072 -0.2650 -0.1837 -0.0906
  524loPI   C4A 8378   3.322  17.039   8.631  0.0092  0.3153 -0.3002
  524loPI   C5A 8379   3.512  17.002   8.176  0.0298  0.0814  0.1348
  524loPI   C6A 8380   3.341  17.301   7.786 -0.0721 -0.0852  0.0781
  524loPI   C1B 8381   3.514  16.446   9.869 -0.1173 -0.0037 -0.1294
  524loPI   C2B 8382   3.322  16.530   9.405  0.1781  0.5217  0.1165
  524loPI   C3B 8383   3.402  16.444   8.959 -0.0757 -0.3518  0.2053
  524loPI   C4B 8384   3.454  16.570   8.542  0.1101 -0.4887 -0.0329
  525loPI    C1 8385  17.440   7.177  10.195  0.0196  0.3468 -0.0098
  525loPI    C2 8386  17.258   7.408  10.466  0.0589  0.2930  0.0626
  525loPI    C3 8387  17.160   7.022  10.435 -0.1381  0.3598 -0.1827
  525loPI   PO4 8388  17.468   7.322   9.991  0.1319 -0.0619  0.0094
  525loPI   GL1 8389  17.322   7.253   9.640  0.2944  0.0739  0.0197
  525loPI   GL2 8390  17.581   7.313   9.482  0.0259  0.1534  0.0342
  525loPI   C1A 8391  17.352   6.918   9.393  0.3875  0.3095 -0.0574
  525loPI   C2A 8392  17.297   6.730   9.001 -0.2972  0.2948 -0.2607
  525loPI   C3A 8393  17.231   6.641   8.527  0.2471  0.0648  0.3367
  525loPI   C4A 8394  17.276   6.623   8.096 -0.0439  0.0863  0.4121
  525loPI   C5A 8395  17.282   6.696   7.556 -0.1883  0.0722 -0.1325
  525loPI   C6A 8396  17.087   6.887   7.179 -0.1920 -0.0543 -0.3684
  525loPI   C1B 8397  17.613   7.209   9.099  0.2716 -0.0766  0.0087
  525loPI   C2B 8398  17.588   6.970   8.674  0.1683 -0.1807 -0.1418
  525loPI   C3B 8399  17.578   7.098   8.285 -0.1037 -0.0495  0.4629
  525loPI   C4B 8400  17.482   7.013   7.878 -0.0069  0.0941 -0.1151
  526loPI    C1 8401  13.290  15.866  11.117 -0.0039  0.1101 -0.0016
  526loPI    C2 8402  12.990  15.713  10.902  0.2312 -0.1838 -0.1288
  526loPI    C3 8403  13.094  15.543  11.249  0.1078  0.0534  0.0274
  526loPI   PO4 8404  13.562  15.885  10.931  0.0197 -0.1945  0.2193
  526loPI   GL1 8405  13.470  15.944  10.421 -0.2705 -0.0714 -0.0183
  526loPI   GL2 8406  13.332  15.684  10.328 -0.0073  0.0150  0.0466
  526loPI   C1A 8407  13.632  16.031   9.954 -0.3474  0.1400 -0.0560
  526loPI   C2A 8408  13.907  15.968   9.623  0.2181 -0.1718  0.1554
  526loPI   C3A 8409  14.020  15.881   9.159 -0.0537  0.0666  0.0374
  526loPI   C4A 8410  14.088  15.890   8.686 -0.2749  0.1616  0.0545
  526loPI   C5A 8411  14.150  15.752   8.247 -0.1846  0.0041 -0.1218
  526loPI   C6A 8412  13.949  15.667   7.796 -0.0266 -0.4260  0.2559
  526loPI   C1B 8413  13.500  15.512  10.114 -0.1357 -0.3458  0.0802
  526loPI   C2B 8414  13.717  15.394   9.801  0.2704 -0.1536 -0.0212
  526loPI   C3B 8415  13.810  15.478   9.479  0.0228 -0.1279  0.1899
  526loPI   C4B 8416  13.925  15.396   9.038  0.2272  0.1863 -0.4192
  527loPI    C1 8417  16.539  17.238  10.588  0.0364 -0.0275  0.0467
  527loPI    C2 8418  16.757  16.950  10.416 -0.0100 -0.0718  0.0615
  527loPI    C3 8419  16.516  16.862  10.723 -0.2285 -0.0688 -0.1069
  527loPI   PO4 8420  16.306  17.360  10.425  0.0012 -0.1856  0.3259
  527loPI   GL1 8421  16.281  17.073  10.104 -0.0721 -0.0521  0.2382
  527loPI   GL2 8422  16.035  17.278   9.975  0.0971 -0.0400  0.4152
  527loPI   C1A 8423  16.432  16.799   9.780 -0.0806 -0.0946 -0.0709
  527loPI   C2A 8424  16.587  16.428   9.570 -0.3843  0.1905 -0.1923
  527loPI   C3A 8425  16.766  16.441   9.127  0.1077 -0.0742  0.0076
  527loPI   C4A 8426  16.636  16.356   8.714  0.3557  0.2149 -0.0535
  527loPI   C5A 8427  16.561  16.277   8.312 -0.3309 -0.0648 -0.1803
  527loPI   C6A 8428  16.642  16.102   7.888  0.1463 -0.5525 -0.2814
  527loPI   C1B 8429  16.018  17.135   9.485 -0.1134  0.1923  0.0695
  527loPI   C2B 8430  16.001  17.097   9.119 -0.0266 -0.0716  0.0353
  527loPI   C3B 8431  15.862  17.195   8.809  0.0629  0.1522  0.0179
  527loPI   C4B 8432  15.934  17.101   8.424 -0.1887 -0.4444  0.0748
  528loPI    C1 8433  10.601   9.994  10.708 -0.0736 -0.1243 -0.0487
  528loPI    C2 8434  10.669  10.286  10.973 -0.1062 -0.1326 -0.0310
  528loPI    C3 8435  10.951  10.188  10.706 -0.1079 -0.0622 -0.0591
  528loPI   PO4 8436  10.339  10.027  10.637  0.1421  0.0291 -0.0718
  528loPI   GL1 8437  10.333  10.096  10.156 -0.1239 -0.1765 -0.0397
  528loPI   GL2 8438  10.719  10.147  10.158  0.4869  0.1106 -0.1245
  528loPI   C1A 8439  10.341  10.309   9.805 -0.0336 -0.1921 -0.0111
  528loPI   C2A 8440  10.161  10.396   9.438 -0.2759  0.0396 -0.0854
  528loPI   C3A 8441  10.147  10.557   9.006  0.2965 -0.0283  0.1536
  528loPI   C4A 8442  10.379  10.749   8.729  0.1884  0.2943 -0.0472
  528loPI   C5A 8443  10.448  11.101   8.568  0.0908 -0.3469 -0.1630
  528loPI   C6A 8444  10.833  11.260   8.506  0.1758 -0.0894  0.0068
  528loPI   C1B 8445  10.921  10.232   9.756  0.3896 -0.1767 -0.1931
  528loPI   C2B 8446  11.088  10.468   9.456 -0.2130  0.0134  0.1340
  528loPI   C3B 8447  11.256  10.494   9.068 -0.1728 -0.1443 -0.1404
  528loPI   C4B 8448  11.262  10.469   8.651  0.1229  0.1231  0.2051
  529loPI    C1 8449  11.007   9.726  11.204  0.0117  0.0680 -0.0351
  529loPI    C2 8450  10.902  10.041  11.428 -0.0135 -0.1213  0.2237
  529loPI    C3 8451  11.273   9.893  11.451  0.0331 -0.0399  0.0155
  529loPI   PO4 8452  11.040   9.768  10.947 -0.1175  0.2656 -0.1403
  529loPI   GL1 8453  10.967   9.592  10.578  0.0236 -0.3396 -0.1829
  529loPI   GL2 8454  10.922   9.224  10.476 -0.1963  0.2869  0.0147
  529loPI   C1A 8455  11.094   9.777  10.152  0.0635 -0.0884  0.1054
  529loPI   C2A 8456  11.080   9.747   9.722  0.1722 -0.0328 -0.1721
  529loPI   C3A 8457  11.010   9.906   9.381 -0.1413  0.3202 -0.0014
  529loPI   C4A 8458  10.973  10.033   9.026 -0.1503 -0.0590  0.2424
  529loPI   C5A 8459  11.049  10.042   8.596 -0.1570 -0.0106  0.1873
  529loPI   C6A 8460  11.001   9.796   8.274  0.0095 -0.0571  0.1650
  529loPI   C1B 8461  10.809   9.250   9.976 -0.0428  0.0459  0.0124
  529loPI   C2B 8462  10.787   9.319   9.567 -0.0155 -0.1059  0.2975
  529loPI   C3B 8463  10.778   9.463   9.176  0.1259 -0.0563 -0.0649
  529loPI   C4B 8464  10.894   9.613   8.759 -0.1305  0.0726  0.2655
  530loPI    C1 8465   5.034   3.820  10.469  0.1077  0.2338 -0.0118
  530loPI    C2 8466   4.767   3.563  10.620  0.2155  0.1683  0.0690
  530loPI    C3 8467   4.657   3.938  10.533  0.0340  0.0701 -0.1363
  530loPI   PO4 8468   5.095   3.700  10.202  0.2280 -0.1864  0.0449
  530loPI   GL1 8469   5.024   3.584   9.789 -0.2927  0.0207 -0.0177
  530loPI   GL2 8470   5.074   3.887   9.689 -0.1941  0.2323  0.0376
  530loPI   C1A 8471   4.924   3.595   9.327 -0.0256  0.0247  0.2550
  530loPI   C2A 8472   4.818   3.909   9.078  0.1305  0.1347  0.0994
  530loPI   C3A 8473   4.551   4.060   8.801 -0.3770  0.0240  0.1614
  530loPI   C4A 8474   4.295   4.373   8.561  0.1034  0.0802  0.4030
  530loPI   C5A 8475   4.166   4.462   8.158  0.0692  0.0211  0.1609
  530loPI   C6A 8476   4.062   4.861   7.904  0.4265  0.1519 -0.0947
  530loPI   C1B 8477   5.068   4.291   9.350 -0.3713  0.1078  0.0484
  530loPI   C2B 8478   5.008   4.440   8.881 -0.2913  0.1433 -0.0906
  530loPI   C3B 8479   4.803   4.492   8.514 -0.2370  0.0117  0.2252
  530loPI   C4B 8480   4.711   4.151   8.238  0.1873 -0.0147  0.2192
  531loPI    C1 8481   9.580   7.667  10.795 -0.0733 -0.0938  0.3200
  531loPI    C2 8482   9.556   7.355  10.545 -0.1220  0.0650  0.1242
  531loPI    C3 8483   9.310   7.379  10.860 -0.3097  0.0447 -0.0189
  531loPI   PO4 8484   9.653   7.924  10.703 -0.0298 -0.1722  0.1182
  531loPI   GL1 8485   9.598   8.178  10.320 -0.1584 -0.1147  0.1545
  531loPI   GL2 8486   9.693   7.822  10.221  0.1034 -0.0528  0.4978
  531loPI   C1A 8487   9.782   8.258   9.795  0.1086  0.0358 -0.2526
  531loPI   C2A 8488   9.721   8.395   9.288  0.0806  0.2554 -0.1034
  531loPI   C3A 8489   9.736   8.405   8.850 -0.0374  0.2316  0.0803
  531loPI   C4A 8490   9.793   8.601   8.411 -0.1903 -0.4877  0.3562
  531loPI   C5A 8491   9.865   8.565   7.991  0.1471  0.1109  0.2544
  531loPI   C6A 8492   9.875   8.526   7.577  0.2515  0.1384  0.1860
  531loPI   C1B 8493   9.987   7.870   9.997  0.3360 -0.3199  0.1757
  531loPI   C2B 8494  10.121   7.963   9.513 -0.0317 -0.1675 -0.0215
  531loPI   C3B 8495  10.110   7.864   9.098  0.1153  0.0144 -0.0992
  531loPI   C4B 8496  10.126   8.021   8.804 -0.0260 -0.3823  0.0822
  532loPI    C1 8497  15.694   2.351  10.970  0.0761  0.0615 -0.1276
  532loPI    C2 8498  15.550   2.553  11.284 -0.0255  0.0474 -0.1647
  532loPI    C3 8499  15.368   2.219  11.162  0.1696 -0.0936 -0.0741
  532loPI   PO4 8500  15.726   2.572  10.708  0.1968  0.5011  0.0310
  532loPI   GL1 8501  15.900   2.536  10.303 -0.1373 -0.4509  0.3536
  532loPI   GL2 8502  15.880   2.270  10.178  0.0671 -0.0105 -0.0942
  532loPI   C1A 8503  15.698   2.843   9.929  0.2939  0.2342 -0.1191
  532loPI   C2A 8504  15.756   2.775   9.486 -0.1282 -0.2043 -0.0403
  532loPI   C3A 8505  15.731   2.793   9.102  0.3183 -0.2820 -0.0769
  532loPI   C4A 8506  15.880   2.631   8.636  0.0162 -0.1762 -0.3607
  532loPI   C5A 8507  16.076   2.381   8.258  0.2778  0.3163  0.1190
  532loPI   C6A 8508  15.876   2.063   7.998  0.1024  0.2047  0.0463
  532loPI   C1B 8509  15.630   2.319   9.790  0.1522  0.0972 -0.2966
  532loPI   C2B 8510  15.670   2.245   9.417  0.4324 -0.0217  0.2648
  532loPI   C3B 8511  15.596   2.305   8.971  0.2337  0.1375 -0.3310
  532loPI   C4B 8512  15.671   2.177   8.542 -0.0341  0.3341 -0.0251
  533loPI    C1 8513  14.519   8.433  10.611  0.0658  0.2045  0.0312
  533loPI    C2 8514  14.378   8.566  10.961  0.1413  0.1014  0.1015
  533loPI    C3 8515  14.639   8.263  10.953 -0.2802 -0.2689 -0.0724
  533loPI   PO4 8516  14.270   8.479  10.456 -0.0450 -0.3303 -0.0721
  533loPI   GL1 8517  14.287   8.449  10.058 -0.3999  0.1827  0.0102
  533loPI   GL2 8518  14.465   8.484   9.844  0.0871 -0.1389 -0.0713
  533loPI   C1A 8519  14.184   8.056   9.701  0.0276  0.0021 -0.0720
  533loPI   C2A 8520  14.131   8.059   9.263  0.0850 -0.1520  0.1706
  533loPI   C3A 8521  14.285   8.059   9.001  0.2155  0.0477  0.1831
  533loPI   C4A 8522  14.237   7.916   8.619 -0.0590 -0.0605 -0.2147
  533loPI   C5A 8523  14.321   7.953   8.243  0.1800 -0.2438  0.0212
  533loPI   C6A 8524  14.201   8.099   7.901 -0.1941 -0.1013  0.0805
  533loPI   C1B 8525  14.391   8.469   9.323 -0.2753  0.0351 -0.2623
  533loPI   C2B 8526  14.573   8.593   8.914  0.0032 -0.0242 -0.3146
  533loPI   C3B 8527  14.354   8.463   8.537  0.0053 -0.1059  0.1861
  533loPI   C4B 8528  14.438   8.562   7.973  0.2855 -0.2044 -0.1101
  534loPI    C1 8529  12.388  14.231  11.143  0.1261 -0.0633  0.0703
  534loPI    C2 8530  12.114  13.997  10.969 -0.1418  0.2597  0.0481
  534loPI    C3 8531  12.034  14.171  11.320  0.1550  0.1138  0.1908
  534loPI   PO4 8532  12.487  14.397  10.864 -0.0733  0.0128  0.1751
  534loPI   GL1 8533  12.651  14.386  10.532  0.0352  0.2764  0.3429
  534loPI   GL2 8534  12.321  14.333  10.355 -0.1345  0.0325 -0.4476
  534loPI   C1A 8535  12.768  14.169  10.233 -0.0500  0.0801 -0.1508
  534loPI   C2A 8536  13.003  14.162   9.904  0.0654 -0.0600  0.2017
  534loPI   C3A 8537  13.119  14.233   9.443 -0.0447  0.1086  0.0477
  534loPI   C4A 8538  13.246  14.258   9.010 -0.3773 -0.3766 -0.0128
  534loPI   C5A 8539  13.004  14.176   8.567  0.1268  0.0529  0.0953
  534loPI   C6A 8540  12.974  14.097   8.174  0.1201  0.0459 -0.0619
  534loPI   C1B 8541  12.466  14.471  10.010  0.0762  0.0361 -0.0274
  534loPI   C2B 8542  12.673  14.492   9.607 -0.0377 -0.0283  0.3348
  534loPI   C3B 8543  12.805  14.629   9.210  0.0369  0.3462 -0.1355
  534loPI   C4B 8544  12.936  14.656   8.773  0.0299 -0.1363  0.0907
  535loPI    C1 8545  14.135  15.132  10.655  0.1558 -0.2104  0.0949
  535loPI    C2 8546  14.288  14.902  10.944  0.2474 -0.2217  0.0378
  535loPI    C3 8547  14.350  15.297  10.949  0.2558 -0.2230  0.0291
  535loPI   PO4 8548  13.894  14.972  10.598  0.1404  0.0825  0.0070
  535loPI   GL1 8549  13.889  14.909  10.199 -0.1491 -0.0671 -0.1006
  535loPI   GL2 8550  13.575  15.041  10.132 -0.1756 -0.1142  0.0913
  535loPI   C1A 8551  13.992  14.570   9.884  0.1754  0.0324 -0.2796
  535loPI   C2A 8552  14.148  14.603   9.541  0.2655  0.0236 -0.1249
  535loPI   C3A 8553  14.132  14.475   9.078 -0.2278 -0.1447 -0.1868
  535loPI   C4A 8554  14.288  14.424   8.685  0.1183  0.2498  0.2394
  535loPI   C5A 8555  14.384  14.473   8.276 -0.2023 -0.0756  0.3265
  535loPI   C6A 8556  14.593  14.496   7.946  0.0213  0.1667 -0.2504
  535loPI   C1B 8557  13.727  14.905   9.658 -0.2768 -0.1131 -0.3284
  535loPI   C2B 8558  13.799  14.903   9.253  0.0558 -0.2146 -0.3292
  535loPI   C3B 8559  13.950  14.834   8.798  0.1714  0.1519  0.0501
  535loPI   C4B 8560  14.058  14.900   8.348  0.0310  0.2717 -0.0801
  536loPI    C1 8561   0.940   5.188  10.627 -0.0662  0.1597  0.0245
  536loPI    C2 8562   1.084   4.825  10.718 -0.0951  0.0410 -0.3866
  536loPI    C3 8563   1.324   5.145  10.733  0.0032 -0.0364 -0.2939
  536loPI   PO4 8564   0.855   5.193  10.296 -0.0136 -0.0534 -0.0317
  536loPI   GL1 8565   0.795   5.257   9.867 -0.0357  0.2982 -0.1537
  536loPI   GL2 8566   0.720   4.978   9.764 -0.0692  0.1321  0.1291
  536loPI   C1A 8567   0.784   5.457   9.448  0.0187 -0.3622  0.2864
  536loPI   C2A 8568   0.807   5.517   9.046 -0.3505 -0.1219  0.3114
  536loPI   C3A 8569   0.822   5.450   8.636  0.2595 -0.0708  0.2033
  536loPI   C4A 8570   0.687   5.405   8.212  0.1413  0.0819 -0.1573
  536loPI   C5A 8571   0.907   5.611   7.927 -0.2045 -0.0129 -0.0491
  536loPI   C6A 8572   1.245   5.884   7.888  0.2466 -0.1099 -0.0299
  536loPI   C1B 8573   0.568   4.785   9.359  0.1818  0.1843  0.0361
  536loPI   C2B 8574   0.557   4.961   8.959  0.0319 -0.4880 -0.0616
  536loPI   C3B 8575   0.600   4.971   8.527 -0.1032  0.3577  0.3351
  536loPI   C4B 8576   0.503   4.840   8.122 -0.1008 -0.1185  0.3006
  537loPI    C1 8577   3.132  18.256  10.325  0.1340 -0.2739 -0.1079
  537loPI    C2 8578   3.528  18.200  10.307  0.1417 -0.2158 -0.1247
  537loPI    C3 8579   3.350  18.264  10.660  0.1857  0.0284 -0.1452
  537loPI   PO4 8580   2.986  18.080  10.164 -0.1150  0.2398  0.1487
  537loPI   GL1 8581   2.831  17.721   9.927  0.1418  0.0715 -0.2944
  537loPI   GL2 8582   2.583  17.704  10.014 -0.1814  0.1362 -0.0910
  537loPI   C1A 8583   2.991  17.770   9.553  0.0156  0.0016  0.0816
  537loPI   C2A 8584   3.047  17.753   9.098  0.1164  0.1136  0.0341
  537loPI   C3A 8585   2.978  17.842   8.619  0.2544  0.1188  0.0319
  537loPI   C4A 8586   3.161  17.918   8.184 -0.2888  0.0311 -0.1299
  537loPI   C5A 8587   3.071  18.254   7.916  0.0339 -0.0092 -0.3118
  537loPI   C6A 8588   2.654  18.388   7.869 -0.1799  0.2072  0.0723
  537loPI   C1B 8589   2.537  17.498   9.561 -0.1896 -0.0456  0.0558
  537loPI   C2B 8590   2.568  17.521   9.050 -0.1141 -0.0985  0.4208
  537loPI   C3B 8591   2.493  17.559   8.618 -0.1037  0.1463 -0.2289
  537loPI   C4B 8592   2.527  17.590   8.172  0.1735  0.2185 -0.0369
  538loPI    C1 8593   3.755   1.542  10.476  0.3798 -0.3114  0.2476
  538loPI    C2 8594   3.953   1.509  10.822  0.0134 -0.0277  0.4919
  538loPI    C3 8595   3.661   1.780  10.783  0.1903  0.0910 -0.1115
  538loPI   PO4 8596   3.713   1.347  10.374 -0.1183 -0.0878  0.0874
  538loPI   GL1 8597   3.817   1.265   9.948 -0.1381  0.1404 -0.2625
  538loPI   GL2 8598   4.156   1.342   9.802 -0.3134  0.0219 -0.0134
  538loPI   C1A 8599   3.721   1.045   9.633  0.1434 -0.0595  0.1418
  538loPI   C2A 8600   3.592   1.231   9.232 -0.2197  0.2378 -0.0657
  538loPI   C3A 8601   3.429   1.293   8.721  0.0898  0.0367 -0.0218
  538loPI   C4A 8602   3.313   1.331   8.304 -0.1130 -0.0556  0.4092
  538loPI   C5A 8603   3.189   1.085   7.945  0.1161 -0.0347 -0.2972
  538loPI   C6A 8604   3.043   0.735   7.738  0.0399  0.2040 -0.2839
  538loPI   C1B 8605   4.108   1.348   9.372  0.1736 -0.0971 -0.3329
  538loPI   C2B 8606   4.000   1.295   8.846  0.1850  0.0042 -0.1758
  538loPI   C3B 8607   3.888   1.375   8.390 -0.1926  0.0987 -0.1336
  538loPI   C4B 8608   3.820   1.312   7.876 -0.1395 -0.0504  0.0392
  539loPI    C1 8609  17.660   3.648  10.381  0.1534  0.0635 -0.4109
  539loPI    C2 8610  17.326   3.839  10.272 -0.1214 -0.1885 -0.0350
  539loPI    C3 8611  17.425   3.814  10.659  0.3591 -0.0830 -0.1442
  539loPI   PO4 8612  17.673   3.445  10.257  0.0288  0.3408 -0.0242
  539loPI   GL1 8613  17.964   3.545   9.833 -0.2541 -0.1373  0.0201
  539loPI   GL2 8614  18.218   3.859   9.848 -0.2582  0.2894  0.0443
  539loPI   C1A 8615  17.973   3.390   9.372  0.2990  0.0743 -0.1891
  539loPI   C2A 8616  17.921   3.378   8.904 -0.1100 -0.0181  0.1844
  539loPI   C3A 8617  17.905   3.449   8.552  0.0548  0.0954 -0.1021
  539loPI   C4A 8618  18.005   3.447   8.156 -0.1027 -0.1552 -0.0469
  539loPI   C5A 8619  18.137   3.157   7.906 -0.1632 -0.0486  0.1832
  539loPI   C6A 8620  18.135   2.723   7.744 -0.3047  0.1525 -0.0220
  539loPI   C1B 8621  18.224   3.795   9.480  0.5690  0.0922 -0.0162
  539loPI   C2B 8622  18.211   3.813   9.075  0.0093  0.0861 -0.0631
  539loPI   C3B 8623  18.113   3.895   8.688 -0.0478  0.1156  0.0087
  539loPI   C4B 8624  18.130   3.891   8.280 -0.2462 -0.1095  0.0080
  540loPI    C1 8625  10.286   2.908  10.167  0.0206  0.1841  0.0303
  540loPI    C2 8626  10.669   2.926  10.054 -0.0375  0.3134 -0.1511
  540loPI    C3 8627  10.480   3.258  10.172 -0.0646  0.2316  0.0384
  540loPI   PO4 8628  10.156   2.714  10.043  0.1302 -0.0752 -0.0776
  540loPI   GL1 8629  10.096   2.594   9.687 -0.1713  0.4247  0.0693
  540loPI   GL2 8630   9.848   2.404   9.489 -0.1215  0.0089 -0.0673
  540loPI   C1A 8631  10.213   2.698   9.273 -0.0983  0.1163  0.0843
  540loPI   C2A 8632  10.222   2.919   8.861  0.1518  0.3345 -0.1027
  540loPI   C3A 8633   9.948   3.079   8.546  0.4193  0.0959 -0.3847
  540loPI   C4A 8634   9.903   3.083   8.082 -0.1016  0.1523  0.1049
  540loPI   C5A 8635   9.592   2.982   7.817  0.0800  0.1132 -0.1772
  540loPI   C6A 8636   9.190   2.843   7.651  0.0103 -0.0072 -0.1092
  540loPI   C1B 8637   9.596   2.423   9.142  0.0048  0.0173 -0.2173
  540loPI   C2B 8638   9.536   2.219   8.728  0.3399  0.0876 -0.0423
  540loPI   C3B 8639   9.622   2.052   8.398 -0.0207 -0.0801  0.0672
  540loPI   C4B 8640   9.439   2.020   8.000 -0.0080  0.1321  0.1306
  541loPI    C1 8641  17.288  17.101  10.582  0.1661  0.2235 -0.0375
  541loPI    C2 8642  17.519  17.164  10.902  0.2984  0.1072 -0.1090
  541loPI    C3 8643  17.525  16.809  10.718  0.0122  0.0805 -0.0722
  541loPI   PO4 8644  17.053  17.298  10.623  0.3369  0.1117 -0.3540
  541loPI   GL1 8645  16.919  17.474  10.267  0.0345  0.2690  0.0296
  541loPI   GL2 8646  17.040  17.595   9.938  0.0609  0.3900  0.1978
  541loPI   C1A 8647  16.756  17.165   9.934  0.2202 -0.1543 -0.0918
  541loPI   C2A 8648  16.453  17.302   9.632  0.0519  0.0516 -0.0044
  541loPI   C3A 8649  16.431  17.335   9.157  0.0108  0.0101  0.1023
  541loPI   C4A 8650  16.414  17.293   8.783  0.1722  0.2848 -0.0814
  541loPI   C5A 8651  16.523  17.290   8.416 -0.1047  0.1934  0.2039
  541loPI   C6A 8652  16.450  17.370   8.004  0.3361 -0.1233 -0.1644
  541loPI   C1B 8653  16.794  17.679   9.541 -0.1046 -0.0868 -0.1404
  541loPI   C2B 8654  16.662  17.825   9.072  0.0035 -0.0208 -0.1765
  541loPI   C3B 8655  16.579  17.802   8.630  0.0674  0.1467 -0.1729
  541loPI   C4B 8656  16.698  17.916   8.206 -0.0311  0.1701 -0.1987
  542loPI    C1 8657   5.694  13.366  10.610  0.0283  0.1531  0.2562
  542loPI    C2 8658   6.084  13.328  10.690  0.0335  0.0028  0.1647
  542loPI    C3 8659   5.821  13.366  10.989  0.0976 -0.1029  0.2353
  542loPI   PO4 8660   5.672  13.416  10.271  0.0230 -0.0418 -0.4946
  542loPI   GL1 8661   5.315  13.498  10.059  0.2432  0.0820 -0.0166
  542loPI   GL2 8662   5.482  13.430   9.807  0.0306  0.1085 -0.1820
  542loPI   C1A 8663   5.210  13.871   9.729  0.1694  0.0151  0.0219
  542loPI   C2A 8664   5.311  13.933   9.304  0.1321  0.1452  0.1229
  542loPI   C3A 8665   5.319  13.934   8.864 -0.0835 -0.0822 -0.2111
  542loPI   C4A 8666   5.413  13.988   8.455 -0.0093  0.1532  0.0516
  542loPI   C5A 8667   5.317  13.905   8.053  0.0212  0.1807  0.0080
  542loPI   C6A 8668   5.166  13.797   7.647 -0.0603 -0.0011 -0.0782
  542loPI   C1B 8669   5.356  13.446   9.419 -0.1094  0.1841  0.1779
  542loPI   C2B 8670   5.382  13.399   8.904  0.2060 -0.0002  0.0185
  542loPI   C3B 8671   5.460  13.432   8.424  0.0045 -0.1772 -0.2740
  542loPI   C4B 8672   5.355  13.424   7.966 -0.0318  0.2146 -0.1260
  543loPI    C1 8673   4.226   8.558  10.085 -0.1223 -0.0284 -0.1580
  543loPI    C2 8674   3.936   8.526  10.359  0.2114  0.2331  0.2367
  543loPI    C3 8675   3.961   8.854  10.131 -0.1650 -0.0538 -0.2375
  543loPI   PO4 8676   4.546   8.597  10.100  0.0899 -0.1632 -0.1886
  543loPI   GL1 8677   4.768   8.680   9.752  0.2518 -0.0291  0.1908
  543loPI   GL2 8678   4.937   8.415   9.590  0.2149  0.0689 -0.2541
  543loPI   C1A 8679   4.456   8.763   9.351  0.2471  0.2372  0.0654
  543loPI   C2A 8680   4.475   8.957   8.977  0.3053  0.2721  0.2568
  543loPI   C3A 8681   4.192   8.677   8.803 -0.0312  0.4172  0.1245
  543loPI   C4A 8682   4.188   8.467   8.387  0.0208  0.4196  0.0100
  543loPI   C5A 8683   4.247   8.142   8.098  0.1425 -0.2388 -0.0685
  543loPI   C6A 8684   4.278   7.993   7.744  0.3944 -0.0044  0.0941
  543loPI   C1B 8685   4.875   8.458   9.225 -0.1329  0.0459 -0.3089
  543loPI   C2B 8686   4.708   8.459   8.886 -0.1906 -0.0933  0.1631
  543loPI   C3B 8687   4.673   8.676   8.544 -0.2512 -0.0873 -0.0472
  543loPI   C4B 8688   4.650   8.979   8.249 -0.0939  0.0756  0.1733
  544loPI    C1 8689   3.639   2.026  10.369 -0.1597 -0.0763  0.0350
  544loPI    C2 8690   3.771   2.306  10.624 -0.1498  0.0512 -0.1084
  544loPI    C3 8691   3.910   2.295  10.249 -0.2371 -0.0744 -0.1380
  544loPI   PO4 8692   3.422   2.034  10.406  0.1465 -0.4514  0.1760
  544loPI   GL1 8693   3.187   1.976   9.973  0.0083  0.0209  0.2883
  544loPI   GL2 8694   3.407   1.709  10.005 -0.2349 -0.1691  0.0458
  544loPI   C1A 8695   3.264   2.045   9.531 -0.0169 -0.0203  0.0776
  544loPI   C2A 8696   3.273   2.078   9.075  0.1080  0.0448  0.0883
  544loPI   C3A 8697   3.257   2.110   8.665 -0.2067  0.1576  0.1516
  544loPI   C4A 8698   3.314   2.236   8.216  0.1401 -0.0437 -0.1451
  544loPI   C5A 8699   3.621   2.275   7.939 -0.2193 -0.0718 -0.0590
  544loPI   C6A 8700   4.062   2.231   7.912 -0.3614 -0.0284 -0.4929
  544loPI   C1B 8701   3.627   2.083   9.826 -0.1061 -0.1878  0.1473
  544loPI   C2B 8702   3.905   2.210   9.480  0.0196 -0.1188  0.0635
  544loPI   C3B 8703   3.904   2.173   9.012 -0.1212 -0.0155  0.4460
  544loPI   C4B 8704   3.774   2.171   8.610  0.1131 -0.0085  0.2204
  545loPI    C1 8705  15.395   8.521  10.244 -0.0336 -0.0531 -0.0534
  545loPI    C2 8706  15.291   8.136  10.216 -0.0874 -0.0485  0.0788
  545loPI    C3 8707  15.482   8.268  10.541  0.1537 -0.0148 -0.0743
  545loPI   PO4 8708  15.513   8.531  10.061  0.2445 -0.2385  0.0028
  545loPI   GL1 8709  15.835   8.757   9.809  0.0976  0.1103 -0.0560
  545loPI   GL2 8710  16.133   8.742   9.943 -0.1523 -0.1294 -0.0246
  545loPI   C1A 8711  15.885   8.689   9.395  0.4602  0.2143  0.2303
  545loPI   C2A 8712  15.772   8.822   9.054 -0.0352  0.0379  0.2281
  545loPI   C3A 8713  15.524   8.757   8.722  0.1280 -0.0229  0.0353
  545loPI   C4A 8714  15.190   8.544   8.463 -0.0357 -0.1193 -0.1948
  545loPI   C5A 8715  15.254   8.165   8.221 -0.1229  0.0816 -0.0744
  545loPI   C6A 8716  15.000   7.963   8.007  0.0443  0.0128 -0.1168
  545loPI   C1B 8717  16.381   8.868   9.530 -0.1020 -0.0950  0.2311
  545loPI   C2B 8718  16.601   9.170   9.160  0.1538 -0.0298 -0.0646
  545loPI   C3B 8719  16.615   9.169   8.717  0.0857 -0.1984 -0.1795
  545loPI   C4B 8720  16.795   9.173   8.251  0.1141  0.1570 -0.1929
  546loPI    C1 8721   5.954  12.159  10.177 -0.0239 -0.0003 -0.0976
  546loPI    C2 8722   5.790  12.367   9.877 -0.2753 -0.0609 -0.0043
  546loPI    C3 8723   5.580  12.079  10.060  0.0404 -0.3461 -0.0795
  546loPI   PO4 8724   6.252  12.159  10.027 -0.0614  0.1412 -0.0251
  546loPI   GL1 8725   6.365  12.158   9.646  0.2331  0.1622  0.2980
  546loPI   GL2 8726   6.190  12.372   9.578 -0.0967  0.0263  0.0071
  546loPI   C1A 8727   6.290  11.884   9.273 -0.2269  0.0750 -0.1788
  546loPI   C2A 8728   6.269  11.886   8.827  0.0857 -0.3248 -0.1338
  546loPI   C3A 8729   6.401  11.892   8.456  0.1007 -0.2514 -0.0162
  546loPI   C4A 8730   6.721  11.847   8.154  0.1100  0.1522  0.0874
  546loPI   C5A 8731   6.820  11.587   7.819 -0.1636 -0.2523  0.0033
  546loPI   C6A 8732   7.079  11.463   7.496 -0.1117  0.0241 -0.0392
  546loPI   C1B 8733   6.332  12.321   9.103  0.2277 -0.0419  0.1223
  546loPI   C2B 8734   6.320  12.360   8.629  0.2312 -0.1047 -0.1023
  546loPI   C3B 8735   6.312  12.294   8.265 -0.0234  0.2102 -0.0725
  546loPI   C4B 8736   6.331  12.380   7.812 -0.0747 -0.2808 -0.0741
  547loPI    C1 8737  15.003   5.505  10.653 -0.1392  0.2971 -0.0344
  547loPI    C2 8738  15.175   5.454  11.011  0.0224  0.0542 -0.1441
  547loPI    C3 8739  14.826   5.648  10.983  0.0440  0.1378  0.1356
  547loPI   PO4 8740  15.176   5.605  10.413  0.0908  0.0291  0.2134
  547loPI   GL1 8741  15.201   5.684   9.960  0.2233 -0.1680  0.1592
  547loPI   GL2 8742  14.985   5.521   9.776 -0.1615 -0.2186  0.1405
  547loPI   C1A 8743  15.372   5.948   9.499  0.1907  0.1215 -0.0669
  547loPI   C2A 8744  15.491   5.976   9.142 -0.0026  0.0004 -0.1129
  547loPI   C3A 8745  15.511   5.866   8.706 -0.1494  0.0005 -0.0796
  547loPI   C4A 8746  15.546   5.923   8.271  0.0978 -0.2411 -0.0647
  547loPI   C5A 8747  15.740   6.118   7.891 -0.0698  0.1965 -0.2518
  547loPI   C6A 8748  16.160   6.280   7.817  0.0009 -0.0373  0.0716
  547loPI   C1B 8749  14.734   5.336   9.468 -0.2412  0.1620 -0.2911
  547loPI   C2B 8750  14.767   5.346   9.021 -0.0270 -0.2031 -0.1989
  547loPI   C3B 8751  14.853   5.246   8.559  0.0674 -0.1145 -0.2797
  547loPI   C4B 8752  14.846   5.291   8.126  0.0081 -0.0677  0.0924
  548loPI    C1 8753  14.551   5.293  10.107 -0.2692  0.1039  0.2227
  548loPI    C2 8754  14.637   5.165  10.476  0.1844 -0.1452  0.0388
  548loPI    C3 8755  14.931   5.227  10.212 -0.1355  0.0203 -0.2874
  548loPI   PO4 8756  14.311   5.151  10.079  0.1122  0.1449  0.1303
  548loPI   GL1 8757  14.220   5.116   9.720 -0.3319  0.0791 -0.1302
  548loPI   GL2 8758  14.066   4.818   9.649  0.0645 -0.0802 -0.0324
  548loPI   C1A 8759  14.272   5.208   9.276  0.0733 -0.1097 -0.1603
  548loPI   C2A 8760  14.223   5.322   8.874  0.2063  0.1737 -0.0014
  548loPI   C3A 8761  14.360   5.322   8.489 -0.1545 -0.2590  0.0254
  548loPI   C4A 8762  14.371   5.095   8.060  0.0546  0.3585 -0.0282
  548loPI   C5A 8763  14.030   5.079   7.760  0.0893 -0.2043  0.3997
  548loPI   C6A 8764  13.650   5.209   7.579  0.1934  0.0310  0.3532
  548loPI   C1B 8765  14.104   4.657   9.339  0.0755 -0.1978  0.1890
  548loPI   C2B 8766  14.096   4.837   8.865  0.2697  0.3068  0.1529
  548loPI   C3B 8767  14.214   4.820   8.492 -0.2289 -0.0271  0.1052
  548loPI   C4B 8768  14.213   4.620   8.021  0.1874 -0.1676 -0.2703
  549loPI    C1 8769  14.844  17.955  10.592  0.1287 -0.0139  0.0091
  549loPI    C2 8770  14.685  18.187  10.876  0.0418 -0.0271 -0.0289
  549loPI    C3 8771  15.028  17.994  10.945  0.1505  0.1666 -0.0215
  549loPI   PO4 8772  14.804  18.132  10.348 -0.0948  0.0561 -0.2916
  549loPI   GL1 8773  14.664  17.983   9.831 -0.0799 -0.1301 -0.0257
  549loPI   GL2 8774  14.952  17.889   9.910 -0.0600 -0.2945 -0.0234
  549loPI   C1A 8775  14.737  17.850   9.445 -0.0739  0.1595  0.0965
  549loPI   C2A 8776  14.734  17.875   9.026 -0.1009  0.0543  0.1643
  549loPI   C3A 8777  14.667  17.814   8.644 -0.0375  0.0337  0.2066
  549loPI   C4A 8778  14.758  17.736   8.322  0.1798 -0.0790  0.1745
  549loPI   C5A 8779  14.754  17.891   7.875 -0.2888  0.0126  0.2205
  549loPI   C6A 8780  14.583  18.148   7.473  0.1435 -0.2765 -0.0541
  549loPI   C1B 8781  15.249  17.883   9.522  0.1479  0.0596 -0.1619
  549loPI   C2B 8782  15.274  17.945   9.076  0.2215  0.0912  0.3214
  549loPI   C3B 8783  15.238  17.952   8.662 -0.0244  0.3851 -0.1287
  549loPI   C4B 8784  15.218  17.848   8.199  0.2296 -0.1706 -0.1210
  550loPI    C1 8785  10.122  17.956  10.299  0.2025 -0.1034 -0.0857
  550loPI    C2 8786  10.498  17.828  10.251  0.2119 -0.1577  0.1231
  550loPI    C3 8787  10.354  17.893  10.618  0.0965  0.1033  0.0340
  550loPI   PO4 8788  10.091  17.998   9.987 -0.1367 -0.2531  0.1556
  550loPI   GL1 8789  10.278  17.798   9.670 -0.3552 -0.4883  0.1881
  550loPI   GL2 8790  10.588  17.692   9.781  0.3461  0.0213  0.0112
  550loPI   C1A 8791  10.346  17.777   9.279 -0.1426 -0.0903 -0.2573
  550loPI   C2A 8792  10.353  18.043   8.948 -0.3106  0.0387  0.0034
  550loPI   C3A 8793  10.304  18.328   8.582  0.2429  0.1347  0.1436
  550loPI   C4A 8794  10.021  18.202   8.278  0.2167  0.1293  0.1624
  550loPI   C5A 8795   9.726  18.221   7.916  0.1195  0.0257 -0.0464
  550loPI   C6A 8796   9.834  17.982   7.437 -0.1900 -0.2467  0.3008
  550loPI   C1B 8797  10.978  17.859   9.565 -0.0000 -0.1944  0.1178
  550loPI   C2B 8798  10.859  17.851   9.092  0.0827 -0.0571 -0.0565
  550loPI   C3B 8799  10.812  17.948   8.658 -0.1284 -0.0299  0.0406
  550loPI   C4B 8800  10.896  17.869   8.201  0.3334 -0.0817  0.1534
  551loPI    C1 8801   9.576  13.036  10.958  0.3781 -0.0829 -0.0019
  551loPI    C2 8802   9.353  13.199  11.247  0.1117  0.0907 -0.2988
  551loPI    C3 8803   9.664  12.966  11.341  0.1193  0.2642  0.1258
  551loPI   PO4 8804   9.576  13.242  10.801  0.0639  0.1121  0.0917
  551loPI   GL1 8805   9.660  13.337  10.370 -0.1321 -0.3191 -0.1613
  551loPI   GL2 8806   9.708  13.033  10.139  0.0487  0.0820 -0.0566
  551loPI   C1A 8807   9.581  13.405   9.896  0.0738 -0.0238  0.0751
  551loPI   C2A 8808   9.519  13.416   9.516  0.4805  0.2828  0.0468
  551loPI   C3A 8809   9.473  13.341   9.166 -0.0952 -0.0602  0.3535
  551loPI   C4A 8810   9.502  13.395   8.715  0.0743  0.3420 -0.0821
  551loPI   C5A 8811   9.436  13.307   8.285 -0.2668  0.4427  0.3069
  551loPI   C6A 8812   9.200  13.494   7.914  0.1950 -0.0544  0.2885
  551loPI   C1B 8813   9.825  12.999   9.633 -0.2477  0.1074  0.0147
  551loPI   C2B 8814   9.855  13.040   9.217  0.0445  0.1645  0.1849
  551loPI   C3B 8815   9.655  12.936   8.808  0.0981  0.0739  0.2104
  551loPI   C4B 8816   9.499  12.880   8.473  0.3209  0.0904 -0.0141
  552loPI    C1 8817   6.560  15.785  10.482  0.0607 -0.1447 -0.0958
  552loPI    C2 8818   6.201  15.608  10.479  0.0566 -0.1352 -0.2093
  552loPI    C3 8819   6.412  15.626  10.819 -0.0239 -0.1934 -0.1556
  552loPI   PO4 8820   6.735  15.668  10.264 -0.0268 -0.1237 -0.0792
  552loPI   GL1 8821   7.032  15.731   9.975 -0.2757  0.0660  0.2284
  552loPI   GL2 8822   7.060  15.562   9.812 -0.1601  0.1555  0.4754
  552loPI   C1A 8823   7.142  16.043   9.682  0.1760  0.2869 -0.1316
  552loPI   C2A 8824   7.183  16.036   9.333 -0.1545 -0.0707 -0.0265
  552loPI   C3A 8825   7.064  16.117   8.855 -0.0644 -0.2624  0.2121
  552loPI   C4A 8826   6.966  16.068   8.412  0.0467 -0.5577  0.1991
  552loPI   C5A 8827   7.135  15.958   7.917 -0.1984 -0.0121 -0.0884
  552loPI   C6A 8828   6.975  15.730   7.576 -0.1873 -0.0389 -0.0243
  552loPI   C1B 8829   7.150  15.569   9.461 -0.1290 -0.0682  0.1623
  552loPI   C2B 8830   7.106  15.635   8.929 -0.0571  0.1644 -0.0808
  552loPI   C3B 8831   7.109  15.498   8.574  0.1992  0.2195  0.0625
  552loPI   C4B 8832   7.039  15.492   8.193 -0.0261 -0.0478 -0.0767
  553loPI    C1 8833  16.908   7.785  10.458  0.2380  0.0451  0.1957
  553loPI    C2 8834  16.979   8.173  10.392  0.1567  0.0031 -0.1584
  553loPI    C3 8835  16.641   8.059  10.573  0.1217  0.0894 -0.1693
  553loPI   PO4 8836  16.940   7.710  10.182 -0.1227  0.0615  0.2082
  553loPI   GL1 8837  17.148   7.678   9.887 -0.0887 -0.0780 -0.2014
  553loPI   GL2 8838  17.388   7.792   9.733 -0.2246  0.0107  0.0727
  553loPI   C1A 8839  16.988   7.615   9.463  0.0665  0.0966 -0.0343
  553loPI   C2A 8840  16.918   7.642   9.024 -0.2298 -0.1778 -0.1820
  553loPI   C3A 8841  16.930   7.758   8.625 -0.1766  0.2365  0.2319
  553loPI   C4A 8842  17.266   7.986   8.355 -0.2327  0.0479  0.2252
  553loPI   C5A 8843  17.523   8.033   7.965  0.0245 -0.0732 -0.1688
  553loPI   C6A 8844  17.689   8.233   7.594  0.2781 -0.2396 -0.2456
  553loPI   C1B 8845  17.442   7.729   9.245 -0.0521 -0.0114 -0.0404
  553loPI   C2B 8846  17.397   7.573   8.832 -0.0424 -0.1094 -0.3256
  553loPI   C3B 8847  17.363   7.470   8.461 -0.2309  0.2373  0.1262
  553loPI   C4B 8848  17.082   7.452   8.117 -0.1549  0.1926 -0.1833
  554loPI    C1 8849   1.737   1.531  10.542 -0.2691 -0.1302 -0.1618
  554loPI    C2 8850   1.478   1.550  10.846 -0.2022 -0.0766 -0.1077
  554loPI    C3 8851   1.794   1.795  10.837 -0.1847 -0.1022 -0.2028
  554loPI   PO4 8852   1.507   1.566  10.293 -0.1148  0.0774 -0.3405
  554loPI   GL1 8853   1.637   1.592   9.910  0.1479 -0.1329 -0.0251
  554loPI   GL2 8854   1.907   1.419  10.031 -0.2494 -0.2539 -0.0183
  554loPI   C1A 8855   1.802   1.817   9.582  0.0039 -0.2071 -0.2529
  554loPI   C2A 8856   1.752   1.824   9.106  0.0692  0.0061 -0.2526
  554loPI   C3A 8857   1.861   1.841   8.732 -0.0301  0.0037  0.4976
  554loPI   C4A 8858   1.879   1.918   8.343  0.0054  0.4231  0.0851
  554loPI   C5A 8859   2.041   1.714   7.999 -0.0086  0.2697  0.0799
  554loPI   C6A 8860   2.236   1.890   7.620  0.3067 -0.1631 -0.1273
  554loPI   C1B 8861   2.082   1.379   9.710  0.0063  0.1203  0.1898
  554loPI   C2B 8862   2.114   1.449   9.355 -0.1592 -0.0451  0.0863
  554loPI   C3B 8863   2.179   1.515   8.944 -0.1542  0.2242  0.2783
  554loPI   C4B 8864   2.157   1.439   8.472 -0.0747 -0.0737  0.1159
  555loPI    C1 8865   1.161   6.177  10.647  0.1329  0.1755 -0.0084
  555loPI    C2 8866   1.427   6.402  10.451  0.2873  0.0625  0.0693
  555loPI    C3 8867   1.494   6.010  10.500  0.1529  0.0519  0.1727
  555loPI   PO4 8868   0.897   6.111  10.449 -0.4548 -0.0097  0.4338
  555loPI   GL1 8869   0.762   6.123   9.932  0.0320  0.3189  0.3219
  555loPI   GL2 8870   0.897   5.856   9.679 -0.0865  0.0871 -0.0193
  555loPI   C1A 8871   0.762   6.320   9.523  0.2010  0.0652  0.2149
  555loPI   C2A 8872   0.841   6.280   9.046 -0.1993  0.2294 -0.3673
  555loPI   C3A 8873   0.841   6.383   8.679  0.2586  0.0551 -0.4335
  555loPI   C4A 8874   1.132   6.424   8.383 -0.1566 -0.0149 -0.0366
  555loPI   C5A 8875   1.235   6.376   7.915  0.0101 -0.1190 -0.6059
  555loPI   C6A 8876   1.692   6.160   7.850  0.2140 -0.1301  0.0977
  555loPI   C1B 8877   1.163   5.956   9.448 -0.1175 -0.2257  0.0156
  555loPI   C2B 8878   1.135   5.918   9.034 -0.1892  0.1128 -0.1131
  555loPI   C3B 8879   1.045   5.910   8.609 -0.1683 -0.4402  0.4708
  555loPI   C4B 8880   0.923   5.973   8.223 -0.1676 -0.0395  0.2192
  556loPI    C1 8881  15.694  10.092  10.920  0.0240 -0.0849  0.1828
  556loPI    C2 8882  15.757   9.705  11.001 -0.0821 -0.1170  0.1140
  556loPI    C3 8883  15.384   9.842  10.955 -0.0393 -0.0308  0.0180
  556loPI   PO4 8884  15.892  10.109  10.772  0.2572 -0.2454  0.0814
  556loPI   GL1 8885  15.974  10.058  10.361 -0.1064  0.3500  0.2439
  556loPI   GL2 8886  16.106   9.838  10.187  0.1243  0.1706 -0.3296
  556loPI   C1A 8887  15.853  10.289   9.996 -0.0530  0.2176  0.0266
  556loPI   C2A 8888  15.771  10.229   9.559 -0.1508  0.2934  0.0217
  556loPI   C3A 8889  15.521  10.103   9.131  0.0284 -0.1818 -0.0579
  556loPI   C4A 8890  15.344   9.804   8.816 -0.1583  0.1240  0.4476
  556loPI   C5A 8891  15.377   9.710   8.305 -0.1414 -0.1189 -0.1689
  556loPI   C6A 8892  15.696   9.883   7.992 -0.2270 -0.1388 -0.0081
  556loPI   C1B 8893  16.113   9.888   9.747  0.0347 -0.1917 -0.1125
  556loPI   C2B 8894  16.115   9.723   9.349  0.1104 -0.3434 -0.0622
  556loPI   C3B 8895  15.886   9.818   8.972 -0.1600  0.0634 -0.0325
  556loPI   C4B 8896  15.809   9.840   8.548 -0.1274  0.0271  0.2792
  557loPI    C1 8897  15.910   3.035  10.791 -0.0824  0.1225 -0.0942
  557loPI    C2 8898  15.653   3.335  10.850 -0.1739  0.0259  0.0036
  557loPI    C3 8899  15.584   2.978  11.016 -0.0008 -0.0143 -0.0093
  557loPI   PO4 8900  15.934   3.042  10.533 -0.1156  0.1582 -0.2225
  557loPI   GL1 8901  16.089   2.993  10.102  0.0756 -0.1159  0.2362
  557loPI   GL2 8902  16.244   2.936   9.728 -0.0628 -0.1113  0.0526
  557loPI   C1A 8903  15.940   3.279   9.753  0.1655 -0.0037  0.0526
  557loPI   C2A 8904  15.915   3.211   9.276  0.2323  0.0858  0.0562
  557loPI   C3A 8905  15.846   3.260   8.963  0.0455 -0.1232  0.0492
  557loPI   C4A 8906  15.911   3.208   8.635  0.1805 -0.0535 -0.2126
  557loPI   C5A 8907  15.837   2.955   8.320  0.3498 -0.2843 -0.3510
  557loPI   C6A 8908  15.852   3.067   7.853  0.0842  0.2145 -0.2063
  557loPI   C1B 8909  16.395   2.910   9.299 -0.3248 -0.1689 -0.1666
  557loPI   C2B 8910  16.268   2.845   8.913 -0.2377 -0.1449 -0.0265
  557loPI   C3B 8911  16.256   2.819   8.471 -0.2565  0.1527 -0.0206
  557loPI   C4B 8912  16.302   2.810   8.032  0.1122 -0.1596 -0.2712
  558loPI    C1 8913  12.082   5.962  10.674  0.1498  0.2763  0.0685
  558loPI    C2 8914  12.427   5.962  10.876  0.0250  0.0820  0.2869
  558loPI    C3 8915  12.086   5.868  11.062 -0.0850 -0.1652 -0.0283
  558loPI   PO4 8916  12.195   5.880  10.405 -0.4892 -0.0054  0.3385
  558loPI   GL1 8917  12.515   5.886  10.069  0.2123 -0.1111 -0.2806
  558loPI   GL2 8918  12.270   6.168   9.980  0.0708 -0.0941  0.2053
  558loPI   C1A 8919  12.523   5.668   9.641  0.2034  0.0910 -0.1506
  558loPI   C2A 8920  12.593   5.811   9.269  0.2078  0.0832 -0.2775
  558loPI   C3A 8921  12.587   5.720   8.765  0.0701 -0.0257 -0.2766
  558loPI   C4A 8922  12.594   5.826   8.376 -0.0210 -0.0198  0.1276
  558loPI   C5A 8923  12.702   6.030   7.980  0.0348  0.1716 -0.0854
  558loPI   C6A 8924  12.543   6.215   7.576 -0.0895  0.1260 -0.3244
  558loPI   C1B 8925  12.640   6.202   9.630 -0.0536 -0.1307  0.0795
  558loPI   C2B 8926  12.719   6.266   9.283  0.0454 -0.2160  0.0906
  558loPI   C3B 8927  12.711   6.314   8.927 -0.0879  0.1440  0.3813
  558loPI   C4B 8928  12.687   6.312   8.438 -0.1996 -0.0051 -0.1553
  559loPI    C1 8929   0.452  11.433  10.645  0.0855 -0.0653  0.0185
  559loPI    C2 8930   0.486  11.168  10.943 -0.0804  0.0578  0.1491
  559loPI    C3 8931   0.221  11.466  10.970  0.0835  0.2205 -0.0099
  559loPI   PO4 8932   0.462  11.332  10.473  0.1834  0.0296 -0.0482
  559loPI   GL1 8933   0.368  11.188  10.076  0.0243 -0.0548 -0.1552
  559loPI   GL2 8934   0.517  11.496  10.041  0.0473 -0.0312  0.0187
  559loPI   C1A 8935   0.352  11.176   9.558  0.2276  0.2125  0.0883
  559loPI   C2A 8936   0.408  11.300   9.230 -0.1649  0.1126 -0.2358
  559loPI   C3A 8937   0.455  11.473   8.851 -0.0344  0.1905 -0.2579
  559loPI   C4A 8938   0.464  11.542   8.394  0.0009 -0.0650  0.1055
  559loPI   C5A 8939   0.678  11.523   8.063 -0.1167  0.3084  0.1642
  559loPI   C6A 8940   0.713  11.832   7.787 -0.0056  0.3910  0.0452
  559loPI   C1B 8941   0.410  11.703   9.624  0.2433  0.1309  0.0367
  559loPI   C2B 8942   0.393  11.827   9.183  0.1344 -0.2600 -0.2398
  559loPI   C3B 8943   0.490  11.982   8.745 -0.0154 -0.0840  0.1054
  559loPI   C4B 8944   0.338  11.999   8.269  0.0035  0.2234  0.2105
  560loPI    C1 8945  11.763  12.507  11.026 -0.0543  0.0831  0.0880
  560loPI    C2 8946  11.760  12.359  11.398 -0.2407  0.2695  0.1622
  560loPI    C3 8947  12.023  12.643  11.297 -0.0573  0.0778  0.0935
  560loPI   PO4 8948  11.641  12.361  10.842  0.0773 -0.4354 -0.3833
  560loPI   GL1 8949  11.526  12.322  10.453 -0.2052  0.0489  0.3425
  560loPI   GL2 8950  11.707  12.478  10.155  0.1212  0.2596  0.0132
  560loPI   C1A 8951  11.382  12.115  10.033 -0.1029  0.0455 -0.1854
  560loPI   C2A 8952  11.393  11.898   9.587 -0.0307  0.2977 -0.0230
  560loPI   C3A 8953  11.383  11.920   9.183  0.0509  0.2255  0.0476
  560loPI   C4A 8954  11.444  12.034   8.745 -0.0982  0.0677  0.0964
  560loPI   C5A 8955  11.366  12.279   8.335 -0.0881 -0.1190 -0.2563
  560loPI   C6A 8956  11.573  12.344   7.917 -0.0799 -0.1625  0.2556
  560loPI   C1B 8957  11.586  12.333   9.633 -0.1905 -0.4868  0.0298
  560loPI   C2B 8958  11.535  12.456   9.228  0.0832 -0.0166 -0.4465
  560loPI   C3B 8959  11.478  12.564   8.792  0.0671 -0.2646 -0.2786
  560loPI   C4B 8960  11.504  12.784   8.376  0.2650  0.3308 -0.0291
  561loPI    C1 8961   7.560  13.881  10.687  0.1634  0.1366  0.0747
  561loPI    C2 8962   7.343  13.743  10.994  0.1715 -0.0454 -0.0004
  561loPI    C3 8963   7.571  14.068  11.041 -0.2040  0.2180  0.0473
  561loPI   PO4 8964   7.431  13.843  10.530  0.0930 -0.1521  0.4518
  561loPI   GL1 8965   7.317  13.884  10.022  0.0919 -0.1306  0.0186
  561loPI   GL2 8966   7.050  13.830  10.003 -0.0103  0.2077 -0.0880
  561loPI   C1A 8967   7.332  14.000   9.558  0.0799  0.0103  0.1432
  561loPI   C2A 8968   7.252  14.301   9.257 -0.1280 -0.2135  0.0455
  561loPI   C3A 8969   7.466  14.674   9.084  0.0070 -0.1009 -0.0537
  561loPI   C4A 8970   7.547  14.837   8.702 -0.0441 -0.2558  0.0226
  561loPI   C5A 8971   7.743  14.805   8.300  0.1097  0.2309  0.2926
  561loPI   C6A 8972   7.855  15.008   7.930  0.2250 -0.0221  0.1775
  561loPI   C1B 8973   6.988  13.643   9.604  0.0289  0.1703  0.1726
  561loPI   C2B 8974   6.686  13.700   9.207  0.1381 -0.0991  0.2037
  561loPI   C3B 8975   6.754  13.563   8.815  0.1043 -0.3344 -0.1665
  561loPI   C4B 8976   6.746  13.776   8.386  0.5102  0.1290  0.0944
  562loPI    C1 8977   8.029  12.283  10.435  0.2495  0.0286  0.0973
  562loPI    C2 8978   8.346  12.480  10.580  0.0963  0.1642  0.2522
  562loPI    C3 8979   8.051  12.366  10.826 -0.0500  0.1778  0.0852
  562loPI   PO4 8980   8.081  12.311  10.164  0.3815  0.0269  0.0638
  562loPI   GL1 8981   8.388  12.515  10.014 -0.0557 -0.1150  0.0990
  562loPI   GL2 8982   8.641  12.392  10.127  0.2327  0.0098 -0.4532
  562loPI   C1A 8983   8.408  12.525   9.620  0.0541  0.1815  0.0183
  562loPI   C2A 8984   8.319  12.546   9.178  0.3587  0.2751 -0.2227
  562loPI   C3A 8985   8.103  12.501   8.804 -0.0854 -0.1083  0.3580
  562loPI   C4A 8986   8.092  12.471   8.381  0.1766 -0.2549 -0.1650
  562loPI   C5A 8987   8.171  12.732   7.949 -0.0064  0.1138  0.0069
  562loPI   C6A 8988   8.009  12.745   7.541  0.0336  0.2773 -0.2546
  562loPI   C1B 8989   8.661  12.092   9.768  0.0096  0.0441  0.2641
  562loPI   C2B 8990   8.512  12.092   9.315  0.0928 -0.1453 -0.0083
  562loPI   C3B 8991   8.603  12.107   8.863 -0.2154  0.2436 -0.0210
  562loPI   C4B 8992   8.538  12.468   8.536  0.2098 -0.0641  0.2900
  563loPI    C1 8993   8.291  13.885  10.547 -0.0375  0.0493 -0.1901
  563loPI    C2 8994   8.043  14.116  10.760 -0.0808 -0.2638  0.1091
  563loPI    C3 8995   8.388  13.992  10.920  0.1601 -0.0321 -0.2171
  563loPI   PO4 8996   8.269  13.988  10.343  0.0231 -0.3134  0.0923
  563loPI   GL1 8997   8.358  13.778   9.987  0.0634 -0.2446 -0.0939
  563loPI   GL2 8998   8.545  13.540   9.906 -0.2297 -0.0536  0.3080
  563loPI   C1A 8999   8.239  13.740   9.552 -0.3369  0.0979 -0.1213
  563loPI   C2A 9000   8.096  13.494   9.213  0.0280  0.0164 -0.0672
  563loPI   C3A 9001   8.235  13.532   8.780  0.3683 -0.2291  0.1262
  563loPI   C4A 9002   8.163  13.517   8.388  0.1638  0.2256  0.0681
  563loPI   C5A 9003   8.024  13.306   8.065 -0.1053  0.1530  0.0116
  563loPI   C6A 9004   8.194  13.193   7.701  0.1505  0.1193  0.1364
  563loPI   C1B 9005   8.644  13.337   9.508 -0.1500 -0.3677 -0.0289
  563loPI   C2B 9006   8.626  13.250   8.998  0.0761  0.2378 -0.1809
  563loPI   C3B 9007   8.590  12.945   8.679 -0.1507  0.2526 -0.2335
  563loPI   C4B 9008   8.554  12.973   8.249 -0.1999  0.2035  0.2358
  564loPI    C1 9009   2.157   2.201  10.654 -0.0631  0.3574  0.1372
  564loPI    C2 9010   2.297   1.960  10.941  0.2493  0.2467 -0.1014
  564loPI    C3 9011   2.253   2.351  11.012  0.1633  0.1937  0.1476
  564loPI   PO4 9012   2.332   2.167  10.470  0.1248 -0.3218 -0.1827
  564loPI   GL1 9013   2.611   1.958  10.128 -0.1944 -0.0329 -0.0239
  564loPI   GL2 9014   2.609   2.246  10.055 -0.0691  0.0280  0.1425
  564loPI   C1A 9015   2.814   1.911   9.687  0.0880 -0.0599  0.1580
  564loPI   C2A 9016   2.788   2.079   9.320 -0.0155  0.3664  0.4181
  564loPI   C3A 9017   2.810   2.089   8.923 -0.0452  0.0527 -0.0401
  564loPI   C4A 9018   2.776   2.191   8.452 -0.1556 -0.2134 -0.1460
  564loPI   C5A 9019   2.790   2.039   8.042 -0.2122  0.0220 -0.2956
  564loPI   C6A 9020   2.793   1.650   7.770 -0.1669 -0.0373  0.2815
  564loPI   C1B 9021   2.553   2.415   9.585 -0.5341  0.1157  0.1621
  564loPI   C2B 9022   2.572   2.529   9.160  0.0536  0.1302  0.0556
  564loPI   C3B 9023   2.588   2.524   8.750 -0.1125 -0.0940  0.1318
  564loPI   C4B 9024   2.486   2.522   8.266  0.1652 -0.2847 -0.0889
  565loPI    C1 9025   1.468   4.163  10.634  0.1071 -0.1823 -0.1162
  565loPI    C2 9026   1.421   4.122  11.029  0.0643  0.2733 -0.0681
  565loPI    C3 9027   1.177   4.362  10.823  0.1402  0.1046 -0.3596
  565loPI   PO4 9028   1.725   4.048  10.497  0.4118 -0.1083 -0.2632
  565loPI   GL1 9029   2.015   4.125  10.136 -0.1003 -0.0538 -0.1609
  565loPI   GL2 9030   1.811   4.131   9.902 -0.0252 -0.0463 -0.1837
  565loPI   C1A 9031   2.284   4.007   9.701  0.0538  0.1508  0.2029
  565loPI   C2A 9032   2.260   4.051   9.236 -0.0765 -0.0484  0.1124
  565loPI   C3A 9033   2.187   4.196   8.770 -0.1266  0.1487 -0.1363
  565loPI   C4A 9034   2.195   4.233   8.382  0.0670  0.0526 -0.0658
  565loPI   C5A 9035   2.152   4.352   8.006  0.0658  0.2837 -0.1775
  565loPI   C6A 9036   2.176   4.644   7.646  0.0084  0.3228  0.2959
  565loPI   C1B 9037   1.723   3.998   9.450 -0.2786 -0.0534 -0.4133
  565loPI   C2B 9038   1.744   4.085   9.010  0.1273  0.1025 -0.0682
  565loPI   C3B 9039   1.709   4.203   8.551  0.2010  0.2505  0.0068
  565loPI   C4B 9040   1.694   4.028   8.153 -0.2413  0.0084  0.0120
  566loPI    C1 9041  10.864   2.224  10.003  0.4399 -0.0965 -0.1284
  566loPI    C2 9042  10.612   2.043  10.256  0.5273 -0.1700 -0.0934
  566loPI    C3 9043  10.631   2.443  10.243  0.2566 -0.1601 -0.2467
  566loPI   PO4 9044  10.943   2.058   9.866 -0.2088 -0.1691 -0.0802
  566loPI   GL1 9045  11.138   2.047   9.437  0.2123 -0.0392 -0.2227
  566loPI   GL2 9046  11.034   1.725   9.477 -0.2595 -0.0357 -0.0987
  566loPI   C1A 9047  11.242   1.982   8.970  0.0428  0.0760 -0.0418
  566loPI   C2A 9048  11.178   1.941   8.485 -0.1707 -0.0186 -0.1638
  566loPI   C3A 9049  10.963   2.008   8.150  0.0003  0.0981 -0.0952
  566loPI   C4A 9050  10.861   2.115   7.721 -0.3055  0.0085 -0.2504
  566loPI   C5A 9051  10.695   1.890   7.371 -0.0542 -0.0757  0.0774
  566loPI   C6A 9052  10.198   1.850   7.225  0.1149  0.2516  0.1086
  566loPI   C1B 9053  11.001   1.526   9.045 -0.0936  0.0969 -0.1177
  566loPI   C2B 9054  10.900   1.599   8.705  0.4191  0.1029  0.3988
  566loPI   C3B 9055  10.759   1.598   8.289 -0.2734 -0.0662  0.0778
  566loPI   C4B 9056  10.907   1.543   7.817  0.1313  0.1075 -0.1989
  567loPI    C1 9057   1.132   9.171  10.621 -0.1426 -0.0484 -0.2210
  567loPI    C2 9058   0.751   9.074  10.549 -0.1650 -0.0404 -0.1157
  567loPI    C3 9059   0.863   9.182  10.917 -0.0840  0.0674 -0.1714
  567loPI   PO4 9060   1.186   9.396  10.423  0.2154  0.0911  0.2048
  567loPI   GL1 9061   1.104   9.697  10.068 -0.0366  0.1193 -0.0556
  567loPI   GL2 9062   0.733   9.586  10.065 -0.1227 -0.2441  0.0974
  567loPI   C1A 9063   1.261   9.732   9.584 -0.2224 -0.1818 -0.1002
  567loPI   C2A 9064   1.296   9.793   9.157  0.1889  0.2339 -0.0333
  567loPI   C3A 9065   1.364   9.821   8.742  0.1611  0.0300  0.0310
  567loPI   C4A 9066   1.338   9.768   8.279 -0.1066 -0.1900  0.0058
  567loPI   C5A 9067   1.131  10.174   7.960  0.1918  0.0384  0.1909
  567loPI   C6A 9068   0.984  10.570   7.922 -0.3169  0.2002  0.3329
  567loPI   C1B 9069   0.751   9.677   9.669 -0.1923 -0.1735  0.2130
  567loPI   C2B 9070   0.822   9.894   9.306  0.0822 -0.1381  0.0691
  567loPI   C3B 9071   0.925  10.023   8.884 -0.0180  0.1631 -0.1164
  567loPI   C4B 9072   1.017  10.104   8.503 -0.0935  0.0988 -0.4318
  568loPI    C1 9073   0.967  10.097  10.730  0.1292  0.0883  0.0289
  568loPI    C2 9074   0.668  10.334  10.609  0.2909  0.3432  0.1210
  568loPI    C3 9075   0.678  10.202  10.986  0.0442 -0.0565 -0.0068
  568loPI   PO4 9076   1.049   9.984  10.426 -0.0162 -0.1361 -0.3926
  568loPI   GL1 9077   0.719  10.053  10.165  0.4019  0.0416 -0.0237
  568loPI   GL2 9078   0.739  10.447  10.134  0.1080 -0.3507  0.1231
  568loPI   C1A 9079   0.547  10.179   9.769 -0.2241  0.2329 -0.0616
  568loPI   C2A 9080   0.459  10.233   9.334 -0.0993 -0.1003  0.1193
  568loPI   C3A 9081   0.477  10.376   8.992 -0.0354  0.1012  0.1087
  568loPI   C4A 9082   0.502  10.305   8.637 -0.0318  0.1982 -0.0378
  568loPI   C5A 9083   0.587  10.255   8.083  0.2184  0.2711  0.0577
  568loPI   C6A 9084   0.384  10.133   7.694 -0.1245 -0.1184  0.0584
  568loPI   C1B 9085   1.019  10.675   9.878 -0.0290 -0.0070 -0.2767
  568loPI   C2B 9086   1.209  10.777   9.534 -0.0558 -0.2156  0.2894
  568loPI   C3B 9087   1.379  10.957   9.138 -0.2212  0.1905  0.0744
  568loPI   C4B 9088   1.390  10.915   8.656 -0.0154 -0.1457 -0.1157
  569loPI    C1 9089  13.260  17.465  10.385 -0.0614 -0.2545 -0.2379
  569loPI    C2 9090  12.993  17.491  10.681  0.1664  0.4373 -0.0746
  569loPI    C3 9091  13.323  17.270  10.729 -0.1785 -0.1104 -0.1335
  569loPI   PO4 9092  13.036  17.331  10.209  0.0970  0.1582  0.0665
  569loPI   GL1 9093  12.770  17.530   9.870 -0.0425 -0.0095 -0.0912
  569loPI   GL2 9094  12.764  17.671   9.589  0.2717  0.0899  0.2426
  569loPI   C1A 9095  12.437  17.223   9.509 -0.1532 -0.0275 -0.1038
  569loPI   C2A 9096  12.227  17.244   9.105  0.1749  0.0124  0.1033
  569loPI   C3A 9097  12.077  17.213   8.669 -0.1905 -0.2673  0.0548
  569loPI   C4A 9098  11.784  17.077   8.283 -0.1078 -0.1100  0.0601
  569loPI   C5A 9099  11.527  16.945   7.960  0.1857 -0.0680  0.0154
  569loPI   C6A 9100  11.692  16.770   7.582 -0.2698  0.1257 -0.1532
  569loPI   C1B 9101  12.695  17.566   9.209 -0.0299  0.2457  0.1275
  569loPI   C2B 9102  12.685  17.399   8.755 -0.2323 -0.0420 -0.0367
  569loPI   C3B 9103  12.668  17.333   8.383  0.0002 -0.1134 -0.0383
  569loPI   C4B 9104  12.788  16.935   8.104 -0.1196  0.1519  0.0970
  570loPI    C1 9105  12.265   9.063  11.110 -0.0006  0.0845  0.0063
  570loPI    C2 9106  12.644   9.000  11.221 -0.0060  0.0137 -0.0150
  570loPI    C3 9107  12.373   9.116  11.491 -0.0286 -0.1993  0.0554
  570loPI   PO4 9108  12.293   9.231  10.795 -0.2062  0.0628 -0.0115
  570loPI   GL1 9109  12.122   9.260  10.345  0.0095  0.1597 -0.2926
  570loPI   GL2 9110  12.400   9.337  10.350  0.2085  0.4440  0.1473
  570loPI   C1A 9111  11.965   9.377   9.988 -0.0445  0.0611 -0.0413
  570loPI   C2A 9112  11.910   9.310   9.559  0.0226  0.0794  0.2348
  570loPI   C3A 9113  11.811   9.276   9.126  0.0484 -0.0029 -0.3356
  570loPI   C4A 9114  11.856   9.252   8.747  0.2727 -0.0105 -0.0853
  570loPI   C5A 9115  11.855   9.471   8.360  0.2053  0.2652 -0.0995
  570loPI   C6A 9116  11.927   9.838   8.105 -0.0769 -0.0453  0.1897
  570loPI   C1B 9117  12.458   9.266   9.949  0.1272 -0.0868 -0.1219
  570loPI   C2B 9118  12.451   9.403   9.563  0.2072 -0.1855 -0.1572
  570loPI   C3B 9119  12.310   9.468   9.173  0.1803  0.0137  0.0606
  570loPI   C4B 9120  12.357   9.429   8.764 -0.1231  0.0648  0.1232
  571loPI    C1 9121  11.283   3.081   9.942 -0.0324 -0.1076 -0.0296
  571loPI    C2 9122  11.500   3.174  10.265 -0.1534  0.1490 -0.0194
  571loPI    C3 9123  11.113   3.081  10.304 -0.1065 -0.0703 -0.0640
  571loPI   PO4 9124  11.465   3.105   9.765 -0.0702 -0.0093 -0.1248
  571loPI   GL1 9125  11.379   2.879   9.416  0.0090 -0.0121  0.1151
  571loPI   GL2 9126  11.560   2.637   9.454  0.0848  0.1260 -0.0208
  571loPI   C1A 9127  11.443   2.956   8.960  0.0722 -0.0650  0.3567
  571loPI   C2A 9128  11.353   2.946   8.511 -0.0097 -0.2261 -0.3260
  571loPI   C3A 9129  11.419   2.853   8.180 -0.1156  0.0028 -0.3234
  571loPI   C4A 9130  11.530   2.787   7.662  0.1338 -0.0382 -0.1023
  571loPI   C5A 9131  11.397   2.885   7.135  0.4813  0.2536  0.0852
  571loPI   C6A 9132  11.246   2.782   6.666 -0.0119 -0.0276 -0.2389
  571loPI   C1B 9133  11.238   2.470   9.175 -0.2821 -0.1771 -0.0506
  571loPI   C2B 9134  11.208   2.480   8.779 -0.0917 -0.0512  0.3946
  571loPI   C3B 9135  11.327   2.405   8.352 -0.0280 -0.0316 -0.0611
  571loPI   C4B 9136  11.185   2.418   7.934  0.0729 -0.1027 -0.3528
  572loPI    C1 9137   9.128  10.047  10.394 -0.1130  0.3166  0.0132
  572loPI    C2 9138   8.950   9.796  10.138 -0.0706  0.2253  0.0723
  572loPI    C3 9139   8.731   9.999  10.405 -0.0624 -0.0893  0.3243
  572loPI   PO4 9140   9.359   9.756  10.396 -0.1339 -0.0018  0.0957
  572loPI   GL1 9141   9.444   9.537  10.057 -0.2920  0.1223  0.1922
  572loPI   GL2 9142   9.717   9.415   9.989  0.0932 -0.1252  0.2154
  572loPI   C1A 9143   9.521   9.793   9.736  0.0721 -0.0560 -0.0567
  572loPI   C2A 9144   9.396   9.821   9.381 -0.0700 -0.4230 -0.1001
  572loPI   C3A 9145   9.411   9.749   9.029 -0.1900  0.2941  0.0398
  572loPI   C4A 9146   9.496   9.444   8.627  0.5187 -0.2470  0.1678
  572loPI   C5A 9147   9.306   9.209   8.337  0.0394  0.0317 -0.2771
  572loPI   C6A 9148   9.491   8.906   7.987 -0.2722 -0.0205 -0.1898
  572loPI   C1B 9149   9.701   9.386   9.463  0.1180 -0.0575  0.0978
  572loPI   C2B 9150   9.834   9.426   9.151  0.0308 -0.0234  0.0351
  572loPI   C3B 9151  10.005   9.592   8.670 -0.1829 -0.0676 -0.2868
  572loPI   C4B 9152   9.819   9.675   8.229 -0.0284  0.0765 -0.2278
  573loPI    C1 9153   3.877  14.759  10.599  0.1188  0.1202  0.1610
  573loPI    C2 9154   3.480  14.723  10.640  0.1098 -0.0274 -0.0383
  573loPI    C3 9155   3.719  14.414  10.726  0.1875  0.0808  0.1399
  573loPI   PO4 9156   3.890  14.863  10.303 -0.0445  0.0078  0.0216
  573loPI   GL1 9157   4.072  14.679   9.956 -0.1896 -0.2435 -0.0538
  573loPI   GL2 9158   3.800  14.489   9.962 -0.2963  0.0772  0.0651
  573loPI   C1A 9159   3.971  14.775   9.548 -0.0161 -0.1357  0.1216
  573loPI   C2A 9160   3.900  14.608   9.092 -0.0507  0.0586  0.0036
  573loPI   C3A 9161   3.972  14.566   8.697  0.0830 -0.0576 -0.3566
  573loPI   C4A 9162   4.077  14.737   8.315 -0.0359  0.2759  0.0872
  573loPI   C5A 9163   3.760  14.695   7.995 -0.1034  0.1277  0.0478
  573loPI   C6A 9164   3.456  14.576   7.682  0.0771  0.0788  0.0096
  573loPI   C1B 9165   3.553  14.448   9.620 -0.0014 -0.1202 -0.0967
  573loPI   C2B 9166   3.500  14.347   9.254  0.0283  0.2470 -0.0126
  573loPI   C3B 9167   3.473  14.301   8.841 -0.2560 -0.3295  0.2601
  573loPI   C4B 9168   3.583  14.457   8.465  0.0261 -0.0837  0.1937
  574loPI    C1 9169   3.058   8.444  10.136 -0.0347 -0.1590  0.0370
  574loPI    C2 9170   2.880   8.372  10.487 -0.0160  0.1689  0.1171
  574loPI    C3 9171   3.227   8.193  10.398 -0.0735  0.0038  0.2198
  574loPI   PO4 9172   2.810   8.393   9.984 -0.2842  0.0609  0.0691
  574loPI   GL1 9173   2.753   8.299   9.551 -0.1678 -0.1464 -0.1530
  574loPI   GL2 9174   2.495   8.204   9.394 -0.2112 -0.0582 -0.1424
  574loPI   C1A 9175   2.894   8.541   9.174  0.1633 -0.1098 -0.3129
  574loPI   C2A 9176   2.922   8.903   8.918  0.0153 -0.1998 -0.1740
  574loPI   C3A 9177   2.850   9.084   8.462 -0.2954 -0.0232  0.1000
  574loPI   C4A 9178   2.860   8.865   8.034 -0.1785 -0.0565 -0.0150
  574loPI   C5A 9179   3.018   8.581   7.790 -0.1143  0.0960 -0.4009
  574loPI   C6A 9180   3.440   8.234   7.682 -0.1627 -0.0401 -0.1225
  574loPI   C1B 9181   2.421   8.393   9.097  0.1608  0.0299  0.0977
  574loPI   C2B 9182   2.627   8.594   8.683 -0.3354  0.1130  0.1778
  574loPI   C3B 9183   2.403   8.906   8.285 -0.1414  0.0562  0.0899
  574loPI   C4B 9184   2.086   9.052   7.960  0.0715 -0.1050  0.1751
  575loPI    C1 9185  17.678   9.500  10.446 -0.1708  0.0575  0.2265
  575loPI    C2 9186  17.683   9.113  10.345  0.0146  0.1525 -0.1467
  575loPI    C3 9187  17.370   9.341  10.244 -0.0260  0.1353 -0.0608
  575loPI   PO4 9188  17.911   9.607  10.336  0.2616  0.0572  0.1097
  575loPI   GL1 9189  18.027   9.709   9.853 -0.0566 -0.1924 -0.1480
  575loPI   GL2 9190  17.886   9.396   9.897  0.4338 -0.3710 -0.0575
  575loPI   C1A 9191  18.210   9.853   9.464 -0.1438  0.1529 -0.1720
  575loPI   C2A 9192  18.499  10.054   9.213  0.2147 -0.0228 -0.1680
  575loPI   C3A 9193  18.453  10.043   8.871  0.1930 -0.0629  0.1320
  575loPI   C4A 9194  18.568  10.103   8.430 -0.0209  0.0270  0.2701
  575loPI   C5A 9195  18.580   9.949   8.094  0.1485 -0.1687 -0.1851
  575loPI   C6A 9196  18.395  10.038   7.657  0.3970 -0.0991 -0.0436
  575loPI   C1B 9197  17.892   9.506   9.370 -0.1321 -0.0690 -0.0778
  575loPI   C2B 9198  18.062   9.757   9.032 -0.0502  0.1229 -0.1214
  575loPI   C3B 9199  17.940   9.685   8.632 -0.0602 -0.1886 -0.0493
  575loPI   C4B 9200  17.682   9.579   8.341 -0.0906  0.0318  0.0936
  576loPI    C1 9201   2.235   4.707  10.308  0.1734 -0.2058 -0.0188
  576loPI    C2 9202   1.919   4.490  10.422  0.0740 -0.0624 -0.0193
  576loPI    C3 9203   2.087   4.749  10.677 -0.0965  0.1976 -0.1658
  576loPI   PO4 9204   2.434   4.509  10.153 -0.1713  0.1868 -0.1077
  576loPI   GL1 9205   2.580   4.477   9.782 -0.1761 -0.0550 -0.1401
  576loPI   GL2 9206   2.459   4.756   9.711  0.1526  0.0134  0.1267
  576loPI   C1A 9207   2.611   4.383   9.389 -0.0936  0.1936 -0.2942
  576loPI   C2A 9208   2.749   4.178   9.003 -0.0192  0.0638  0.1256
  576loPI   C3A 9209   2.669   4.246   8.624  0.0266  0.0590  0.1871
  576loPI   C4A 9210   2.641   4.236   8.160  0.2670 -0.0230 -0.1056
  576loPI   C5A 9211   2.921   4.409   7.943 -0.0409  0.0390  0.1547
  576loPI   C6A 9212   3.302   4.638   7.792 -0.1350 -0.3254  0.0055
  576loPI   C1B 9213   2.568   4.865   9.276 -0.1210 -0.1208  0.1209
  576loPI   C2B 9214   2.443   4.620   8.866 -0.2521  0.2203 -0.1434
  576loPI   C3B 9215   2.409   4.656   8.424 -0.0755 -0.4221  0.0873
  576loPI   C4B 9216   2.598   4.776   7.953 -0.0334  0.0405  0.0053
  577loPI    C1 9217  17.824  11.148  10.215 -0.0181 -0.1578 -0.0298
  577loPI    C2 9218  17.781  11.253  10.599  0.0132  0.1281 -0.1020
  577loPI    C3 9219  18.009  10.939  10.501 -0.0364  0.0225  0.1160
  577loPI   PO4 9220  17.814  11.445  10.045  0.0810 -0.0345 -0.3664
  577loPI   GL1 9221  17.471  11.585   9.884  0.0402  0.1333  0.1233
  577loPI   GL2 9222  17.543  11.924   9.839  0.0102  0.1492  0.1581
  577loPI   C1A 9223  17.610  11.668   9.424 -0.3824 -0.2181  0.1344
  577loPI   C2A 9224  17.697  11.664   8.951  0.0649  0.3458  0.0156
  577loPI   C3A 9225  17.702  11.742   8.522 -0.3117 -0.1883 -0.0964
  577loPI   C4A 9226  17.451  11.635   8.187  0.0272  0.0950 -0.3565
  577loPI   C5A 9227  17.134  11.681   7.876 -0.3137  0.1617  0.2180
  577loPI   C6A 9228  16.814  11.600   7.576  0.3091  0.1505  0.0934
  577loPI   C1B 9229  17.140  11.896   9.649  0.1029  0.0677 -0.0439
  577loPI   C2B 9230  16.848  11.787   9.361  0.0379  0.0217  0.0856
  577loPI   C3B 9231  16.647  11.694   8.872  0.1071  0.0163  0.0259
  577loPI   C4B 9232  16.658  11.393   8.660  0.0347  0.1459  0.1807
  578loPI    C1 9233   6.884   0.748  10.567 -0.1932  0.0780 -0.0809
  578loPI    C2 9234   6.872   0.503  10.883  0.0477 -0.0586 -0.1743
  578loPI    C3 9235   6.879   0.900  10.937  0.2641 -0.0839 -0.0014
  578loPI   PO4 9236   7.008   0.567  10.398  0.0750 -0.0734  0.0407
  578loPI   GL1 9237   7.111   0.494   9.992  0.0219 -0.1803 -0.0605
  578loPI   GL2 9238   7.043   0.325   9.750 -0.5483  0.1426  0.0820
  578loPI   C1A 9239   6.789   0.769   9.790 -0.0913  0.1509  0.0453
  578loPI   C2A 9240   6.551   0.709   9.520  0.0496  0.0674  0.1235
  578loPI   C3A 9241   6.191   0.721   9.201 -0.0881 -0.0421 -0.0959
  578loPI   C4A 9242   6.153   0.789   8.810 -0.3015 -0.0860 -0.1149
  578loPI   C5A 9243   6.234   0.655   8.376 -0.0500  0.0334 -0.0188
  578loPI   C6A 9244   6.252   0.319   8.124 -0.0505  0.1830  0.2154
  578loPI   C1B 9245   7.047   0.246   9.350 -0.2032  0.0091  0.1813
  578loPI   C2B 9246   7.076   0.430   8.923 -0.0224  0.0881 -0.2293
  578loPI   C3B 9247   7.413   0.602   8.667 -0.0983  0.0791 -0.0019
  578loPI   C4B 9248   7.873   0.787   8.534  0.2113 -0.2073 -0.1977
  579loPI    C1 9249  10.952  12.664  10.882 -0.2496  0.0754  0.1489
  579loPI    C2 9250  11.005  12.447  11.213 -0.0693 -0.0929  0.0117
  579loPI    C3 9251  10.681  12.388  10.985 -0.0220 -0.2186 -0.0244
  579loPI   PO4 9252  11.291  12.694  10.683  0.1776  0.1961 -0.0363
  579loPI   GL1 9253  11.300  12.765  10.257  0.0175 -0.0517  0.1963
  579loPI   GL2 9254  11.419  13.042  10.414 -0.1031  0.0350 -0.0508
  579loPI   C1A 9255  11.320  12.651   9.911  0.0074  0.0237  0.1276
  579loPI   C2A 9256  11.659  12.896   9.571  0.1805 -0.0795  0.3507
  579loPI   C3A 9257  11.690  12.903   9.095 -0.1082 -0.0814 -0.1652
  579loPI   C4A 9258  11.902  12.906   8.699 -0.1972  0.3628  0.1475
  579loPI   C5A 9259  12.125  12.950   8.299  0.1605 -0.0525  0.0995
  579loPI   C6A 9260  12.165  12.984   7.861  0.1807 -0.0672 -0.3311
  579loPI   C1B 9261  11.622  13.126  10.012 -0.2162 -0.2364 -0.1944
  579loPI   C2B 9262  11.800  13.381   9.680  0.0614  0.0509 -0.2725
  579loPI   C3B 9263  11.863  13.363   9.300  0.1064 -0.0092 -0.0897
  579loPI   C4B 9264  11.799  13.391   8.880 -0.0080 -0.1065 -0.0998
  580loPI    C1 9265   9.754   7.210  11.058  0.1482 -0.2178  0.0276
  580loPI    C2 9266   9.458   6.943  11.090  0.1175 -0.2038 -0.1304
  580loPI    C3 9267   9.559   7.169  11.404  0.0700 -0.3235 -0.0285
  580loPI   PO4 9268   9.915   7.049  10.843 -0.1014 -0.3457 -0.0234
  580loPI   GL1 9269  10.133   7.097  10.346 -0.1283 -0.1606 -0.0621
  580loPI   GL2 9270  10.385   7.225  10.159  0.0923 -0.3892  0.2417
  580loPI   C1A 9271   9.876   7.395  10.062 -0.1421  0.1380 -0.0293
  580loPI   C2A 9272   9.604   7.552   9.770 -0.0719  0.0139 -0.0800
  580loPI   C3A 9273   9.593   7.945   9.470  0.1520 -0.0162 -0.0021
  580loPI   C4A 9274   9.626   7.842   8.941 -0.1530 -0.2721 -0.2031
  580loPI   C5A 9275   9.901   7.627   8.678  0.2561 -0.0979 -0.0229
  580loPI   C6A 9276   9.902   7.620   8.231 -0.1732  0.0079 -0.0814
  580loPI   C1B 9277  10.284   7.519   9.725 -0.0022 -0.2585 -0.3222
  580loPI   C2B 9278  10.409   7.508   9.345 -0.1434  0.0978 -0.1555
  580loPI   C3B 9279  10.446   7.609   8.882  0.0368  0.0147 -0.0760
  580loPI   C4B 9280  10.370   7.533   8.426 -0.2992 -0.2073 -0.0350
  581loPI    C1 9281   4.504  16.590  10.631  0.0120 -0.1551 -0.0135
  581loPI    C2 9282   4.644  16.370  10.935  0.1319  0.0029  0.0474
  581loPI    C3 9283   4.370  16.653  11.003 -0.0852 -0.1824 -0.0439
  581loPI   PO4 9284   4.532  16.426  10.435 -0.0760  0.4402 -0.1327
  581loPI   GL1 9285   4.810  16.358  10.128 -0.0639 -0.2907  0.0204
  581loPI   GL2 9286   4.579  16.048  10.131  0.0290 -0.2322 -0.0886
  581loPI   C1A 9287   4.760  16.418   9.720  0.1864 -0.3176 -0.1626
  581loPI   C2A 9288   4.741  16.329   9.261 -0.2496  0.2165  0.0783
  581loPI   C3A 9289   4.727  16.212   8.864  0.0975  0.0424  0.1954
  581loPI   C4A 9290   4.875  16.223   8.457 -0.2003 -0.3501 -0.0580
  581loPI   C5A 9291   4.796  16.087   8.075  0.2732  0.0575  0.1314
  581loPI   C6A 9292   4.422  15.903   7.853 -0.1552 -0.2190  0.1020
  581loPI   C1B 9293   4.429  16.063   9.684 -0.0273 -0.1738  0.0120
  581loPI   C2B 9294   4.416  15.922   9.264  0.0429 -0.1449 -0.1521
  581loPI   C3B 9295   4.254  15.969   8.863 -0.5021  0.0106 -0.1496
  581loPI   C4B 9296   4.395  16.006   8.535  0.0003 -0.2660  0.1878
  582loPI    C1 9297   4.070  16.187  10.864  0.1307 -0.2295  0.0398
  582loPI    C2 9298   3.856  16.503  10.983  0.3142 -0.1107  0.0579
  582loPI    C3 9299   3.732  16.133  11.070  0.0538 -0.0476 -0.0363
  582loPI   PO4 9300   4.121  16.164  10.606 -0.0327  0.0666  0.2069
  582loPI   GL1 9301   4.107  16.204  10.147  0.3465 -0.0763  0.1103
  582loPI   GL2 9302   3.839  16.072  10.143  0.1446  0.0463  0.0948
  582loPI   C1A 9303   4.259  16.479   9.899  0.2159  0.1413  0.3384
  582loPI   C2A 9304   4.339  16.585   9.479  0.2909 -0.1369 -0.0856
  582loPI   C3A 9305   4.325  16.494   9.008 -0.2009 -0.1386  0.1336
  582loPI   C4A 9306   4.366  16.487   8.516  0.2517 -0.1405 -0.1702
  582loPI   C5A 9307   4.222  16.463   8.048 -0.0559 -0.0278 -0.2306
  582loPI   C6A 9308   4.414  16.594   7.691  0.1363 -0.0882 -0.0419
  582loPI   C1B 9309   3.909  16.190   9.644  0.1313  0.1620  0.2148
  582loPI   C2B 9310   3.997  16.217   9.271 -0.1658 -0.1460  0.0685
  582loPI   C3B 9311   3.848  16.200   8.914 -0.0693  0.0077 -0.0138
  582loPI   C4B 9312   3.905  16.241   8.370 -0.2286  0.1007 -0.0474
  583loPI    C1 9313   4.380  15.032  10.467  0.2692  0.1095  0.2559
  583loPI    C2 9314   4.195  15.097  10.816 -0.0540  0.1280  0.0845
  583loPI    C3 9315   4.455  15.365  10.674 -0.0847  0.2236  0.2076
  583loPI   PO4 9316   4.426  14.834  10.348  0.1616  0.0368  0.3349
  583loPI   GL1 9317   4.690  14.995  10.055 -0.2430  0.1327  0.2615
  583loPI   GL2 9318   4.913  15.168   9.904 -0.1619 -0.5104 -0.1888
  583loPI   C1A 9319   4.521  14.909   9.673 -0.1194  0.0354 -0.2449
  583loPI   C2A 9320   4.471  14.933   9.259 -0.3042  0.0757 -0.0437
  583loPI   C3A 9321   4.488  14.997   8.842 -0.3847  0.1025 -0.2639
  583loPI   C4A 9322   4.524  14.904   8.501  0.0466 -0.1033  0.3239
  583loPI   C5A 9323   4.474  14.998   8.081 -0.0381 -0.2236  0.2878
  583loPI   C6A 9324   4.739  15.097   7.710  0.0812  0.0346  0.0186
  583loPI   C1B 9325   4.915  15.150   9.483 -0.0913 -0.1661  0.3035
  583loPI   C2B 9326   4.810  15.245   9.065 -0.0685 -0.2007  0.2912
  583loPI   C3B 9327   4.861  15.231   8.635 -0.1163  0.1626 -0.1189
  583loPI   C4B 9328   4.849  15.190   8.271  0.1626  0.0496 -0.0536
  584loPI    C1 9329  12.100   3.998  10.365 -0.2374 -0.0126 -0.0480
  584loPI    C2 9330  12.349   4.035  10.675 -0.0408 -0.3457 -0.1608
  584loPI    C3 9331  11.955   4.004  10.737 -0.0721  0.2716  0.0146
  584loPI   PO4 9332  12.155   3.847  10.176 -0.0746 -0.1344  0.1236
  584loPI   GL1 9333  11.961   3.812   9.784 -0.0688 -0.1848  0.2502
  584loPI   GL2 9334  12.171   3.621   9.623  0.2237 -0.0943 -0.4418
  584loPI   C1A 9335  11.824   4.039   9.383  0.1144 -0.0903 -0.3266
  584loPI   C2A 9336  11.737   4.004   9.059 -0.0713 -0.1879  0.0134
  584loPI   C3A 9337  11.642   4.055   8.629  0.2195  0.1266 -0.0373
  584loPI   C4A 9338  11.405   3.920   8.262 -0.2364  0.2748 -0.1034
  584loPI   C5A 9339  11.179   3.626   8.127 -0.0713  0.0022 -0.2514
  584loPI   C6A 9340  11.077   3.243   8.248  0.3187  0.1277  0.0679
  584loPI   C1B 9341  12.143   3.649   9.159 -0.1544 -0.1234 -0.0944
  584loPI   C2B 9342  12.008   3.710   8.712  0.0729  0.0931  0.2718
  584loPI   C3B 9343  11.940   3.808   8.287 -0.3763  0.0285  0.2702
  584loPI   C4B 9344  12.002   3.895   7.793  0.0024 -0.0724  0.1141
  585loPI    C1 9345  16.741   0.432  10.484 -0.1086  0.0019  0.2653
  585loPI    C2 9346  16.723   0.133  10.218  0.1796  0.2781 -0.0748
  585loPI    C3 9347  16.681   0.056  10.608  0.1076 -0.1833 -0.1675
  585loPI   PO4 9348  16.639   0.647  10.311  0.0858 -0.2804 -0.2371
  585loPI   GL1 9349  16.623   0.637   9.958 -0.2357 -0.1140  0.3343
  585loPI   GL2 9350  16.383   0.412   9.967 -0.0623  0.2143 -0.0595
  585loPI   C1A 9351  16.570   0.663   9.600  0.1584  0.0040  0.0457
  585loPI   C2A 9352  16.597   0.620   9.123  0.2642  0.0361  0.1404
  585loPI   C3A 9353  16.611   0.771   8.660  0.0805  0.1537 -0.1859
  585loPI   C4A 9354  16.499   0.858   8.217  0.2458 -0.0163 -0.0144
  585loPI   C5A 9355  16.438   0.638   7.843  0.0339 -0.0091  0.0749
  585loPI   C6A 9356  16.309   0.752   7.485 -0.0024  0.1007  0.1650
  585loPI   C1B 9357  16.380   0.186   9.667  0.0924 -0.0644  0.0903
  585loPI   C2B 9358  16.596   0.121   9.312  0.0627  0.1759 -0.2098
  585loPI   C3B 9359  16.393   0.166   9.000  0.2463  0.2217 -0.2488
  585loPI   C4B 9360  16.397   0.126   8.526  0.0664 -0.0440 -0.3209
  586loPI    C1 9361   9.238  16.493  10.218  0.1593  0.1006  0.0178
  586loPI    C2 9362   9.578  16.283  10.202 -0.0614 -0.2458 -0.3036
  586loPI    C3 9363   9.356  16.280  10.535  0.2218 -0.0538 -0.1080
  586loPI   PO4 9364   9.282  16.689  10.071 -0.0850  0.1844 -0.4506
  586loPI   GL1 9365   9.664  16.704   9.891 -0.1708  0.0712 -0.2307
  586loPI   GL2 9366   9.779  16.411   9.775 -0.2825  0.0800  0.0883
  586loPI   C1A 9367   9.873  16.920   9.563 -0.0101  0.2741 -0.1169
  586loPI   C2A 9368   9.822  16.898   9.090  0.2257 -0.0281  0.0328
  586loPI   C3A 9369   9.716  16.800   8.673  0.0786  0.0044 -0.0474
  586loPI   C4A 9370   9.798  16.635   8.289 -0.4472 -0.1990  0.1185
  586loPI   C5A 9371   9.964  16.242   8.222  0.0300  0.2053 -0.1732
  586loPI   C6A 9372   9.914  15.891   8.005  0.2600  0.0166 -0.1278
  586loPI   C1B 9373   9.727  16.468   9.377  0.1736  0.1696 -0.0483
  586loPI   C2B 9374   9.532  16.474   8.998 -0.1518 -0.0008  0.0836
  586loPI   C3B 9375   9.542  16.314   8.548  0.0652 -0.0669 -0.0107
  586loPI   C4B 9376   9.477  16.186   8.077 -0.0012  0.2099  0.0968
  587loPI    C1 9377  11.407   5.241  10.661 -0.0157 -0.0338  0.1169
  587loPI    C2 9378  11.668   4.939  10.638  0.0804  0.0679 -0.1730
  587loPI    C3 9379  11.612   5.129  10.986  0.1326 -0.1813 -0.0256
  587loPI   PO4 9380  11.454   5.411  10.468  0.6061  0.0620 -0.0447
  587loPI   GL1 9381  11.257   5.430  10.113 -0.0813 -0.0885  0.2216
  587loPI   GL2 9382  11.529   5.599  10.002  0.1732  0.3854  0.4925
  587loPI   C1A 9383  11.413   5.171   9.674  0.0804  0.2676  0.2930
  587loPI   C2A 9384  11.341   4.823   9.299 -0.2182  0.3765 -0.4003
  587loPI   C3A 9385  11.262   4.924   8.993  0.0990  0.1571  0.1080
  587loPI   C4A 9386  11.475   5.030   8.675  0.1865  0.2702 -0.1838
  587loPI   C5A 9387  11.689   4.883   8.352  0.0263 -0.0852 -0.1855
  587loPI   C6A 9388  11.855   4.728   7.917  0.0361  0.1165  0.0297
  587loPI   C1B 9389  11.552   5.702   9.607  0.4363 -0.0998  0.0786
  587loPI   C2B 9390  11.720   5.869   9.193 -0.4414 -0.3635 -0.1572
  587loPI   C3B 9391  11.778   5.994   8.768 -0.0033  0.4190  0.2049
  587loPI   C4B 9392  11.759   6.120   8.311 -0.0255  0.1775  0.1682
  588loPI    C1 9393   0.266   9.278  10.437 -0.1785  0.0661 -0.1939
  588loPI    C2 9394   0.415   9.358  10.799 -0.2642 -0.2181 -0.0923
  588loPI    C3 9395   0.061   9.175  10.765 -0.2730 -0.1617 -0.3215
  588loPI   PO4 9396   0.394   9.298  10.238 -0.0441  0.0329 -0.1109
  588loPI   GL1 9397   0.285   9.006   9.883 -0.1316  0.0941  0.1239
  588loPI   GL2 9398   0.485   9.235   9.770 -0.2481  0.0975 -0.1058
  588loPI   C1A 9399   0.089   8.915   9.461 -0.1222 -0.0291  0.1561
  588loPI   C2A 9400  -0.316   9.052   9.291 -0.2898  0.0661  0.4069
  588loPI   C3A 9401  -0.562   9.188   9.040 -0.0825 -0.2170 -0.2697
  588loPI   C4A 9402  -0.733   9.098   8.591 -0.1422  0.1904  0.2227
  588loPI   C5A 9403  -0.730   9.141   8.168 -0.3481 -0.3742 -0.0089
  588loPI   C6A 9404  -0.685   9.460   7.862  0.2499  0.5555 -0.0489
  588loPI   C1B 9405   0.445   9.183   9.237 -0.1996  0.5981  0.0131
  588loPI   C2B 9406   0.152   8.995   8.900 -0.1025  0.1131 -0.0323
  588loPI   C3B 9407  -0.219   9.043   8.726 -0.0678  0.1670  0.0372
  588loPI   C4B 9408  -0.282   9.226   8.370 -0.0926 -0.1010 -0.1424
  589loPI    C1 9409   9.747  15.886  10.976  0.0650  0.1568  0.1890
  589loPI    C2 9410   9.741  15.496  11.063  0.0595  0.0802 -0.1402
  589loPI    C3 9411   9.579  15.760  11.316 -0.0125 -0.1382  0.0448
  589loPI   PO4 9412   9.692  15.944  10.750 -0.2452 -0.0370 -0.0560
  589loPI   GL1 9413   9.849  15.812  10.416 -0.1783  0.2050 -0.0747
  589loPI   GL2 9414   9.544  15.770  10.245 -0.1926  0.3067  0.0339
  589loPI   C1A 9415   9.941  15.953   9.996  0.1118 -0.0138  0.1905
  589loPI   C2A 9416   9.876  15.916   9.552 -0.3189 -0.2046 -0.3089
  589loPI   C3A 9417   9.796  15.949   9.065 -0.0452  0.1602  0.1807
  589loPI   C4A 9418   9.802  15.795   8.708  0.0629  0.1666  0.1979
  589loPI   C5A 9419   9.771  15.530   8.337 -0.0797  0.0100 -0.0717
  589loPI   C6A 9420   9.447  15.203   8.225 -0.3602  0.0249  0.0543
  589loPI   C1B 9421   9.569  15.542   9.944 -0.0481  0.1183 -0.0070
  589loPI   C2B 9422   9.551  15.527   9.472  0.1286  0.0973 -0.0319
  589loPI   C3B 9423   9.475  15.427   9.025  0.0494 -0.3792 -0.1232
  589loPI   C4B 9424   9.547  15.165   8.712 -0.3033 -0.0621  0.0941
  590loPI    C1 9425   0.385   7.626  10.079  0.1838  0.0988 -0.1925
  590loPI    C2 9426   0.500   7.243  10.096 -0.1121  0.0174  0.1030
  590loPI    C3 9427   0.520   7.472  10.423 -0.3913  0.1167  0.0530
  590loPI   PO4 9428   0.475   7.693   9.887 -0.0851 -0.4211  0.0172
  590loPI   GL1 9429   0.586   7.739   9.383 -0.1216  0.0012 -0.2621
  590loPI   GL2 9430   0.944   7.853   9.461  0.2703 -0.1260 -0.1077
  590loPI   C1A 9431   0.326   7.663   8.979 -0.1272  0.0549  0.1119
  590loPI   C2A 9432   0.380   7.670   8.577 -0.1622  0.3717 -0.1955
  590loPI   C3A 9433   0.295   7.638   8.109  0.1338 -0.1233 -0.0148
  590loPI   C4A 9434  -0.023   7.797   7.849 -0.0852 -0.1151  0.2342
  590loPI   C5A 9435  -0.555   7.638   7.727  0.0297  0.0515 -0.2011
  590loPI   C6A 9436  -0.921   7.564   7.976  0.2548  0.1642 -0.3322
  590loPI   C1B 9437   0.858   8.055   9.042 -0.1559 -0.2802  0.1186
  590loPI   C2B 9438   0.786   7.941   8.584 -0.0870  0.0675  0.1259
  590loPI   C3B 9439   0.788   7.766   8.240 -0.2843 -0.2419  0.1939
  590loPI   C4B 9440   0.942   7.644   7.762 -0.0171 -0.1168  0.0823
  591loPI    C1 9441   1.760  13.158  10.569 -0.0638  0.0577 -0.2095
  591loPI    C2 9442   1.526  12.860  10.441 -0.0546 -0.0458  0.0101
  591loPI    C3 9443   1.598  12.904  10.832  0.1313  0.1063 -0.0397
  591loPI   PO4 9444   1.953  13.110  10.391 -0.0527  0.2381  0.3289
  591loPI   GL1 9445   2.200  13.078  10.080 -0.0580  0.0589 -0.0129
  591loPI   GL2 9446   2.076  12.733  10.062 -0.2107  0.3480 -0.0775
  591loPI   C1A 9447   2.205  13.053   9.684 -0.0445  0.0015  0.1727
  591loPI   C2A 9448   2.229  13.055   9.305 -0.0347 -0.1887 -0.1043
  591loPI   C3A 9449   2.221  13.059   8.903 -0.2508 -0.0987 -0.1794
  591loPI   C4A 9450   2.212  12.981   8.486 -0.0175 -0.1207  0.3520
  591loPI   C5A 9451   2.188  12.970   8.077 -0.2499  0.3928  0.2674
  591loPI   C6A 9452   2.304  12.812   7.645 -0.0390 -0.0723  0.0581
  591loPI   C1B 9453   1.794  12.691   9.664  0.1170 -0.0228  0.4048
  591loPI   C2B 9454   1.839  12.758   9.242  0.1031  0.0096 -0.1771
  591loPI   C3B 9455   1.830  12.786   8.770 -0.0836  0.0927  0.4475
  591loPI   C4B 9456   1.767  12.810   8.308  0.0542 -0.2999 -0.0939
  592loPI    C1 9457  15.182   6.698  10.219  0.0157  0.0063 -0.1732
  592loPI    C2 9458  15.035   6.485  10.524  0.1429  0.0373 -0.0894
  592loPI    C3 9459  15.236   6.823  10.595  0.0892  0.0958 -0.2132
  592loPI   PO4 9460  15.274   6.519  10.058 -0.0144  0.1289 -0.1647
  592loPI   GL1 9461  15.149   6.470   9.680 -0.1953  0.0081  0.0443
  592loPI   GL2 9462  14.936   6.098   9.726 -0.1896 -0.1150 -0.0941
  592loPI   C1A 9463  15.071   6.368   9.329  0.1865  0.1149  0.1159
  592loPI   C2A 9464  15.226   6.310   8.880 -0.0946  0.2313  0.2040
  592loPI   C3A 9465  15.211   6.260   8.549  0.0369 -0.0450  0.0747
  592loPI   C4A 9466  15.069   6.278   8.250  0.0610  0.4498  0.0335
  592loPI   C5A 9467  15.076   6.664   7.892  0.3375  0.1571 -0.2939
  592loPI   C6A 9468  14.899   6.893   7.638 -0.1615 -0.0839 -0.0412
  592loPI   C1B 9469  14.913   5.857   9.335  0.0205 -0.0793  0.1295
  592loPI   C2B 9470  14.972   5.915   8.879 -0.3744 -0.0007  0.0484
  592loPI   C3B 9471  14.947   5.742   8.550 -0.1518 -0.0083  0.0833
  592loPI   C4B 9472  15.124   5.785   8.107 -0.2084 -0.1238  0.1569
  593loPI    C1 9473   6.809  11.288   9.929 -0.2118  0.1487  0.1574
  593loPI    C2 9474   6.735  11.396  10.307  0.1271 -0.0028  0.2714
  593loPI    C3 9475   7.000  11.106  10.230  0.0158 -0.0162 -0.0813
  593loPI   PO4 9476   6.658  11.379   9.785  0.1047  0.0531 -0.1616
  593loPI   GL1 9477   6.491  11.535   9.529 -0.0353 -0.0115  0.4362
  593loPI   GL2 9478   6.358  11.259   9.417  0.2028 -0.1004  0.1095
  593loPI   C1A 9479   6.720  11.552   9.124 -0.0428 -0.0695  0.0303
  593loPI   C2A 9480   6.753  11.660   8.638 -0.2363  0.0305 -0.2671
  593loPI   C3A 9481   6.908  11.415   8.254 -0.1715 -0.0207  0.0414
  593loPI   C4A 9482   7.204  11.328   7.961  0.2177  0.2004  0.0800
  593loPI   C5A 9483   7.558  11.482   7.695  0.2874  0.0015 -0.1035
  593loPI   C6A 9484   7.922  11.521   7.746 -0.3429 -0.1576 -0.2333
  593loPI   C1B 9485   6.312  11.398   8.958 -0.0210  0.0227  0.1086
  593loPI   C2B 9486   6.327  11.404   8.430  0.0198  0.2016 -0.3624
  593loPI   C3B 9487   6.273  11.609   8.014 -0.1694  0.0259 -0.0763
  593loPI   C4B 9488   6.186  11.784   7.690  0.2646  0.0756  0.1515
  594loPI    C1 9489   0.311   5.979  10.426 -0.2310  0.0421  0.0963
  594loPI    C2 9490   0.576   5.740  10.607 -0.0581  0.0323 -0.1628
  594loPI    C3 9491   0.184   5.671  10.646 -0.0189 -0.0720  0.0623
  594loPI   PO4 9492   0.311   5.934  10.059 -0.0054  0.1314  0.1978
  594loPI   GL1 9493   0.260   5.757   9.641 -0.0376 -0.1048 -0.3045
  594loPI   GL2 9494  -0.102   5.865   9.618  0.0442  0.1445  0.0761
  594loPI   C1A 9495   0.574   5.884   9.322  0.2288  0.0408  0.0966
  594loPI   C2A 9496   0.561   5.899   8.819 -0.0445 -0.0922  0.0383
  594loPI   C3A 9497   0.493   5.812   8.413  0.0645 -0.2510  0.0607
  594loPI   C4A 9498   0.331   5.808   7.961  0.1149  0.0188 -0.0695
  594loPI   C5A 9499   0.114   6.139   7.738 -0.0237  0.1703 -0.2382
  594loPI   C6A 9500  -0.279   6.153   7.981 -0.3042  0.1406 -0.0556
  594loPI   C1B 9501  -0.034   5.747   9.224  0.0850 -0.3205  0.2100
  594loPI   C2B 9502   0.012   5.885   8.785  0.4923 -0.2856 -0.1740
  594loPI   C3B 9503  -0.061   5.988   8.387  0.2424  0.0864  0.1144
  594loPI   C4B 9504  -0.100   5.643   8.192 -0.5496 -0.1380  0.0359
  595loPI    C1 9505   4.718   6.671  10.277 -0.2636 -0.2797 -0.3705
  595loPI    C2 9506   4.356   6.837  10.321 -0.0854  0.0454 -0.0740
  595loPI    C3 9507   4.537   6.666  10.634 -0.0135 -0.1888 -0.2401
  595loPI   PO4 9508   4.681   6.662   9.985 -0.0715  0.0760 -0.0151
  595loPI   GL1 9509   4.412   6.583   9.573  0.1172 -0.1488 -0.2957
  595loPI   GL2 9510   4.573   6.303   9.513 -0.0311 -0.1211 -0.1957
  595loPI   C1A 9511   4.375   6.534   9.143 -0.1081 -0.3787 -0.0338
  595loPI   C2A 9512   4.395   6.605   8.685 -0.1410  0.0748  0.4127
  595loPI   C3A 9513   4.306   6.632   8.198 -0.2886  0.1951  0.2416
  595loPI   C4A 9514   4.265   6.426   7.720 -0.1562 -0.3621 -0.3008
  595loPI   C5A 9515   3.982   6.295   7.389  0.2014 -0.4114 -0.0064
  595loPI   C6A 9516   3.555   6.320   7.160 -0.3875 -0.0300 -0.1170
  595loPI   C1B 9517   4.702   6.128   9.204  0.3586  0.0705 -0.0032
  595loPI   C2B 9518   4.653   6.193   8.838 -0.2819 -0.0573  0.3800
  595loPI   C3B 9519   4.489   6.127   8.387 -0.1967  0.1866  0.0882
  595loPI   C4B 9520   4.301   5.921   8.114 -0.2810  0.2401 -0.0751
  596loPI    C1 9521   2.549  11.720  10.683  0.0135  0.1767  0.1415
  596loPI    C2 9522   2.865  11.496  10.583 -0.0070  0.1574  0.1198
  596loPI    C3 9523   2.548  11.327  10.760 -0.1009  0.1347 -0.0680
  596loPI   PO4 9524   2.629  11.953  10.411 -0.1327 -0.0288  0.2354
  596loPI   GL1 9525   2.869  12.233  10.167  0.1815 -0.2270  0.2371
  596loPI   GL2 9526   3.163  12.212  10.182 -0.0155 -0.1212  0.0670
  596loPI   C1A 9527   2.757  12.281   9.689 -0.1502 -0.0456 -0.2645
  596loPI   C2A 9528   2.764  12.178   9.303 -0.2366  0.3740  0.1591
  596loPI   C3A 9529   2.740  12.275   8.871 -0.2410  0.0909 -0.1127
  596loPI   C4A 9530   2.794  12.119   8.426  0.0804 -0.0325 -0.1126
  596loPI   C5A 9531   2.868  11.787   8.063 -0.0627 -0.0133 -0.1774
  596loPI   C6A 9532   2.576  11.509   7.887 -0.1251  0.0497 -0.0135
  596loPI   C1B 9533   3.186  12.089   9.679 -0.1814  0.1867 -0.2894
  596loPI   C2B 9534   3.252  11.987   9.234 -0.1595 -0.2707 -0.1367
  596loPI   C3B 9535   3.163  11.991   8.697  0.0137  0.0943 -0.1243
  596loPI   C4B 9536   3.249  12.056   8.248  0.2255  0.1690 -0.1189
  597loPI    C1 9537   0.345   0.736  10.012 -0.0872  0.0471  0.2903
  597loPI    C2 9538   0.440   0.775  10.399  0.0733  0.0003  0.2564
  597loPI    C3 9539   0.461   0.416  10.223  0.0407  0.0290  0.1937
  597loPI   PO4 9540   0.496   0.926   9.897 -0.3018 -0.0543  0.1160
  597loPI   GL1 9541   0.632   0.935   9.420  0.2846 -0.0375  0.3485
  597loPI   GL2 9542   0.621   0.659   9.274  0.0606 -0.0063 -0.0770
  597loPI   C1A 9543   0.569   1.242   9.081 -0.0793  0.0821 -0.1321
  597loPI   C2A 9544   0.668   1.257   8.685 -0.1048 -0.3474  0.0098
  597loPI   C3A 9545   0.668   1.125   8.325  0.0052 -0.1439  0.1486
  597loPI   C4A 9546   0.850   1.052   8.035 -0.0522  0.3145  0.2742
  597loPI   C5A 9547   0.876   0.877   7.635 -0.1384  0.0977 -0.1121
  597loPI   C6A 9548   1.235   0.845   7.275  0.1016  0.0808 -0.0992
  597loPI   C1B 9549   0.891   0.792   9.004 -0.1229 -0.0007 -0.3937
  597loPI   C2B 9550   0.975   0.812   8.514  0.1350 -0.3203 -0.1652
  597loPI   C3B 9551   1.049   0.608   8.068 -0.0736 -0.1258 -0.1218
  597loPI   C4B 9552   1.193   0.416   7.658  0.3801  0.0439 -0.0929
  598loPI    C1 9553   2.053   1.054  10.567 -0.1382  0.0006 -0.0282
  598loPI    C2 9554   2.041   0.905  10.938 -0.2609 -0.2477 -0.1295
  598loPI    C3 9555   1.736   1.124  10.800 -0.0547  0.1574  0.0399
  598loPI   PO4 9556   2.302   0.997  10.535  0.2166  0.2091 -0.0404
  598loPI   GL1 9557   2.589   1.017  10.185  0.1217 -0.1687 -0.0199
  598loPI   GL2 9558   2.227   1.015  10.034  0.1437  0.0628  0.1527
  598loPI   C1A 9559   2.890   1.092   9.858 -0.1025  0.2263  0.0967
  598loPI   C2A 9560   2.961   1.100   9.445 -0.4065 -0.1333 -0.1081
  598loPI   C3A 9561   2.951   1.218   9.045 -0.0593  0.2680  0.0176
  598loPI   C4A 9562   2.864   1.151   8.589  0.1111  0.0685  0.0522
  598loPI   C5A 9563   2.761   1.305   8.199 -0.0490  0.0378  0.0846
  598loPI   C6A 9564   2.427   1.390   7.911 -0.0547 -0.1571  0.1012
  598loPI   C1B 9565   2.342   0.971   9.665  0.0088  0.0754  0.2485
  598loPI   C2B 9566   2.463   1.093   9.267 -0.5591 -0.1397  0.1761
  598loPI   C3B 9567   2.335   1.026   8.870  0.0166 -0.1740 -0.1499
  598loPI   C4B 9568   2.397   1.012   8.379 -0.0543 -0.2923 -0.2343
  599loPI    C1 9569   1.197  15.818  10.351  0.1339 -0.0315 -0.0608
  599loPI    C2 9570   0.920  16.101  10.407  0.2007  0.0123  0.0523
  599loPI    C3 9571   1.152  15.986  10.712  0.4798  0.1577 -0.1007
  599loPI   PO4 9572   1.094  15.632  10.209 -0.1214 -0.1115 -0.0215
  599loPI   GL1 9573   1.198  15.771   9.766  0.2441 -0.0304 -0.0093
  599loPI   GL2 9574   1.261  16.046   9.805 -0.1416  0.2610  0.1102
  599loPI   C1A 9575   1.288  15.574   9.453  0.0019 -0.1247 -0.0041
  599loPI   C2A 9576   1.196  15.493   9.008 -0.4373  0.0782 -0.2263
  599loPI   C3A 9577   1.006  15.312   8.640 -0.0810  0.2044  0.1267
  599loPI   C4A 9578   0.710  15.240   8.289  0.0219 -0.1465  0.1937
  599loPI   C5A 9579   0.572  15.293   7.971 -0.4901  0.3689  0.3774
  599loPI   C6A 9580   0.187  15.178   7.771  0.1193 -0.0193 -0.1460
  599loPI   C1B 9581   1.108  16.281   9.452  0.2325 -0.0753 -0.0868
  599loPI   C2B 9582   1.136  16.239   9.053 -0.0175  0.0416 -0.1377
  599loPI   C3B 9583   1.272  16.105   8.651  0.0309 -0.0289 -0.0362
  599loPI   C4B 9584   1.260  15.899   8.231  0.1503 -0.2131 -0.4074
  600loPI    C1 9585  17.958   0.214  10.135 -0.3117  0.1914  0.1276
  600loPI    C2 9586  17.576   0.329  10.166 -0.3433  0.0533  0.2597
  600loPI    C3 9587  17.667  -0.060  10.146 -0.2200  0.0905  0.0632
  600loPI   PO4 9588  18.078   0.371   9.985  0.0012 -0.0085 -0.0330
  600loPI   GL1 9589  18.167   0.431   9.633 -0.3351 -0.3018  0.1260
  600loPI   GL2 9590  18.347   0.188   9.446 -0.0640  0.3713  0.2641
  600loPI   C1A 9591  17.970   0.469   9.265  0.0586 -0.0516  0.0544
  600loPI   C2A 9592  17.957   0.568   8.773  0.3029 -0.2298 -0.1091
  600loPI   C3A 9593  17.958   0.503   8.299 -0.0107  0.0076  0.0513
  600loPI   C4A 9594  18.046   0.281   7.864 -0.0398 -0.4744 -0.0963
  600loPI   C5A 9595  17.989  -0.167   7.909  0.0846  0.0274  0.0423
  600loPI   C6A 9596  18.163  -0.550   7.857  0.0708  0.1551  0.0092
  600loPI   C1B 9597  18.337  -0.133   9.043  0.2514  0.4547  0.0285
  600loPI   C2B 9598  18.105  -0.269   8.720  0.1331  0.0440  0.1147
  600loPI   C3B 9599  18.295  -0.443   8.371  0.0024  0.2519  0.0121
  600loPI   C4B 9600  18.475  -0.965   8.235 -0.0687  0.0085  0.0744
  601loPI    C1 9601   5.792  15.350  10.605 -0.0848  0.2411  0.4374
  601loPI    C2 9602   5.823  14.970  10.726 -0.1960  0.1627  0.2235
  601loPI    C3 9603   6.099  15.237  10.837  0.0585 -0.0502  0.1151
  601loPI   PO4 9604   5.759  15.297  10.321 -0.1473  0.2830  0.0504
  601loPI   GL1 9605   5.898  15.553  10.033  0.1666  0.0351  0.3937
  601loPI   GL2 9606   5.901  15.303   9.822 -0.0903 -0.0589  0.2719
  601loPI   C1A 9607   5.839  15.812   9.653 -0.0288 -0.1966  0.0870
  601loPI   C2A 9608   5.692  15.719   9.258  0.2658 -0.2966  0.0906
  601loPI   C3A 9609   5.781  15.716   8.847  0.1958 -0.0256  0.2831
  601loPI   C4A 9610   5.747  15.702   8.287 -0.1794 -0.1609 -0.1953
  601loPI   C5A 9611   5.981  15.756   7.944  0.0560 -0.2164  0.2034
  601loPI   C6A 9612   6.104  15.687   7.520  0.0201  0.1489 -0.1100
  601loPI   C1B 9613   5.840  15.228   9.400  0.0362 -0.2568 -0.0178
  601loPI   C2B 9614   5.768  15.096   8.965  0.3173 -0.4822  0.1250
  601loPI   C3B 9615   5.791  15.204   8.502 -0.0481  0.2003  0.0218
  601loPI   C4B 9616   5.715  15.262   8.043 -0.3004 -0.0375  0.0486
  602loPI    C1 9617  18.365  17.370  10.500 -0.0531  0.1898 -0.1415
  602loPI    C2 9618  18.106  17.655  10.391 -0.3830 -0.0186  0.0784
  602loPI    C3 9619  18.151  17.563  10.778  0.0405  0.0282  0.0452
  602loPI   PO4 9620  18.451  17.268  10.307  0.2090 -0.0720  0.0033
  602loPI   GL1 9621  18.484  16.882  10.120 -0.0887 -0.0521 -0.1526
  602loPI   GL2 9622  18.323  16.984   9.850  0.1722 -0.2396  0.2125
  602loPI   C1A 9623  18.620  16.616   9.715 -0.1967 -0.0768 -0.0861
  602loPI   C2A 9624  18.699  16.624   9.248  0.2422 -0.0587  0.0001
  602loPI   C3A 9625  18.731  16.953   8.882  0.1522  0.0846  0.1498
  602loPI   C4A 9626  18.562  16.978   8.457  0.1598 -0.1247  0.0364
  602loPI   C5A 9627  18.431  17.033   8.044  0.0238  0.2454  0.1963
  602loPI   C6A 9628  18.617  17.019   7.618  0.2708 -0.0146 -0.0224
  602loPI   C1B 9629  18.253  16.836   9.453  0.3360  0.3507  0.0173
  602loPI   C2B 9630  18.216  16.895   9.074 -0.0892  0.0811  0.0734
  602loPI   C3B 9631  18.267  16.708   8.727 -0.1148 -0.1422 -0.1373
  602loPI   C4B 9632  17.994  16.326   8.595  0.0313  0.2370 -0.1332
  603loPI    C1 9633  14.708   1.867  10.607 -0.0369 -0.0392  0.0297
  603loPI    C2 9634  14.496   2.083  10.869  0.3042  0.0288  0.2573
  603loPI    C3 9635  14.660   1.736  10.982 -0.1395 -0.3014 -0.0727
  603loPI   PO4 9636  14.706   1.957  10.401 -0.3110 -0.0161 -0.2986
  603loPI   GL1 9637  14.622   2.075  10.111  0.3086  0.1344 -0.2691
  603loPI   GL2 9638  14.584   1.692  10.033  0.2693 -0.1349 -0.2289
  603loPI   C1A 9639  14.545   2.216   9.697 -0.3573  0.0008 -0.0690
  603loPI   C2A 9640  14.606   2.100   9.314  0.2955 -0.0185 -0.0143
  603loPI   C3A 9641  14.587   2.029   8.998 -0.3039  0.0886 -0.2090
  603loPI   C4A 9642  14.631   2.096   8.576  0.1884  0.1349  0.3146
  603loPI   C5A 9643  14.663   2.183   8.149  0.3085 -0.2865 -0.2094
  603loPI   C6A 9644  14.863   2.206   7.820 -0.1064 -0.0719 -0.0666
  603loPI   C1B 9645  14.548   1.688   9.602  0.3065  0.0995  0.0148
  603loPI   C2B 9646  14.460   1.578   9.148 -0.0869  0.2132  0.2688
  603loPI   C3B 9647  14.455   1.594   8.700 -0.3813  0.1470  0.1111
  603loPI   C4B 9648  14.560   1.693   8.232  0.2468 -0.2402 -0.0616
  604loPI    C1 9649   4.328   3.590  10.368 -0.1053  0.0410  0.1678
  604loPI    C2 9650   4.044   3.468  10.114  0.0508 -0.0850  0.0512
  604loPI    C3 9651   3.978   3.458  10.509 -0.1585  0.0228  0.0203
  604loPI   PO4 9652   4.526   3.621  10.151  0.0368  0.0616 -0.1469
  604loPI   GL1 9653   4.483   3.543   9.707 -0.2098  0.2820 -0.2866
  604loPI   GL2 9654   4.277   3.394   9.711 -0.0467  0.2482  0.1486
  604loPI   C1A 9655   4.459   3.509   9.278 -0.1209 -0.0123 -0.1341
  604loPI   C2A 9656   4.487   3.575   8.902  0.1057 -0.2094  0.1041
  604loPI   C3A 9657   4.343   3.490   8.497 -0.0601 -0.0526 -0.1662
  604loPI   C4A 9658   4.429   3.641   8.102  0.0465  0.0333  0.2113
  604loPI   C5A 9659   4.948   3.758   7.919 -0.1144 -0.3556  0.1248
  604loPI   C6A 9660   5.326   3.992   7.875 -0.0822 -0.2890  0.1599
  604loPI   C1B 9661   4.274   3.074   9.358 -0.0096  0.0548 -0.0947
  604loPI   C2B 9662   4.245   3.082   8.887  0.0386  0.0472 -0.1909
  604loPI   C3B 9663   4.087   3.078   8.465 -0.1745  0.1724  0.0798
  604loPI   C4B 9664   4.175   3.241   7.988  0.0341  0.1512 -0.1686
  605loPI    C1 9665   7.056  12.607  10.227 -0.2139  0.2048 -0.2257
  605loPI    C2 9666   7.102  12.543  10.619 -0.1579 -0.2899 -0.3074
  605loPI    C3 9667   6.908  12.868  10.491  0.0940  0.0387  0.1194
  605loPI   PO4 9668   7.283  12.636   9.973  0.5560 -0.3520  0.2378
  605loPI   GL1 9669   7.338  12.844   9.527  0.1441 -0.0812 -0.0973
  605loPI   GL2 9670   7.164  13.139   9.559  0.4280  0.0149  0.0913
  605loPI   C1A 9671   7.267  12.868   9.102 -0.1342  0.1477 -0.0394
  605loPI   C2A 9672   7.365  13.117   8.772 -0.1418 -0.2178  0.0225
  605loPI   C3A 9673   7.206  13.536   8.569  0.0996  0.1727  0.2799
  605loPI   C4A 9674   7.287  13.934   8.231 -0.2807  0.0947  0.1775
  605loPI   C5A 9675   7.491  14.222   8.067  0.0392 -0.0468 -0.0265
  605loPI   C6A 9676   7.932  14.314   7.730 -0.1765 -0.1618 -0.0828
  605loPI   C1B 9677   7.210  13.328   9.229 -0.0998  0.0024 -0.2416
  605loPI   C2B 9678   7.225  13.767   9.064  0.0223 -0.1748 -0.1728
  605loPI   C3B 9679   7.196  14.085   8.792  0.1435  0.4987 -0.1255
  605loPI   C4B 9680   7.147  14.504   8.781 -0.0680  0.2083  0.0350
  606loPI    C1 9681  11.320   6.776  10.427  0.1364  0.1636  0.0145
  606loPI    C2 9682  11.130   6.778  10.779 -0.1573 -0.1578 -0.1362
  606loPI    C3 9683  11.530   6.762  10.768 -0.1371  0.0336  0.1811
  606loPI   PO4 9684  11.084   6.934  10.277 -0.0275  0.2920 -0.2039
  606loPI   GL1 9685  11.083   7.048   9.868  0.0794 -0.2215  0.0744
  606loPI   GL2 9686  10.928   7.389  10.068  0.3405 -0.5613  0.1412
  606loPI   C1A 9687  11.242   7.200   9.545  0.0163 -0.0815  0.0452
  606loPI   C2A 9688  11.241   7.209   9.126 -0.3178 -0.2600  0.1059
  606loPI   C3A 9689  11.245   7.309   8.741 -0.0140 -0.0161  0.1054
  606loPI   C4A 9690  11.221   7.417   8.274 -0.2857  0.0607  0.4028
  606loPI   C5A 9691  10.949   7.315   7.874 -0.0153 -0.1874 -0.0684
  606loPI   C6A 9692  10.585   7.144   7.994 -0.1085  0.1118 -0.0605
  606loPI   C1B 9693  10.868   7.555   9.693  0.1554  0.1719  0.0238
  606loPI   C2B 9694  10.870   7.572   9.257  0.0584 -0.2315  0.0059
  606loPI   C3B 9695  10.927   7.620   8.842  0.0417  0.1989 -0.0719
  606loPI   C4B 9696  10.946   7.774   8.498  0.2261 -0.0093 -0.0162
  607loPI    C1 9697  14.800  14.986  10.818  0.1074 -0.0501 -0.0286
  607loPI    C2 9698  14.817  14.598  10.916 -0.2039 -0.1679 -0.4137
  607loPI    C3 9699  15.144  14.827  10.945 -0.0323 -0.4417 -0.1258
  607loPI   PO4 9700  14.641  14.901  10.529 -0.0219  0.1785 -0.3083
  607loPI   GL1 9701  14.634  14.752  10.194  0.0953 -0.1270 -0.2538
  607loPI   GL2 9702  14.613  14.384  10.168 -0.0873 -0.1254  0.1870
  607loPI   C1A 9703  14.597  14.677   9.697 -0.1830 -0.2171  0.2105
  607loPI   C2A 9704  14.590  14.707   9.227  0.0437 -0.3452  0.0067
  607loPI   C3A 9705  14.854  14.606   8.893  0.0840  0.0532 -0.1499
  607loPI   C4A 9706  14.765  14.597   8.533 -0.0258  0.0427  0.1255
  607loPI   C5A 9707  15.020  14.768   8.189 -0.1135 -0.1940 -0.0138
  607loPI   C6A 9708  15.176  15.028   7.822  0.1305  0.2440  0.2239
  607loPI   C1B 9709  14.378  14.227   9.795  0.2070  0.0263  0.1960
  607loPI   C2B 9710  14.470  14.179   9.370  0.2202 -0.3946 -0.0986
  607loPI   C3B 9711  14.554  14.074   8.914 -0.3016  0.2027 -0.1101
  607loPI   C4B 9712  14.661  14.116   8.479  0.1021  0.0750 -0.3182
  608loPI    C1 9713  12.041  17.998  10.085 -0.0355  0.1168 -0.0460
  608loPI    C2 9714  12.280  18.245  10.288 -0.1355  0.1406  0.0429
  608loPI    C3 9715  12.254  17.861  10.394  0.0410  0.0845 -0.1125
  608loPI   PO4 9716  11.688  18.119  10.119  0.1210 -0.1236  0.0097
  608loPI   GL1 9717  11.431  18.122   9.723  0.2400  0.4234 -0.0043
  608loPI   GL2 9718  11.751  18.172   9.603 -0.0353 -0.2634 -0.1202
  608loPI   C1A 9719  11.333  18.100   9.311 -0.2149 -0.1953  0.2298
  608loPI   C2A 9720  11.376  17.927   8.817 -0.1203  0.3185  0.0132
  608loPI   C3A 9721  11.212  17.687   8.522 -0.1772  0.3065  0.0862
  608loPI   C4A 9722  10.828  17.457   8.403  0.0229  0.1112  0.1436
  608loPI   C5A 9723  10.623  17.481   8.007 -0.1271 -0.3136  0.2814
  608loPI   C6A 9724  10.180  17.409   7.937  0.0541 -0.5433 -0.3111
  608loPI   C1B 9725  11.733  17.849   9.420 -0.0148 -0.1454 -0.2242
  608loPI   C2B 9726  11.807  17.651   9.027 -0.0144 -0.1495 -0.1758
  608loPI   C3B 9727  11.777  17.773   8.562  0.1044 -0.0592  0.0317
  608loPI   C4B 9728  12.041  18.045   8.508 -0.0719 -0.2267  0.0103
  609POPI    C1 9729   1.190   7.316  10.149 -0.0764 -0.1856  0.1060
  609POPI    C2 9730   0.998   7.343  10.499  0.1459  0.4104  0.1935
  609POPI    C3 9731   1.397   7.365  10.487  0.1825 -0.1989 -0.0479
  609POPI   PO4 9732   0.984   7.374  10.003 -0.0844 -0.1519 -0.0423
  609POPI   GL1 9733   0.727   7.332   9.640 -0.0037  0.1168  0.0742
  609POPI   GL2 9734   0.959   7.186   9.443 -0.0728  0.2635  0.0058
  609POPI   C1A 9735   0.409   7.231   9.377  0.2412 -0.1424  0.1503
  609POPI   D2A 9736   0.327   7.165   8.906  0.2037 -0.1257 -0.3574
  609POPI   C3A 9737   0.050   7.248   8.694 -0.2411  0.0878  0.4899
  609POPI   C4A 9738   0.017   7.265   8.290 -0.1787 -0.3692 -0.1457
  609POPI   C1B 9739   0.839   7.406   9.046 -0.1736 -0.1659  0.1176
  609POPI   C2B 9740   0.812   7.405   8.621  0.1402  0.1773 -0.4416
  609POPI   C3B 9741   0.550   7.244   8.269  0.3856  0.2031 -0.2227
  609POPI   C4B 9742   0.331   7.013   7.971 -0.1385 -0.4631  0.0585
  610POPI    C1 9743   5.592  17.817  10.202  0.0085 -0.0150 -0.0493
  610POPI    C2 9744   5.402  17.805  10.554  0.0324  0.0015 -0.0359
  610POPI    C3 9745   5.767  17.967  10.529  0.0800 -0.1063 -0.0452
  610POPI   PO4 9746   5.536  17.707  10.080  0.1413  0.0492 -0.0953
  610POPI   GL1 9747   5.466  17.631   9.721 -0.0986  0.0463 -0.1312
  610POPI   GL2 9748   5.203  17.446   9.841  0.4373  0.0544 -0.0587
  610POPI   C1A 9749   5.458  17.691   9.219  0.2614  0.1658  0.1443
  610POPI   D2A 9750   5.247  17.503   8.908  0.2682 -0.0830  0.0887
  610POPI   C3A 9751   5.121  17.563   8.536 -0.2719  0.0008  0.1014
  610POPI   C4A 9752   5.079  17.639   8.079 -0.1305  0.1800 -0.3446
  610POPI   C1B 9753   5.155  17.359   9.405 -0.0276 -0.1483  0.2051
  610POPI   C2B 9754   4.826  17.330   9.018  0.2415 -0.0834  0.3352
  610POPI   C3B 9755   4.680  17.318   8.567  0.0200  0.0976  0.2038
  610POPI   C4B 9756   4.475  17.510   8.171  0.0087 -0.2190 -0.1316
  611POPI    C1 9757   3.179   9.474  10.236 -0.0378  0.1437  0.1503
  611POPI    C2 9758   3.066   9.353  10.600  0.0187 -0.0891  0.0920
  611POPI    C3 9759   3.453   9.415  10.521 -0.0255  0.3180  0.1754
  611POPI   PO4 9760   3.055   9.645  10.053 -0.1291  0.0276  0.1763
  611POPI   GL1 9761   2.839   9.661   9.648  0.0049  0.1993 -0.2165
  611POPI   GL2 9762   3.081   9.594   9.385  0.1232  0.1035 -0.0559
  611POPI   C1A 9763   2.641  10.021   9.316 -0.1508  0.0376 -0.0798
  611POPI   D2A 9764   2.425  10.248   9.044 -0.0553  0.1831 -0.1697
  611POPI   C3A 9765   2.237  10.460   9.140  0.2550  0.0394  0.1142
  611POPI   C4A 9766   2.261  10.861   9.044 -0.0989 -0.3092  0.0043
  611POPI   C1B 9767   3.202   9.732   9.021 -0.0552  0.2739  0.2277
  611POPI   C2B 9768   3.233   9.846   8.579 -0.1213  0.0292 -0.0398
  611POPI   C3B 9769   3.267  10.232   8.180 -0.0383 -0.0763 -0.0284
  611POPI   C4B 9770   3.002  10.155   7.770 -0.0705  0.2206 -0.0082
  612POPI    C1 9771   6.805  10.724   9.938  0.0540  0.0733  0.0939
  612POPI    C2 9772   6.496  10.908   9.764 -0.0644 -0.1178  0.0999
  612POPI    C3 9773   6.563  10.955  10.156 -0.0616 -0.0437  0.0905
  612POPI   PO4 9774   7.010  10.807   9.820 -0.0564 -0.2915  0.2529
  612POPI   GL1 9775   7.043  10.936   9.349 -0.0900  0.0220  0.0421
  612POPI   GL2 9776   6.813  11.020   9.405  0.3061  0.0769 -0.1388
  612POPI   C1A 9777   7.437  10.929   9.086 -0.0249 -0.3218  0.1034
  612POPI   D2A 9778   7.539  11.024   8.794 -0.1936 -0.0406 -0.2447
  612POPI   C3A 9779   7.465  10.614   8.484  0.0604  0.2960 -0.0129
  612POPI   C4A 9780   7.400  10.596   8.027 -0.0843 -0.2138  0.1782
  612POPI   C1B 9781   6.648  11.065   8.985 -0.0767  0.1111  0.1276
  612POPI   C2B 9782   6.609  11.077   8.569 -0.0508 -0.1396  0.0070
  612POPI   C3B 9783   6.562  11.107   8.051  0.0577 -0.0927 -0.1271
  612POPI   C4B 9784   6.270  11.255   7.696 -0.1071  0.1516 -0.1112
  613POPI    C1 9785  17.137   4.380  10.442  0.0375  0.0604  0.1320
  613POPI    C2 9786  17.515   4.276  10.363 -0.0147  0.0371 -0.0935
  613POPI    C3 9787  17.404   4.356  10.739  0.1994 -0.0142 -0.0180
  613POPI   PO4 9788  16.901   4.166  10.292  0.0211 -0.0892 -0.0341
  613POPI   GL1 9789  16.574   4.024   9.943  0.0620  0.1635  0.1314
  613POPI   GL2 9790  16.724   4.238   9.816  0.0703  0.1419  0.2823
  613POPI   C1A 9791  16.616   3.820   9.524 -0.2136 -0.1322 -0.1688
  613POPI   D2A 9792  16.576   3.697   9.149 -0.1022 -0.2933  0.1499
  613POPI   C3A 9793  16.492   3.784   8.688 -0.1493  0.1044 -0.2777
  613POPI   C4A 9794  16.602   3.748   8.252  0.1744  0.3575  0.0950
  613POPI   C1B 9795  16.775   4.252   9.329  0.0616 -0.2902 -0.0926
  613POPI   C2B 9796  16.715   4.177   8.829 -0.5145 -0.1003 -0.0512
  613POPI   C3B 9797  16.818   4.262   8.417  0.2655 -0.0202  0.2380
  613POPI   C4B 9798  16.817   4.412   7.912 -0.1128  0.2311 -0.5931
  614POPI    C1 9799  11.223   1.317   9.987  0.2714 -0.1846  0.0674
  614POPI    C2 9800  11.038   0.971   9.907  0.1139 -0.1400  0.2301
  614POPI    C3 9801  10.912   1.200  10.210  0.1676  0.0981  0.0757
  614POPI   PO4 9802  11.296   1.336   9.655 -0.3740 -0.1871 -0.1381
  614POPI   GL1 9803  10.942   1.249   9.416  0.2297  0.0579 -0.0650
  614POPI   GL2 9804  10.948   0.888   9.364  0.0497 -0.1779  0.1883
  614POPI   C1A 9805  10.725   1.122   8.958  0.1207  0.0314  0.1750
  614POPI   D2A 9806  10.660   1.182   8.500  0.1112 -0.3587 -0.0051
  614POPI   C3A 9807  10.882   1.009   8.160  0.1391 -0.0502  0.1079
  614POPI   C4A 9808  10.920   0.721   7.901  0.0508 -0.3930  0.1440
  614POPI   C1B 9809  11.197   1.063   8.955  0.2437  0.1490 -0.0419
  614POPI   C2B 9810  11.182   1.180   8.584 -0.0138  0.1832 -0.0699
  614POPI   C3B 9811  11.403   1.220   8.156  0.1400  0.1961 -0.0238
  614POPI   C4B 9812  11.367   1.557   7.931 -0.0523 -0.2294  0.3536
  615POPI    C1 9813  15.646   1.155  10.545  0.0363  0.2105 -0.0530
  615POPI    C2 9814  15.470   1.336  10.235 -0.1837 -0.0283 -0.0704
  615POPI    C3 9815  15.260   1.258  10.566 -0.0820 -0.2175 -0.0493
  615POPI   PO4 9816  15.690   0.899  10.424 -0.0366 -0.2635 -0.3362
  615POPI   GL1 9817  15.604   0.905   9.996 -0.0357  0.1869  0.1583
  615POPI   GL2 9818  15.846   1.074   9.911  0.3046  0.2218 -0.2291
  615POPI   C1A 9819  15.486   0.885   9.558 -0.4845 -0.0540 -0.3838
  615POPI   D2A 9820  15.467   0.885   9.147 -0.0546  0.2602 -0.3161
  615POPI   C3A 9821  15.161   0.784   8.906  0.0535  0.0631  0.0638
  615POPI   C4A 9822  15.157   0.832   8.470  0.0826 -0.1462 -0.1837
  615POPI   C1B 9823  15.711   1.378   9.589 -0.1619  0.0225  0.2074
  615POPI   C2B 9824  15.689   1.293   9.104  0.0450 -0.0227 -0.0436
  615POPI   C3B 9825  15.715   0.996   8.737 -0.0399 -0.1402  0.3343
  615POPI   C4B 9826  15.592   0.962   8.440 -0.1028 -0.3307  0.0030
  616POPI    C1 9827   7.491  17.337  10.252 -0.0249  0.0138 -0.3167
  616POPI    C2 9828   7.784  17.521  10.453 -0.3187  0.2310 -0.0761
  616POPI    C3 9829   7.417  17.500  10.610 -0.2926 -0.5952 -0.0823
  616POPI   PO4 9830   7.667  17.398   9.964 -0.0827  0.2055 -0.0081
  616POPI   GL1 9831   7.606  17.644   9.564 -0.1337  0.0558 -0.5236
  616POPI   GL2 9832   7.914  17.693   9.479 -0.2703  0.1311  0.0495
  616POPI   C1A 9833   7.398  17.426   9.212  0.0703  0.0486 -0.0176
  616POPI   D2A 9834   7.299  17.076   9.038  0.0007  0.1739  0.2105
  616POPI   C3A 9835   7.062  17.196   8.549  0.0805  0.0966  0.3191
  616POPI   C4A 9836   6.827  17.097   8.226 -0.2804  0.1111 -0.2943
  616POPI   C1B 9837   7.904  17.389   9.215  0.1996 -0.0185  0.0014
  616POPI   C2B 9838   7.708  17.287   8.838  0.0316  0.1461 -0.2909
  616POPI   C3B 9839   7.740  17.293   8.381  0.3637  0.0137  0.1034
  616POPI   C4B 9840   7.822  17.489   8.023 -0.1111 -0.0415 -0.1159
  617POPI    C1 9841   9.311  17.686  10.070 -0.0276  0.0936 -0.1415
  617POPI    C2 9842   9.695  17.630  10.166 -0.0306 -0.0449 -0.2082
  617POPI    C3 9843   9.546  18.001  10.144  0.1094  0.0114 -0.2222
  617POPI   PO4 9844   9.187  17.673   9.942  0.0307 -0.0311 -0.0662
  617POPI   GL1 9845   9.097  17.578   9.533 -0.1308  0.2120 -0.0311
  617POPI   GL2 9846   9.161  17.800   9.462  0.3069 -0.0585 -0.1664
  617POPI   C1A 9847   9.071  17.404   9.095  0.2459  0.1612  0.0017
  617POPI   D2A 9848   8.923  17.452   8.674 -0.0863  0.1699  0.0555
  617POPI   C3A 9849   9.138  17.230   8.477 -0.1179  0.2760 -0.0213
  617POPI   C4A 9850   9.330  16.846   8.343  0.2497 -0.0338  0.3987
  617POPI   C1B 9851   9.519  17.634   9.275  0.0991  0.0270  0.2363
  617POPI   C2B 9852   9.603  17.418   8.919 -0.0538  0.0818 -0.0856
  617POPI   C3B 9853   9.631  17.312   8.528  0.0339  0.2088 -0.2198
  617POPI   C4B 9854   9.682  17.118   8.113 -0.0283  0.2079  0.0138
  618POPI    C1 9855   8.733  16.506  10.247  0.0625 -0.2459 -0.0683
  618POPI    C2 9856   8.827  16.351  10.603 -0.1461 -0.1471  0.0315
  618POPI    C3 9857   8.448  16.453  10.523 -0.0621  0.0376 -0.1387
  618POPI   PO4 9858   8.783  16.339  10.052  0.2894 -0.0204  0.0126
  618POPI   GL1 9859   9.023  16.447   9.777 -0.0297 -0.0289  0.0110
  618POPI   GL2 9860   8.760  16.682   9.468 -0.0087  0.2191  0.0468
  618POPI   C1A 9861   8.863  16.145   9.444 -0.0436  0.1474  0.0628
  618POPI   D2A 9862   8.610  15.809   9.291 -0.1100 -0.0725 -0.1321
  618POPI   C3A 9863   8.544  15.580   9.027 -0.0851 -0.1095 -0.1461
  618POPI   C4A 9864   8.344  15.555   8.607 -0.1912  0.0622  0.1605
  618POPI   C1B 9865   8.875  16.808   9.099  0.1720 -0.0007  0.2645
  618POPI   C2B 9866   8.748  17.044   8.874  0.1018  0.1318 -0.0892
  618POPI   C3B 9867   8.720  16.964   8.483 -0.1044  0.1865  0.1620
  618POPI   C4B 9868   8.689  17.315   8.107 -0.1672 -0.0602 -0.5122
  619POPI    C1 9869   2.357  12.804  11.060 -0.0755 -0.1311  0.1097
  619POPI    C2 9870   2.089  13.074  10.935  0.0509 -0.1380 -0.1858
  619POPI    C3 9871   2.231  13.090  11.309  0.1097  0.2484 -0.2213
  619POPI   PO4 9872   2.509  12.815  10.729 -0.1140  0.2197  0.0641
  619POPI   GL1 9873   2.566  12.795  10.332  0.0798  0.1961  0.2690
  619POPI   GL2 9874   2.960  12.721  10.271  0.2718  0.0279  0.0351
  619POPI   C1A 9875   2.578  12.729   9.919  0.3089 -0.1333 -0.0047
  619POPI   D2A 9876   2.735  12.863   9.558  0.0667  0.0476 -0.3031
  619POPI   C3A 9877   2.674  12.699   9.124  0.2425  0.4217 -0.0643
  619POPI   C4A 9878   2.730  12.788   8.737 -0.3894 -0.1093 -0.0869
  619POPI   C1B 9879   3.072  12.657   9.884  0.1023  0.2114  0.2087
  619POPI   C2B 9880   3.090  12.531   9.423  0.0181 -0.0499 -0.2443
  619POPI   C3B 9881   3.174  12.513   8.990 -0.1148  0.2532  0.0275
  619POPI   C4B 9882   3.086  12.528   8.502  0.1898  0.0811 -0.2460
  620POPI    C1 9883  16.165  14.691  10.672  0.0545 -0.0048 -0.3285
  620POPI    C2 9884  15.995  14.904  10.964  0.3077  0.0560 -0.2226
  620POPI    C3 9885  16.218  14.585  11.054  0.0098 -0.2017 -0.3756
  620POPI   PO4 9886  16.077  14.844  10.444  0.1429 -0.1232  0.1438
  620POPI   GL1 9887  15.719  14.897  10.187 -0.0624 -0.0268 -0.0723
  620POPI   GL2 9888  15.494  14.561  10.192 -0.1025 -0.2070  0.0794
  620POPI   C1A 9889  15.921  15.002   9.788  0.2317  0.1611  0.0318
  620POPI   D2A 9890  16.152  15.051   9.379  0.1538  0.2861  0.0741
  620POPI   C3A 9891  16.190  14.866   9.020  0.0746  0.0455 -0.3970
  620POPI   C4A 9892  16.256  14.552   8.862 -0.2023 -0.1062 -0.2124
  620POPI   C1B 9893  15.595  14.611   9.761 -0.1996 -0.2739 -0.0732
  620POPI   C2B 9894  15.619  14.927   9.361  0.0800 -0.1664  0.0196
  620POPI   C3B 9895  15.402  15.227   9.170  0.0242 -0.0314 -0.1880
  620POPI   C4B 9896  15.442  15.256   8.743 -0.1336 -0.1629 -0.1707
  621POPI    C1 9897   6.843   4.770  10.880  0.0976 -0.0891 -0.1931
  621POPI    C2 9898   7.226   4.816  10.986  0.0142  0.1022  0.0355
  621POPI    C3 9899   7.047   4.461  11.030  0.2469 -0.0696 -0.3529
  621POPI   PO4 9900   6.876   4.887  10.558  0.1336 -0.0132 -0.2627
  621POPI   GL1 9901   6.645   4.811  10.229  0.3219 -0.0792 -0.2534
  621POPI   GL2 9902   6.338   4.869  10.415 -0.1172 -0.2287  0.3367
  621POPI   C1A 9903   6.536   4.629   9.733  0.0058 -0.1064  0.1074
  621POPI   D2A 9904   6.404   4.734   9.335 -0.2726 -0.2196 -0.2759
  621POPI   C3A 9905   6.711   4.867   9.112  0.0654 -0.1397  0.0916
  621POPI   C4A 9906   6.950   4.766   8.713  0.2722 -0.3286 -0.0497
  621POPI   C1B 9907   6.209   4.924  10.024  0.1469 -0.0727  0.2313
  621POPI   C2B 9908   6.171   5.118   9.532  0.1597 -0.1204  0.0630
  621POPI   C3B 9909   6.227   5.211   9.170 -0.1462  0.2214  0.0785
  621POPI   C4B 9910   6.177   5.347   8.680  0.1025  0.4006 -0.1255
  622POPI    C1 9911   3.335  13.435  10.482  0.1568 -0.2395  0.0047
  622POPI    C2 9912   3.293  13.771  10.695  0.1158 -0.0966 -0.2262
  622POPI    C3 9913   3.425  13.438  10.872  0.0211  0.0029  0.0360
  622POPI   PO4 9914   3.395  13.591  10.201 -0.1097  0.2138 -0.2532
  622POPI   GL1 9915   3.129  13.651   9.847  0.0445  0.3750  0.0008
  622POPI   GL2 9916   2.867  13.736   9.853  0.1331  0.1031 -0.2255
  622POPI   C1A 9917   3.151  13.613   9.413  0.0885 -0.1868  0.1086
  622POPI   D2A 9918   3.109  13.500   8.970  0.2257  0.0537 -0.0689
  622POPI   C3A 9919   3.029  13.527   8.624  0.0734  0.1441 -0.0926
  622POPI   C4A 9920   2.998  13.691   8.290 -0.3285 -0.2483 -0.1552
  622POPI   C1B 9921   2.644  13.858   9.501  0.0791  0.2268  0.4738
  622POPI   C2B 9922   2.640  13.823   9.049  0.1048 -0.1531 -0.3140
  622POPI   C3B 9923   2.624  13.907   8.578  0.0814  0.2478 -0.1215
  622POPI   C4B 9924   2.549  13.827   8.098 -0.0774  0.0536 -0.2139
  623POPI    C1 9925  15.930   8.168  10.346 -0.3561 -0.3278  0.2232
  623POPI    C2 9926  16.162   8.327  10.630 -0.3303  0.1182 -0.0378
  623POPI    C3 9927  16.132   7.929  10.595  0.0652  0.0562  0.2613
  623POPI   PO4 9928  15.950   8.327  10.131 -0.0560  0.1876  0.0489
  623POPI   GL1 9929  15.880   8.250   9.769 -0.0642 -0.1961 -0.2838
  623POPI   GL2 9930  16.282   8.298   9.753 -0.0461  0.1519 -0.2206
  623POPI   C1A 9931  16.018   7.849   9.567  0.0187  0.0176  0.0440
  623POPI   D2A 9932  16.028   7.850   9.145 -0.1665  0.0877 -0.0573
  623POPI   C3A 9933  16.083   7.965   8.670 -0.0559  0.4192 -0.0053
  623POPI   C4A 9934  16.331   7.864   8.424  0.2757 -0.0684  0.0510
  623POPI   C1B 9935  16.319   8.390   9.386  0.1179 -0.0449  0.4818
  623POPI   C2B 9936  16.442   8.656   8.976  0.1548 -0.2996  0.3489
  623POPI   C3B 9937  16.555   8.698   8.510  0.0700 -0.0149  0.0848
  623POPI   C4B 9938  16.784   8.734   8.029 -0.3932  0.0389 -0.1000
  624POPI    C1 9939  17.433   2.829  10.451  0.0799 -0.3315 -0.0438
  624POPI    C2 9940  17.622   3.105  10.671 -0.0445 -0.0748 -0.2538
  624POPI    C3 9941  17.739   2.723  10.687 -0.0570 -0.0645  0.2624
  624POPI   PO4 9942  17.385   2.967  10.250 -0.1099  0.3806 -0.2594
  624POPI   GL1 9943  17.476   2.890   9.833  0.0245 -0.0466 -0.0508
  624POPI   GL2 9944  17.640   3.151   9.780  0.1751  0.2816 -0.0101
  624POPI   C1A 9945  17.592   2.766   9.446  0.0327  0.4916 -0.0806
  624POPI   D2A 9946  17.819   2.974   9.153 -0.2437  0.0283  0.4269
  624POPI   C3A 9947  17.700   2.971   8.656 -0.2044  0.1418 -0.0706
  624POPI   C4A 9948  17.692   2.835   8.255 -0.0036 -0.1122 -0.0257
  624POPI   C1B 9949  17.420   3.319   9.388  0.0679  0.2119 -0.1999
  624POPI   C2B 9950  17.404   3.423   8.991 -0.2095  0.0570 -0.1749
  624POPI   C3B 9951  17.405   3.357   8.578 -0.2905  0.0419  0.1451
  624POPI   C4B 9952  17.534   3.266   8.144 -0.0945 -0.0105 -0.1679
  625DPPI    C1 9953  15.670  16.438  10.781  0.1145  0.0649 -0.2146
  625DPPI    C2 9954  15.627  16.063  10.914 -0.1358  0.1721  0.0162
  625DPPI    C3 9955  15.771  16.346  11.157  0.0106  0.2373 -0.1438
  625DPPI   PO4 9956  15.772  16.399  10.547 -0.0395 -0.1040 -0.0986
  625DPPI   GL1 9957  15.903  16.263  10.186 -0.2759 -0.0232 -0.1995
  625DPPI   GL2 9958  15.749  16.068  10.061  0.0531 -0.2428  0.0372
  625DPPI   C1A 9959  16.096  16.537   9.900  0.2462  0.0779  0.2381
  625DPPI   C2A 9960  16.118  16.581   9.480  0.2196  0.1306  0.3540
  625DPPI   C3A 9961  16.007  16.337   9.087  0.0540 -0.0371 -0.1526
  625DPPI   C4A 9962  16.151  16.206   8.620 -0.2012  0.3090 -0.0579
  625DPPI   C1B 9963  15.673  16.345   9.635  0.2363  0.1204  0.0499
  625DPPI   C2B 9964  15.541  16.262   9.208 -0.0385 -0.2029  0.1324
  625DPPI   C3B 9965  15.575  16.155   8.908 -0.0752 -0.0630  0.3685
  625DPPI   C4B 9966  15.694  16.112   8.425  0.2296  0.0525 -0.2433
  626DPPI    C1 9967  10.402   3.822  10.228 -0.1017  0.1648 -0.1779
  626DPPI    C2 9968  10.259   3.551  10.484  0.1686  0.0624 -0.1322
  626DPPI    C3 9969  10.476   3.858  10.619  0.0227  0.1989 -0.2042
  626DPPI   PO4 9970  10.357   3.713  10.011  0.2328 -0.0017 -0.1575
  626DPPI   GL1 9971  10.388   3.383   9.692 -0.0828 -0.1624  0.0793
  626DPPI   GL2 9972  10.381   3.049   9.665 -0.0641 -0.0520 -0.1187
  626DPPI   C1A 9973  10.639   3.534   9.387  0.2959 -0.1107 -0.3384
  626DPPI   C2A 9974  10.724   3.465   9.028  0.0221 -0.3268  0.2118
  626DPPI   C3A 9975  10.755   3.563   8.575  0.1670  0.1958  0.0921
  626DPPI   C4A 9976  10.666   3.464   8.224 -0.1016 -0.1044 -0.2805
  626DPPI   C1B 9977  10.192   3.246   9.252  0.0857  0.1440 -0.0610
  626DPPI   C2B 9978  10.170   3.388   8.832  0.1751 -0.1223 -0.2664
  626DPPI   C3B 9979  10.497   3.133   8.539 -0.0890 -0.1129 -0.0646
  626DPPI   C4B 9980  10.595   3.063   8.034 -0.1892 -0.0651  0.2113
  627DPPI    C1 9981  13.586  10.884  10.765  0.1680  0.0179 -0.0283
  627DPPI    C2 9982  13.564  11.039  11.133 -0.0614  0.3194 -0.1644
  627DPPI    C3 9983  13.883  10.823  11.026 -0.1882 -0.1460  0.3511
  627DPPI   PO4 9984  13.458  11.158  10.627 -0.0469 -0.2080  0.2567
  627DPPI   GL1 9985  13.318  11.314  10.244  0.0474  0.0548  0.3666
  627DPPI   GL2 9986  13.571  11.430  10.165 -0.1471 -0.1898 -0.2636
  627DPPI   C1A 9987  13.122  11.206   9.953 -0.0183  0.1912  0.3650
  627DPPI   C2A 9988  13.161  11.305   9.516  0.2884 -0.0923  0.0705
  627DPPI   C3A 9989  13.132  11.254   9.144 -0.1597 -0.2000  0.3229
  627DPPI   C4A 9990  12.905  11.497   8.881 -0.0489  0.1241 -0.0038
  627DPPI   C1B 9991  13.667  11.238   9.783 -0.1855 -0.4273 -0.0355
  627DPPI   C2B 9992  13.732  11.362   9.342 -0.0417  0.0029  0.1280
  627DPPI   C3B 9993  13.656  11.470   8.969 -0.1336  0.1269  0.0596
  627DPPI   C4B 9994  13.581  11.527   8.540 -0.0850 -0.1964  0.1121
  628DPPI    C1 9995  16.802   3.139  10.625  0.0426 -0.0890 -0.3499
  628DPPI    C2 9996  17.112   3.013  10.846 -0.0456  0.0507 -0.1432
  628DPPI    C3 9997  16.978   3.388  10.884 -0.0738  0.0713 -0.4239
  628DPPI   PO4 9998  16.844   3.003  10.399  0.0688 -0.0119 -0.4156
  628DPPI   GL1 9999  17.001   3.107  10.033  0.0182 -0.1496  0.1441
  628DPPI   GL210000  17.224   3.339   9.911 -0.0163 -0.6100 -0.0881
  628DPPI   C1A10001  16.999   2.873   9.634 -0.4736 -0.0900 -0.0976
  628DPPI   C2A10002  16.871   2.977   9.218 -0.0112  0.1392 -0.0050
  628DPPI   C3A10003  16.773   2.862   8.773  0.0481  0.1213  0.0121
  628DPPI   C4A10004  16.726   2.885   8.343 -0.3878  0.4152  0.1907
  628DPPI   C1B10005  17.437   3.696   9.763  0.1363  0.0911  0.4309
  628DPPI   C2B10006  17.198   4.020   9.374  0.2997 -0.1188  0.2870
  628DPPI   C3B10007  17.115   3.947   8.976  0.0194  0.2697  0.0936
  628DPPI   C4B10008  17.167   3.836   8.568  0.0460  0.3468 -0.0628
  629DPPI    C110009  14.675   0.718  10.336  0.1446 -0.1279 -0.0675
  629DPPI    C210010  14.833   0.933  10.634 -0.1810  0.0110  0.0095
  629DPPI    C310011  14.527   0.686  10.706 -0.0159 -0.2429 -0.1407
  629DPPI   PO410012  14.778   0.572  10.247  0.1045 -0.0037 -0.0539
  629DPPI   GL110013  15.068   0.395   9.979 -0.3472  0.3072  0.1439
  629DPPI   GL210014  15.124   0.718   9.892  0.1793 -0.0605  0.3114
  629DPPI   C1A10015  15.090   0.366   9.523  0.1102  0.1846 -0.0915
  629DPPI   C2A10016  15.071   0.322   9.106  0.1130  0.1237 -0.1467
  629DPPI   C3A10017  15.035   0.351   8.706  0.1045  0.1807 -0.1365
  629DPPI   C4A10018  15.052   0.250   8.234  0.1655  0.1088  0.0727
  629DPPI   C1B10019  14.985   0.813   9.458 -0.1001 -0.3324 -0.4651
  629DPPI   C2B10020  14.673   0.783   9.135  0.0318 -0.2269  0.0145
  629DPPI   C3B10021  14.647   0.674   8.712  0.0634  0.0699  0.0023
  629DPPI   C4B10022  14.672   0.744   8.305  0.1265 -0.0556  0.0671
  630DPPI    C110023   8.716  17.665  10.065  0.2868  0.0100 -0.2000
  630DPPI    C210024   8.686  17.361   9.806  0.1376 -0.0744 -0.0852
  630DPPI    C310025   8.565  17.314  10.184  0.0982  0.1332 -0.0708
  630DPPI   PO410026   8.600  17.854   9.965 -0.0406  0.4455  0.0806
  630DPPI   GL110027   8.700  17.931   9.547 -0.0608  0.0766  0.0442
  630DPPI   GL210028   8.511  18.075   9.307 -0.0492 -0.0040 -0.4357
  630DPPI   C1A10029   8.819  17.865   9.055 -0.0718 -0.2157 -0.0334
  630DPPI   C2A10030   8.705  17.882   8.595 -0.1961 -0.0346 -0.2789
  630DPPI   C3A10031   8.516  17.785   8.243  0.0114  0.0535  0.2038
  630DPPI   C4A10032   8.412  18.145   7.995  0.2369 -0.0580  0.0583
  630DPPI   C1B10033   8.358  18.136   8.868 -0.1314  0.1704  0.1095
  630DPPI   C2B10034   8.217  18.142   8.476 -0.1207 -0.0112  0.0132
  630DPPI   C3B10035   8.118  18.497   8.282  0.0120 -0.3037 -0.1261
  630DPPI   C4B10036   7.842  18.788   8.293  0.1376  0.0701 -0.3037
  631DPPI    C110037  11.794   0.518   9.817  0.1865 -0.1513 -0.2062
  631DPPI    C210038  12.194   0.524   9.804  0.1857  0.2197 -0.1530
  631DPPI    C310039  12.003   0.648  10.133  0.0260 -0.0604 -0.1369
  631DPPI   PO410040  11.770   0.300   9.601  0.0084 -0.3720  0.4137
  631DPPI   GL110041  11.784   0.175   9.139 -0.0311  0.2144  0.1526
  631DPPI   GL210042  11.952   0.515   9.043  0.3521 -0.3437 -0.1549
  631DPPI   C1A10043  12.101   0.036   8.801  0.1480 -0.2183  0.1115
  631DPPI   C2A10044  12.087   0.056   8.369  0.0190 -0.0459  0.3430
  631DPPI   C3A10045  12.143   0.126   7.941 -0.0169 -0.1066  0.0084
  631DPPI   C4A10046  12.113   0.278   7.514 -0.1607 -0.2360 -0.0020
  631DPPI   C1B10047  11.899   0.437   8.636  0.4432 -0.0471 -0.0428
  631DPPI   C2B10048  11.675   0.403   8.220 -0.0510 -0.1347  0.0473
  631DPPI   C3B10049  11.658   0.326   7.754  0.0899 -0.2548  0.2256
  631DPPI   C4B10050  11.553   0.354   7.273  0.2623  0.2232 -0.1516
  632DPPI    C110051  11.645  10.962  10.929 -0.0294 -0.2350 -0.1431
  632DPPI    C210052  11.898  11.041  11.228  0.0545 -0.3062 -0.1946
  632DPPI    C310053  11.598  10.781  11.282 -0.0312 -0.1932 -0.1219
  632DPPI   PO410054  11.714  10.922  10.738  0.0442  0.1572  0.0961
  632DPPI   GL110055  11.944  10.703  10.495  0.1448 -0.0677 -0.0406
  632DPPI   GL210056  11.720  10.607  10.190 -0.0053  0.3583 -0.2273
  632DPPI   C1A10057  12.088  10.890  10.110 -0.0866  0.3072 -0.0721
  632DPPI   C2A10058  12.276  10.719   9.817  0.0653  0.0385  0.1159
  632DPPI   C3A10059  12.273  10.787   9.334  0.0828  0.0074 -0.1076
  632DPPI   C4A10060  12.212  10.835   8.846 -0.1394 -0.1598  0.1331
  632DPPI   C1B10061  11.817  10.510   9.770  0.1165  0.0926  0.1937
  632DPPI   C2B10062  11.810  10.587   9.317 -0.1756  0.3405  0.0605
  632DPPI   C3B10063  11.726  10.634   8.874  0.1802  0.1332  0.0458
  632DPPI   C4B10064  11.759  10.888   8.575 -0.1254  0.0591  0.0902
  633DPPI    C110065   1.056   8.660  10.344  0.0838  0.2282  0.0746
  633DPPI    C210066   0.820   8.473  10.607  0.2430  0.0281  0.0783
  633DPPI    C310067   1.159   8.646  10.730  0.3126 -0.0567  0.0065
  633DPPI   PO410068   1.058   8.543  10.118  0.0633 -0.0177  0.1756
  633DPPI   GL110069   0.898   8.682   9.729  0.0502  0.0092  0.2701
  633DPPI   GL210070   0.973   8.417   9.630 -0.2468 -0.1079 -0.1164
  633DPPI   C1A10071   0.940   9.056   9.572 -0.0359  0.0254  0.0793
  633DPPI   C2A10072   0.914   9.332   9.320 -0.1791 -0.0213  0.0881
  633DPPI   C3A10073   0.877   9.517   8.959 -0.1491  0.1759 -0.0487
  633DPPI   C4A10074   0.899   9.554   8.513  0.0807  0.1474 -0.0403
  633DPPI   C1B10075   0.938   8.499   9.226 -0.0220  0.3616 -0.0482
  633DPPI   C2B10076   1.008   8.787   8.942  0.3042  0.1983 -0.0075
  633DPPI   C3B10077   0.800   9.053   8.804  0.0734 -0.1705 -0.0244
  633DPPI   C4B10078   0.468   9.368   8.684  0.3009 -0.1641  0.0654
  634DPPI    C110079  15.906  12.805  10.749 -0.0998  0.0760 -0.0437
  634DPPI    C210080  15.938  13.112  11.004 -0.0909  0.0534 -0.0174
  634DPPI    C310081  15.832  12.751  11.138  0.2053 -0.0287  0.0027
  634DPPI   PO410082  15.780  13.050  10.469  0.2113 -0.0216 -0.3098
  634DPPI   GL110083  15.807  13.092  10.066  0.1766 -0.3396 -0.0695
  634DPPI   GL210084  15.946  12.880  10.023  0.0330 -0.1974  0.1691
  634DPPI   C1A10085  15.699  13.078   9.597  0.0317 -0.1847  0.1218
  634DPPI   C2A10086  15.646  13.204   9.153 -0.1200 -0.1451  0.0437
  634DPPI   C3A10087  15.394  13.396   8.898 -0.2498 -0.3014 -0.1888
  634DPPI   C4A10088  15.444  13.730   8.610 -0.0995 -0.0116  0.1193
  634DPPI   C1B10089  16.017  12.700   9.675 -0.0015 -0.2809 -0.1515
  634DPPI   C2B10090  16.020  12.778   9.298 -0.1346  0.1876  0.1310
  634DPPI   C3B10091  16.163  12.635   8.988  0.2322 -0.1515  0.1027
  634DPPI   C4B10092  16.245  12.648   8.520 -0.0021 -0.0634 -0.0287
  635PYPI    C110093  16.512   7.361  10.171 -0.3832  0.2164  0.2883
  635PYPI    C210094  16.761   7.303  10.479  0.0786  0.2966 -0.0590
  635PYPI    C310095  16.454   7.557  10.514  0.3206  0.5550  0.2299
  635PYPI   PO410096  16.506   7.070   9.919  0.1169  0.0859  0.0546
  635PYPI   GL110097  16.263   7.195   9.621 -0.3260  0.0520  0.1552
  635PYPI   GL210098  16.075   7.355   9.796  0.1579  0.1984  0.0637
  635PYPI   C1A10099  16.324   7.441   9.252 -0.4033 -0.0327 -0.1140
  635PYPI   C2A10100  16.493   7.469   8.854  0.3534  0.0452  0.0633
  635PYPI   D3A10101  16.668   7.417   8.376  0.0373 -0.0738 -0.0954
  635PYPI   C4A10102  16.734   7.792   8.122  0.0107  0.3272  0.2627
  635PYPI   C1B10103  15.818   7.389   9.459 -0.2510  0.0749 -0.1590
  635PYPI   C2B10104  15.873   7.321   9.094 -0.1618 -0.2560  0.0546
  635PYPI   C3B10105  16.045   7.502   8.692  0.0460  0.1788 -0.0445
  635PYPI   C4B10106  16.135   7.455   8.169 -0.3680  0.1249 -0.0648
  636PYPI    C110107  14.878   8.497  10.270  0.1286  0.1333  0.1565
  636PYPI    C210108  14.975   8.245  10.565  0.2995  0.0092 -0.0029
  636PYPI    C310109  15.037   8.638  10.609  0.1539  0.0116  0.1957
  636PYPI   PO410110  14.954   8.458  10.040 -0.1496  0.5144  0.0602
  636PYPI   GL110111  15.237   8.255   9.713 -0.0540  0.1087 -0.3973
  636PYPI   GL210112  14.889   8.317   9.565  0.2369 -0.0383  0.1717
  636PYPI   C1A10113  15.566   8.288   9.342 -0.0840  0.0582  0.0451
  636PYPI   C2A10114  15.890   8.341   9.034  0.0702 -0.2541 -0.1264
  636PYPI   D3A10115  16.068   8.504   8.647 -0.0341  0.0630 -0.2154
  636PYPI   C4A10116  16.144   8.336   8.289  0.0320 -0.1267  0.0361
  636PYPI   C1B10117  14.767   8.157   9.158  0.1875 -0.1231  0.1030
  636PYPI   C2B10118  14.850   8.114   8.706  0.0814  0.2704 -0.0219
  636PYPI   C3B10119  14.716   8.275   8.270 -0.2158  0.0588  0.2385
  636PYPI   C4B10120  15.024   8.509   7.972  0.1321 -0.0086  0.1291
  637PYPI    C110121  14.924  16.417  11.002 -0.1014  0.0515 -0.1428
  637PYPI    C210122  15.007  16.806  10.957  0.0872  0.0252 -0.0287
  637PYPI    C310123  15.046  16.633  11.315  0.1494 -0.1329 -0.1105
  637PYPI   PO410124  15.020  16.267  10.763 -0.1386  0.1666  0.0562
  637PYPI   GL110125  14.971  16.305  10.256  0.0461 -0.3727 -0.1794
  637PYPI   GL210126  15.130  16.149  10.003  0.2489  0.0236  0.1037
  637PYPI   C1A10127  14.767  16.563   9.959 -0.0666  0.2302  0.0442
  637PYPI   C2A10128  14.638  16.563   9.511  0.4574  0.1099  0.1879
  637PYPI   D3A10129  14.602  16.497   9.187 -0.0525 -0.2962 -0.0160
  637PYPI   C4A10130  14.774  16.508   8.769  0.0568 -0.0228 -0.3375
  637PYPI   C1B10131  15.170  16.470   9.680 -0.0727  0.0973  0.2552
  637PYPI   C2B10132  15.086  16.529   9.320 -0.1069  0.0427 -0.0691
  637PYPI   C3B10133  15.217  16.551   8.948  0.1091 -0.2085  0.1328
  637PYPI   C4B10134  15.379  16.513   8.608  0.0953 -0.2673  0.0994
  638PYPI    C110135   9.291   4.760  10.652 -0.0199  0.1031 -0.0487
  638PYPI    C210136   9.231   4.443  10.415 -0.1109 -0.0216  0.1378
  638PYPI    C310137   9.298   4.390  10.805 -0.3509  0.1999  0.2120
  638PYPI   PO410138   9.065   4.920  10.543 -0.3248 -0.0793 -0.1612
  638PYPI   GL110139   9.000   5.140  10.194  0.2349  0.0698 -0.2199
  638PYPI   GL210140   9.233   5.424  10.149 -0.1264  0.1187 -0.0633
  638PYPI   C1A10141   8.840   5.113   9.809  0.0609  0.2665  0.1020
  638PYPI   C2A10142   8.776   5.085   9.359  0.2999 -0.1185  0.4362
  638PYPI   D3A10143   8.742   5.153   8.949 -0.2538 -0.4449 -0.0366
  638PYPI   C4A10144   8.581   5.603   9.069 -0.1479 -0.1004 -0.3967
  638PYPI   C1B10145   9.107   5.553   9.656  0.2276  0.2685 -0.1385
  638PYPI   C2B10146   9.036   5.643   9.244 -0.3809  0.2284 -0.0977
  638PYPI   C3B10147   8.926   5.921   8.855  0.1032 -0.1997  0.0143
  638PYPI   C4B10148   8.628   5.813   8.599 -0.4922  0.2000 -0.0407
  639PYPI    C110149   8.326   1.842  10.141 -0.0599  0.2258  0.0680
  639PYPI    C210150   8.634   1.662  10.321 -0.0535  0.0044 -0.1574
  639PYPI    C310151   8.370   1.872  10.537  0.1075 -0.0237  0.0702
  639PYPI   PO410152   8.386   1.796   9.895 -0.1545  0.0326  0.0711
  639PYPI   GL110153   8.318   1.574   9.560  0.0369  0.0670 -0.1058
  639PYPI   GL210154   8.338   1.214   9.640  0.0524  0.1922 -0.0038
  639PYPI   C1A10155   8.488   1.629   9.182 -0.0755 -0.2281 -0.2447
  639PYPI   C2A10156   8.646   1.591   8.803 -0.0396  0.3861 -0.2927
  639PYPI   D3A10157   8.988   1.396   8.621 -0.0603 -0.1203 -0.0797
  639PYPI   C4A10158   9.060   0.937   8.405  0.0593 -0.0938 -0.2679
  639PYPI   C1B10159   8.250   1.242   9.146  0.1492  0.0769  0.1968
  639PYPI   C2B10160   8.178   1.494   8.828 -0.1266  0.1971  0.0387
  639PYPI   C3B10161   8.210   1.622   8.448 -0.0229  0.0090  0.0377
  639PYPI   C4B10162   8.196   1.582   7.932  0.0586  0.1157  0.1084
  640PYPI    C110163  13.125   6.874  10.514 -0.1649 -0.1831 -0.0789
  640PYPI    C210164  13.286   7.143  10.762 -0.0486 -0.1409 -0.1986
  640PYPI    C310165  13.515   6.857  10.601 -0.1818 -0.3444 -0.0320
  640PYPI   PO410166  12.955   7.016  10.396 -0.2327  0.1076 -0.1774
  640PYPI   GL110167  12.970   7.258  10.042  0.0607  0.3049  0.4148
  640PYPI   GL210168  12.647   7.060  10.016 -0.1420  0.1209 -0.0323
  640PYPI   C1A10169  12.951   7.231   9.573  0.1811 -0.2118 -0.2422
  640PYPI   C2A10170  13.020   7.287   9.167 -0.0052 -0.1953  0.1629
  640PYPI   D3A10171  13.111   7.325   8.650  0.1587  0.2984  0.1041
  640PYPI   C4A10172  13.244   7.123   8.366  0.3113  0.1083 -0.1961
  640PYPI   C1B10173  12.490   7.040   9.582  0.2695 -0.1980  0.0735
  640PYPI   C2B10174  12.411   7.121   9.127  0.2282 -0.0598 -0.0669
  640PYPI   C3B10175  12.538   7.173   8.603  0.0728  0.0849 -0.0633
  640PYPI   C4B10176  12.672   7.168   8.153  0.2392  0.2195 -0.1948
  641ERGO   ROH10177   9.874   3.035   9.558 -0.0313 -0.1786  0.0923
  641ERGO    R110178   9.768   2.886   9.343  0.2013 -0.1759 -0.0273
  641ERGO    R210179   9.521   2.941   9.231  0.0592 -0.5384  0.0952
  641ERGO    R310180   9.664   2.953   9.000 -0.0158 -0.0320  0.0641
  641ERGO    R410181   9.385   2.939   8.913 -0.0215 -0.5232  0.1292
  641ERGO    R510182   9.548   2.809   8.850  0.2379 -0.1397 -0.0360
  641ERGO    C110183   9.441   2.949   8.512 -0.1389 -0.0390  0.1200
  641ERGO    C210184   9.319   2.803   8.242  0.0200 -0.0121  0.0444
  642ERGO   ROH10185  13.099   2.489   9.481  0.1036  0.0940  0.0487
  642ERGO    R110186  13.114   2.631   9.236  0.0375  0.0656  0.0289
  642ERGO    R210187  13.336   2.779   9.163  0.0093  0.0644 -0.0412
  642ERGO    R310188  13.324   2.624   8.940 -0.0359  0.0427 -0.0251
  642ERGO    R410189  13.456   2.870   8.852 -0.1813  0.1053 -0.1048
  642ERGO    R510190  13.281   2.779   8.762 -0.1926  0.0204 -0.0134
  642ERGO    C110191  13.515   2.779   8.462 -0.3348  0.1088 -0.1267
  642ERGO    C210192  13.633   2.832   8.143  0.0825 -0.0590 -0.0785
  643ERGO   ROH10193  16.264  13.768   9.847 -0.1305  0.0329  0.2006
  643ERGO    R110194  16.248  13.788   9.566 -0.1863  0.0233  0.2035
  643ERGO    R210195  16.467  13.849   9.408 -0.2409  0.1152  0.1681
  643ERGO    R310196  16.398  13.619   9.280 -0.1625  0.0857  0.1777
  643ERGO    R410197  16.504  13.794   9.069 -0.1568  0.0962  0.1800
  643ERGO    R510198  16.310  13.693   9.069 -0.1373  0.0498  0.1512
  643ERGO    C110199  16.461  13.545   8.751 -0.0339  0.0574  0.1959
  643ERGO    C210200  16.533  13.745   8.400  0.1045 -0.0306  0.2045
  644ERGO   ROH10201   6.290  12.823   9.399  0.0022  0.1339 -0.0317
  644ERGO    R110202   6.218  12.878   9.131  0.0087 -0.0465 -0.0710
  644ERGO    R210203   6.385  13.014   8.957 -0.1185  0.1231 -0.0595
  644ERGO    R310204   6.346  12.795   8.800  0.2219  0.0191 -0.0070
  644ERGO    R410205   6.383  13.016   8.611 -0.1479  0.0434 -0.0606
  644ERGO    R510206   6.216  12.876   8.616  0.0736 -0.2291 -0.0171
  644ERGO    C110207   6.345  12.812   8.263  0.1546 -0.1005 -0.0121
  644ERGO    C210208   6.329  12.883   7.887 -0.1992 -0.2694  0.1639
  645ERGO   ROH10209   0.166   0.728   9.537  0.0585  0.1427  0.0066
  645ERGO    R110210   0.128   0.718   9.256 -0.0320  0.1126  0.0203
  645ERGO    R210211   0.201   0.500   9.104 -0.0058  0.1338  0.0121
  645ERGO    R310212  -0.057   0.511   9.022 -0.0365  0.0334  0.0903
  645ERGO    R410213   0.075   0.332   8.830  0.0086  0.1417  0.0003
  645ERGO    R510214  -0.043   0.509   8.782 -0.0947  0.1052  0.0805
  645ERGO    C110215  -0.241   0.244   8.593 -0.0119  0.0520  0.0670
  645ERGO    C210216  -0.290   0.058   8.342  0.0752 -0.0994 -0.0612
  646ERGO   ROH10217   4.388   8.333   9.631  0.1337  0.1285 -0.0758
  646ERGO    R110218   4.253   8.262   9.393  0.0083  0.1636 -0.0170
  646ERGO    R210219   4.339   8.343   9.143 -0.0444  0.0927 -0.0633
  646ERGO    R310220   4.332   8.077   9.090 -0.1920  0.0874 -0.0224
  646ERGO    R410221   4.331   8.206   8.826  0.1108  0.0385 -0.0447
  646ERGO    R510222   4.187   8.059   8.899 -0.0524  0.1546 -0.1334
  646ERGO    C110223   4.319   7.876   8.591  0.0627  0.0020  0.0046
  646ERGO    C210224   4.490   7.703   8.339  0.2356  0.0072 -0.0445
  647ERGO   ROH10225  18.359  17.512   9.760 -0.0762 -0.2400  0.0905
  647ERGO    R110226  18.249  17.397   9.526 -0.1556 -0.2926  0.1544
  647ERGO    R210227  17.996  17.286   9.519 -0.3744  0.1939  0.1339
  647ERGO    R310228  17.962  17.458   9.311  0.0871  0.0337 -0.0925
  647ERGO    R410229  17.849  17.205   9.217 -0.5713  0.1727  0.2336
  647ERGO    R510230  18.000  17.325   9.116 -0.2364 -0.3351  0.0771
  647ERGO    C110231  17.730  17.319   8.847 -0.2526  0.0101  0.0790
  647ERGO    C210232  17.445  17.497   8.759 -0.1004  0.1495 -0.2287
  648ERGO   ROH10233  17.449  11.104   9.836  0.1612  0.1068  0.2315
  648ERGO    R110234  17.608  11.093   9.602 -0.0555 -0.2777  0.0927
  648ERGO    R210235  17.532  10.951   9.377 -0.6436 -0.0298  0.1135
  648ERGO    R310236  17.572  11.190   9.253 -0.0921 -0.0909  0.1481
  648ERGO    R410237  17.452  11.018   9.047 -0.4838  0.2075  0.1214
  648ERGO    R510238  17.638  11.131   9.031 -0.2181 -0.2106  0.1431
  648ERGO    C110239  17.443  11.281   8.739  0.1265  0.2884  0.1585
  648ERGO    C210240  17.242  11.295   8.493 -0.0378  0.0426  0.0379
  649ERGO   ROH10241  13.087  17.031   9.863 -0.0805  0.1954  0.1046
  649ERGO    R110242  12.959  17.082   9.616  0.0064  0.1643  0.0533
  649ERGO    R210243  13.074  17.238   9.418  0.1117  0.0676  0.0428
  649ERGO    R310244  13.028  17.018   9.265  0.0839  0.0399  0.0891
  649ERGO    R410245  13.052  17.238   9.073  0.1447  0.0005  0.0400
  649ERGO    R510246  12.887  17.097   9.088  0.1128  0.0321  0.0578
  649ERGO    C110247  12.995  17.032   8.728  0.1379 -0.0648  0.0819
  649ERGO    C210248  13.061  17.033   8.503 -0.0812 -0.0824  0.0262
  650ERGO   ROH10249   0.296   6.237   9.676  0.2516 -0.0507 -0.1662
  650ERGO    R110250   0.213   6.330   9.422  0.1092 -0.0061 -0.1059
  650ERGO    R210251   0.389   6.441   9.240  0.0136  0.0163 -0.1940
  650ERGO    R310252   0.287   6.250   9.075 -0.0911  0.0429 -0.1593
  650ERGO    R410253   0.409   6.447   8.895 -0.2198  0.0641 -0.2074
  650ERGO    R510254   0.204   6.373   8.887 -0.2184  0.0636 -0.0845
  650ERGO    C110255   0.325   6.273   8.539 -0.4540  0.1167 -0.1827
  650ERGO    C210256   0.500   6.237   8.189 -0.1460 -0.1916  0.2011
  651ERGO   ROH10257   9.729  15.015  10.005 -0.0416 -0.0552  0.1265
  651ERGO    R110258   9.621  15.010   9.744 -0.0892 -0.1123  0.1473
  651ERGO    R210259   9.760  15.104   9.524 -0.1497 -0.1151  0.1107
  651ERGO    R310260   9.707  14.856   9.425 -0.1189 -0.1383  0.1510
  651ERGO    R410261   9.819  15.006   9.198 -0.2940 -0.1033  0.0800
  651ERGO    R510262   9.629  14.898   9.201 -0.2575 -0.1709  0.1898
  651ERGO    C110263   9.804  14.717   8.915 -0.3491 -0.1184  0.0998
  651ERGO    C210264  10.090  14.746   8.736 -0.2099 -0.1908 -0.2050
  652ERGO   ROH10265   7.174   5.252  10.115 -0.3090 -0.0741  0.0626
  652ERGO    R110266   7.260   5.188   9.853 -0.2964 -0.1514  0.0881
  652ERGO    R210267   7.089   5.082   9.662 -0.3909  0.2022 -0.0118
  652ERGO    R310268   7.177   5.293   9.514  0.0511  0.0894  0.0681
  652ERGO    R410269   7.116   5.085   9.317 -0.5784  0.3109 -0.0287
  652ERGO    R510270   7.303   5.194   9.337 -0.2765 -0.1464 -0.0596
  652ERGO    C110271   7.213   5.285   8.978 -0.2726  0.2683  0.0364
  652ERGO    C210272   7.188   5.255   8.649  0.0757  0.1874 -0.2138
  653ERGO   ROH10273  12.071  14.714   9.915  0.0268  0.0320  0.0338
  653ERGO    R110274  12.109  14.661   9.639  0.1758 -0.0168  0.0620
  653ERGO    R210275  12.029  14.838   9.442 -0.0889 -0.2249 -0.0312
  653ERGO    R310276  12.289  14.817   9.364 -0.0260  0.1861  0.0440
  653ERGO    R410277  12.145  14.900   9.122 -0.1528 -0.4208 -0.0937
  653ERGO    R510278  12.277  14.728   9.142  0.1898 -0.1369  0.1598
  653ERGO    C110279  12.456  14.917   8.863 -0.1309 -0.1491 -0.0594
  653ERGO    C210280  12.477  15.021   8.626 -0.0136 -0.0089 -0.3109
  654ERGO   ROH10281   1.787   7.391   9.545  0.1857 -0.0130  0.1093
  654ERGO    R110282   1.730   7.478   9.282  0.0227 -0.0863  0.1192
  654ERGO    R210283   1.774   7.738   9.199 -0.1346 -0.0794  0.0503
  654ERGO    R310284   1.917   7.616   9.003 -0.1695 -0.0502  0.0068
  654ERGO    R410285   1.734   7.796   8.860 -0.1792 -0.0168  0.0661
  654ERGO    R510286   1.759   7.582   8.826 -0.1950 -0.0102  0.0232
  654ERGO    C110287   1.846   7.715   8.479 -0.2379  0.0469  0.0345
  654ERGO    C210288   1.710   7.669   8.098 -0.0596  0.1555  0.0735
  655ERGO   ROH10289   9.825  14.564  10.097 -0.2486  0.2467  0.2053
  655ERGO    R110290   9.778  14.571   9.818  0.0143  0.3928  0.1628
  655ERGO    R210291   9.981  14.612   9.634  0.2801 -0.0344  0.3520
  655ERGO    R310292   9.886  14.380   9.527 -0.1501  0.1832  0.2352
  655ERGO    R410293   9.998  14.528   9.299  0.5097 -0.0649  0.3688
  655ERGO    R510294   9.796  14.446   9.315  0.2724  0.4159  0.1134
  655ERGO    C110295   9.919  14.262   9.004  0.2395  0.1215  0.2689
  655ERGO    C210296   9.975  14.165   8.719 -0.0755  0.2775 -0.1164
  656ERGO   ROH10297  11.869   3.021   9.491 -0.4078 -0.0474 -0.2225
  656ERGO    R110298  11.822   3.087   9.219 -0.3781 -0.1412 -0.2516
  656ERGO    R210299  12.022   3.178   9.052 -0.3982 -0.0005 -0.2071
  656ERGO    R310300  11.940   2.972   8.895 -0.1715 -0.1069 -0.1887
  656ERGO    R410301  12.015   3.182   8.706 -0.1142 -0.1639 -0.2179
  656ERGO    R510302  11.825   3.077   8.714 -0.0684 -0.2458 -0.3325
  656ERGO    C110303  11.933   2.991   8.358  0.2641 -0.3589 -0.2069
  656ERGO    C210304  12.132   2.828   8.121 -0.1564 -0.0907 -0.2187
  657ERGO   ROH10305  10.269   3.844   9.458  0.0273 -0.2290 -0.0594
  657ERGO    R110306  10.232   3.789   9.183  0.0192 -0.1907 -0.0666
  657ERGO    R210307   9.982   3.789   9.064  0.0205 -0.1006 -0.0774
  657ERGO    R310308  10.099   3.967   8.895  0.0840 -0.1200 -0.0521
  657ERGO    R410309   9.942   3.792   8.720 -0.0613  0.0311 -0.0670
  657ERGO    R510310  10.154   3.838   8.701 -0.0413 -0.0906 -0.1051
  657ERGO    C110311  10.029   3.960   8.362 -0.0492  0.0896 -0.0374
  657ERGO    C210312   9.956   3.960   8.115  0.0561 -0.3288  0.0621
  658ERGO   ROH10313  17.452   1.216  10.096  0.1535  0.2397 -0.2372
  658ERGO    R110314  17.317   1.170   9.852  0.0933  0.1664 -0.1907
  658ERGO    R210315  17.235   1.375   9.687  0.1004  0.1163 -0.2596
  658ERGO    R310316  17.376   1.238   9.500  0.0352  0.0098 -0.2311
  658ERGO    R410317  17.166   1.374   9.348  0.1342  0.1186 -0.2662
  658ERGO    R510318  17.211   1.161   9.344  0.0054  0.0920 -0.2385
  658ERGO    C110319  17.260   1.245   8.975  0.0925  0.0200 -0.2434
  658ERGO    C210320  17.216   1.200   8.678 -0.4417 -0.0111  0.0385
  659ERGO   ROH10321   1.221   4.851   9.674 -0.1621  0.0272 -0.0779
  659ERGO    R110322   1.085   4.829   9.426 -0.1674  0.0042 -0.0733
  659ERGO    R210323   1.041   5.046   9.261  0.0075 -0.0440 -0.1877
  659ERGO    R310324   1.164   4.889   9.076 -0.1025 -0.2348 -0.1014
  659ERGO    R410325   1.024   5.093   8.919  0.0128 -0.2434 -0.2162
  659ERGO    R510326   1.008   4.877   8.895 -0.1229 -0.2495 -0.0824
  659ERGO    C110327   1.129   4.973   8.546 -0.0874 -0.5386 -0.1517
  659ERGO    C210328   1.041   5.056   8.244  0.1416  0.0803 -0.1897
  660ERGO   ROH10329   2.059  18.402   9.752  0.0773 -0.0055 -0.1620
  660ERGO    R110330   2.138  18.481   9.492  0.0129 -0.2322 -0.2552
  660ERGO    R210331   2.125  18.313   9.274 -0.3288 -0.3335 -0.1691
  660ERGO    R310332   1.980  18.516   9.166 -0.1556 -0.2101 -0.1703
  660ERGO    R410333   2.107  18.385   8.937 -0.1527 -0.2190 -0.1539
  660ERGO    R510334   2.116  18.597   8.987 -0.0373 -0.2431 -0.0916
  660ERGO    C110335   1.960  18.619   8.639  0.1124 -0.0363 -0.1462
  660ERGO    C210336   1.952  18.651   8.238 -0.2553  0.1723  0.1080
  661ERGO   ROH10337   5.937  17.845   9.740 -0.0155 -0.0239  0.0786
  661ERGO    R110338   5.803  17.944   9.512 -0.0388  0.0125  0.1080
  661ERGO    R210339   5.877  18.178   9.386 -0.0567  0.0375  0.1425
  661ERGO    R310340   5.889  18.019   9.166 -0.0713  0.0755  0.1139
  661ERGO    R410341   5.857  18.290   9.060  0.0539  0.1051  0.1582
  661ERGO    R510342   5.733  18.117   9.013 -0.0012  0.1621  0.0991
  661ERGO    C110343   5.857  18.206   8.663  0.1047  0.1802  0.1405
  661ERGO    C210344   6.064  18.201   8.391  0.0875 -0.0287  0.0982
  662ERGO   ROH10345   2.456   0.202   9.805 -0.0478  0.2868  0.0381
  662ERGO    R110346   2.588   0.238   9.557 -0.0778  0.0629 -0.0137
  662ERGO    R210347   2.600   0.039   9.365 -0.2403 -0.0615  0.0924
  662ERGO    R310348   2.495   0.232   9.205 -0.1612 -0.0860  0.0122
  662ERGO    R410349   2.588   0.024   9.020 -0.0402 -0.0818  0.0857
  662ERGO    R510350   2.639   0.236   9.014 -0.0560 -0.0853  0.0975
  662ERGO    C110351   2.482   0.196   8.669  0.1506 -0.1165  0.0065
  662ERGO    C210352   2.419   0.068   8.322  0.2435  0.2439  0.2096
  663ERGO   ROH10353   3.684   3.572   9.717  0.1367 -0.1473 -0.0318
  663ERGO    R110354   3.555   3.485   9.481  0.1281 -0.1794 -0.0159
  663ERGO    R210355   3.364   3.638   9.351  0.0230 -0.2560  0.0453
  663ERGO    R310356   3.527   3.601   9.137 -0.0044 -0.1450  0.0059
  663ERGO    R410357   3.257   3.558   9.033 -0.0063 -0.2901  0.0642
  663ERGO    R510358   3.426   3.422   9.015  0.0683 -0.1930  0.0146
  663ERGO    C110359   3.347   3.478   8.646 -0.0492 -0.2059  0.0382
  663ERGO    C210360   3.364   3.485   8.311 -0.0531  0.3826  0.1679
  664ERGO   ROH10361   7.736   3.139   9.878  0.2596  0.0931 -0.0368
  664ERGO    R110362   7.648   2.937   9.699  0.0396  0.0955  0.0652
  664ERGO    R210363   7.447   2.979   9.515  0.1122  0.2371  0.0168
  664ERGO    R310364   7.634   2.892   9.338  0.0339 -0.0898  0.0878
  664ERGO    R410365   7.395   2.937   9.176  0.2107  0.4948 -0.0328
  664ERGO    R510366   7.512   2.754   9.185 -0.1807  0.2308 -0.0408
  664ERGO    C110367   7.540   2.831   8.813  0.1945  0.3380  0.0049
  664ERGO    C210368   7.515   2.853   8.500  0.3004  0.2292 -0.2130
  665ERGO   ROH10369   3.049  15.162   9.952 -0.0778 -0.3153  0.0360
  665ERGO    R110370   3.000  15.070   9.690  0.0920 -0.2522 -0.0191
  665ERGO    R210371   2.885  15.229   9.495 -0.0517 -0.2970  0.0342
  665ERGO    R310372   3.106  15.159   9.353  0.0639  0.0315  0.0430
  665ERGO    R410373   2.898  15.207   9.151 -0.0489 -0.3753  0.0387
  665ERGO    R510374   3.020  15.027   9.172  0.2636 -0.1732  0.0869
  665ERGO    C110375   3.113  15.129   8.816  0.0613 -0.1126  0.0497
  665ERGO    C210376   3.051  15.285   8.465 -0.1274 -0.1182  0.0436
  666ERGO   ROH10377  12.889   2.843   9.608 -0.2555 -0.0081  0.1034
  666ERGO    R110378  12.846   2.996   9.374 -0.1899  0.0094  0.1024
  666ERGO    R210379  13.045   3.149   9.256 -0.1132 -0.1050  0.0805
  666ERGO    R310380  12.980   3.004   9.036 -0.2134 -0.0766  0.0910
  666ERGO    R410381  13.125   3.236   8.932 -0.2198 -0.0888  0.0583
  666ERGO    R510382  12.928   3.169   8.870 -0.2512 -0.0559  0.1240
  666ERGO    C110383  13.110   3.151   8.535 -0.3759 -0.0526  0.0552
  666ERGO    C210384  13.134   3.101   8.192  0.0010 -0.3222  0.2591
  667ERGO   ROH10385   6.807  18.336   9.840  0.1013 -0.1468 -0.0580
  667ERGO    R110386   6.905  18.283   9.579  0.0582 -0.2235 -0.0586
  667ERGO    R210387   6.766  18.128   9.397 -0.1644  0.0465 -0.1245
  667ERGO    R310388   6.794  18.346   9.238  0.2052  0.0544 -0.0584
  667ERGO    R410389   6.862  18.121   9.065 -0.0012  0.0014 -0.0779
  667ERGO    R510390   6.984  18.297   9.101  0.2161 -0.1630  0.0280
  667ERGO    C110391   6.943  18.322   8.722  0.4408 -0.0174  0.0114
  667ERGO    C210392   7.163  18.169   8.467  0.0826 -0.1049 -0.1521
  668ERGO   ROH10393   2.448   9.359   9.468  0.1096 -0.4349 -0.2554
  668ERGO    R110394   2.591   9.506   9.273 -0.0809 -0.0693 -0.1298
  668ERGO    R210395   2.760   9.386   9.090  0.1966  0.3259 -0.1485
  668ERGO    R310396   2.606   9.518   8.909  0.0161  0.1582 -0.1196
  668ERGO    R410397   2.862   9.479   8.774 -0.0294  0.2597 -0.2421
  668ERGO    R510398   2.758   9.668   8.800 -0.1319  0.2076 -0.2627
  668ERGO    C110399   2.778   9.658   8.420 -0.3305  0.0638 -0.2696
  668ERGO    C210400   2.972   9.756   8.137 -0.0783 -0.0437  0.1739
  669ERGO   ROH10401   8.379  17.510   9.427 -0.0526  0.0937  0.0422
  669ERGO    R110402   8.360  17.595   9.157 -0.0175 -0.0097  0.0062
  669ERGO    R210403   8.517  17.489   8.956  0.0006 -0.0978  0.0625
  669ERGO    R310404   8.278  17.442   8.837  0.0102 -0.1310  0.0574
  669ERGO    R410405   8.474  17.417   8.621 -0.0096  0.1557  0.0082
  669ERGO    R510406   8.297  17.545   8.622 -0.0781  0.0576  0.1391
  669ERGO    C110407   8.223  17.332   8.314 -0.0066  0.2721 -0.0282
  669ERGO    C210408   8.179  17.029   8.089  0.2798 -0.0991  0.0572
  670ERGO   ROH10409  16.869   7.068   9.551 -0.0479  0.1740 -0.0519
  670ERGO    R110410  16.843   7.168   9.287 -0.0878  0.1923 -0.0412
  670ERGO    R210411  17.059   7.199   9.118 -0.1114  0.2147 -0.0685
  670ERGO    R310412  16.909   7.045   8.951 -0.1271  0.2196 -0.0587
  670ERGO    R410413  17.094   7.188   8.774 -0.0057  0.0676 -0.0541
  670ERGO    R510414  16.877   7.182   8.757 -0.0025  0.1602 -0.1216
  670ERGO    C110415  16.974   7.037   8.418  0.0413 -0.0134 -0.0366
  670ERGO    C210416  16.890   7.003   8.132  0.0059  0.2865  0.0690
  671ERGO   ROH10417   8.087   7.595   9.654  0.0068  0.0358 -0.0650
  671ERGO    R110418   8.219   7.513   9.418  0.2032  0.1097  0.0166
  671ERGO    R210419   8.082   7.428   9.193  0.3943 -0.2253  0.0205
  671ERGO    R310420   8.229   7.620   9.070  0.1339 -0.0588 -0.0383
  671ERGO    R410421   8.120   7.458   8.851  0.2010 -0.1598  0.0035
  671ERGO    R510422   8.330   7.508   8.884  0.1662  0.0606 -0.0934
  671ERGO    C110423   8.280   7.656   8.536 -0.1559  0.0348 -0.0615
  671ERGO    C210424   8.366   7.782   8.298 -0.0565  0.0131 -0.2542
  672ERGO   ROH10425  17.898  12.354   9.908  0.1685 -0.2520 -0.1082
  672ERGO    R110426  17.842  12.286   9.639  0.0423 -0.1554 -0.1083
  672ERGO    R210427  17.748  12.470   9.455  0.1045 -0.0492 -0.0426
  672ERGO    R310428  17.962  12.386   9.311  0.0104 -0.1568 -0.1188
  672ERGO    R410429  17.809  12.555   9.126  0.1956  0.1696  0.0299
  672ERGO    R510430  17.875  12.350   9.091 -0.0293  0.1304 -0.1497
  672ERGO    C110431  18.046  12.525   8.799  0.1601  0.1960  0.0004
  672ERGO    C210432  17.879  12.702   8.511 -0.1782 -0.4182  0.2579
  673ERGO   ROH10433  13.771   7.839   9.930  0.0134 -0.0721 -0.0858
  673ERGO    R110434  13.626   7.845   9.687 -0.0175  0.1314 -0.0639
  673ERGO    R210435  13.660   8.044   9.499  0.2414  0.0817 -0.0724
  673ERGO    R310436  13.705   7.834   9.332 -0.0859  0.0099 -0.0766
  673ERGO    R410437  13.661   8.063   9.154  0.3054  0.1025 -0.0710
  673ERGO    R510438  13.556   7.872   9.148 -0.0124  0.2672 -0.0899
  673ERGO    C110439  13.703   7.877   8.796  0.0355  0.0472 -0.0742
  673ERGO    C210440  13.762   7.918   8.434  0.1214  0.0108 -0.2711
  674PSPI    C110441   5.708   0.148   5.621  0.0535  0.0247  0.1599
  674PSPI    C210442   5.522   0.026   5.288 -0.0000  0.0271  0.1887
  674PSPI    C310443   5.598   0.415   5.344  0.0545  0.0213  0.1562
  674PSPI   PO410444   5.514  -0.014   5.865  0.5336  0.0606  0.0978
  674PSPI   GL110445   5.316   0.178   6.256  0.2490  0.0419  0.1763
  674PSPI   GL210446   5.646   0.040   6.322  0.1302 -0.0465  0.1202
  674PSPI   C1A10447   5.116   0.024   6.570 -0.1783 -0.2695 -0.0907
  674PSPI   C2A10448   4.909  -0.035   7.009  0.0939  0.1724 -0.2044
  674PSPI   C3A10449   4.673  -0.125   7.458  0.2562 -0.1042  0.0844
  674PSPI   C4A10450   4.298   0.067   7.650 -0.0899 -0.1526 -0.0160
  674PSPI   C1B10451   5.629  -0.078   6.726  0.2265  0.2571  0.0149
  674PSPI   C2B10452   5.658  -0.088   7.234  0.0469  0.0052 -0.0018
  674PSPI   C3B10453   5.571  -0.159   7.676 -0.1305 -0.1267 -0.3919
  674PSPI   C4B10454   5.792   0.116   8.068  0.1790  0.0653 -0.2247
  675PSPI    C110455   6.769   4.287   5.652 -0.2375 -0.2578  0.0768
  675PSPI    C210456   6.898   4.352   5.279 -0.0300  0.0585  0.1996
  675PSPI    C310457   7.000   4.016   5.469  0.0941  0.0217  0.0698
  675PSPI   PO410458   6.848   4.432   5.769 -0.2600  0.1478  0.1460
  675PSPI   GL110459   7.129   4.640   6.119 -0.2507 -0.1268  0.1469
  675PSPI   GL210460   6.895   4.497   6.257 -0.3405  0.1028 -0.0915
  675PSPI   C1A10461   7.342   4.584   6.579  0.0222  0.0761  0.0768
  675PSPI   C2A10462   7.306   4.491   7.053 -0.0620 -0.3281 -0.1149
  675PSPI   C3A10463   7.204   4.357   7.432  0.0928 -0.4101 -0.1040
  675PSPI   C4A10464   7.046   4.057   7.550 -0.3033  0.2902  0.1478
  675PSPI   C1B10465   6.848   4.423   6.661 -0.3461  0.3339 -0.0282
  675PSPI   C2B10466   6.789   4.323   7.058  0.0850 -0.1318  0.1411
  675PSPI   C3B10467   6.667   4.417   7.506  0.2034  0.3482 -0.0478
  675PSPI   C4B10468   6.473   4.707   7.599  0.0924  0.0190 -0.1889
  676PSPI    C110469   7.980  12.252   5.427  0.1347 -0.2446 -0.0357
  676PSPI    C210470   8.379  12.240   5.447  0.1420 -0.0412 -0.0440
  676PSPI    C310471   8.196  12.213   5.093  0.1513 -0.0615 -0.0473
  676PSPI   PO410472   7.943  12.216   5.694  0.0039  0.0600 -0.0946
  676PSPI   GL110473   7.641  12.199   5.997  0.1261  0.2073 -0.2844
  676PSPI   GL210474   7.376  11.992   5.992  0.1400  0.0418  0.0694
  676PSPI   C1A10475   7.694  12.038   6.415 -0.0715  0.2976  0.1357
  676PSPI   C2A10476   7.794  11.791   6.804 -0.0161  0.3052 -0.0855
  676PSPI   C3A10477   7.968  11.840   7.305  0.1215  0.0925 -0.0885
  676PSPI   C4A10478   7.985  12.217   7.381 -0.1335  0.1098  0.1287
  676PSPI   C1B10479   7.214  11.779   6.334 -0.3402  0.1859 -0.2496
  676PSPI   C2B10480   7.465  11.514   6.585 -0.2928  0.0028  0.2338
  676PSPI   C3B10481   7.694  11.305   6.897 -0.0032  0.0995 -0.1550
  676PSPI   C4B10482   7.703  11.224   7.267 -0.1178 -0.1274 -0.0887
  677PSPI    C110483   5.224   5.241   5.435 -0.1232 -0.0462 -0.0601
  677PSPI    C210484   5.329   4.977   5.716 -0.0832  0.2572  0.2155
  677PSPI    C310485   5.610   5.154   5.493 -0.1373 -0.3022 -0.3238
  677PSPI   PO410486   5.038   5.408   5.609 -0.2104  0.0642  0.1340
  677PSPI   GL110487   4.998   5.259   6.017  0.3165 -0.1855  0.0015
  677PSPI   GL210488   5.013   4.974   6.189 -0.2103 -0.0325 -0.1852
  677PSPI   C1A10489   5.075   5.400   6.507  0.0522 -0.0780 -0.1893
  677PSPI   C2A10490   5.202   5.435   6.884  0.1366  0.1307  0.0098
  677PSPI   C3A10491   5.304   5.485   7.307 -0.1383 -0.2395  0.3378
  677PSPI   C4A10492   5.565   5.655   7.602 -0.0826 -0.0722  0.0055
  677PSPI   C1B10493   4.708   5.003   6.531  0.1443  0.1180  0.2114
  677PSPI   C2B10494   4.760   5.049   6.922 -0.1612 -0.2971 -0.0327
  677PSPI   C3B10495   4.851   5.227   7.252 -0.1518  0.2157 -0.1216
  677PSPI   C4B10496   4.935   5.377   7.650  0.1095  0.2163  0.3640
  678PSPI    C110497   8.344   9.128   5.436  0.1263 -0.0196 -0.0359
  678PSPI    C210498   8.637   9.188   5.171 -0.0285  0.0671 -0.1896
  678PSPI    C310499   8.260   9.285   5.078 -0.0623  0.2470  0.1216
  678PSPI   PO410500   8.461   9.326   5.680  0.1170  0.0656 -0.0773
  678PSPI   GL110501   8.484   9.332   6.143 -0.1167  0.0991 -0.0660
  678PSPI   GL210502   8.357   9.676   6.323  0.1367  0.4322 -0.3239
  678PSPI   C1A10503   8.173   9.200   6.369  0.0436 -0.1216 -0.0070
  678PSPI   C2A10504   8.020   9.333   6.789 -0.1052 -0.3259  0.2911
  678PSPI   C3A10505   7.969   9.410   7.153  0.4686  0.0540  0.3175
  678PSPI   C4A10506   8.125   9.537   7.586  0.0337  0.1075  0.0867
  678PSPI   C1B10507   8.568   9.408   6.665 -0.3970  0.0331  0.0712
  678PSPI   C2B10508   8.442   9.317   7.041  0.1786  0.0140  0.1466
  678PSPI   C3B10509   8.214   9.074   7.466  0.2840 -0.3143  0.0476
  678PSPI   C4B10510   8.282   9.096   7.916 -0.0396 -0.2127  0.0776
  679PSPI    C110511   2.784  10.297   5.807  0.1017 -0.2221  0.0748
  679PSPI    C210512   2.822  10.253   5.411 -0.2088  0.1907 -0.0078
  679PSPI    C310513   2.961  10.582   5.590 -0.0042 -0.0266  0.2417
  679PSPI   PO410514   2.537  10.292   5.832  0.1861  0.0275  0.0636
  679PSPI   GL110515   2.286  10.518   6.117  0.1901 -0.3310  0.0490
  679PSPI   GL210516   2.263  10.169   6.323 -0.1083 -0.1264  0.0702
  679PSPI   C1A10517   2.479  10.667   6.535  0.1347 -0.2232  0.2072
  679PSPI   C2A10518   2.507  10.583   6.921  0.0161 -0.2397  0.1888
  679PSPI   C3A10519   2.393  10.288   7.246  0.0054 -0.0578  0.2425
  679PSPI   C4A10520   2.088  10.174   7.612 -0.4418 -0.1841  0.0664
  679PSPI   C1B10521   2.377  10.119   6.780 -0.1273  0.0099 -0.0184
  679PSPI   C2B10522   2.621   9.823   6.970 -0.4789  0.1288 -0.2713
  679PSPI   C3B10523   3.086   9.756   6.962  0.1801 -0.0025  0.3215
  679PSPI   C4B10524   3.435  10.011   6.896 -0.2139  0.0223  0.1046
  680PSPI    C110525  12.251   8.771   5.841 -0.0429 -0.0345 -0.2188
  680PSPI    C210526  12.178   8.449   6.068  0.2137 -0.0308 -0.1268
  680PSPI    C310527  12.289   8.404   5.686 -0.0304 -0.0418 -0.1988
  680PSPI   PO410528  12.436   8.890   5.954 -0.1616  0.2006 -0.1235
  680PSPI   GL110529  12.638   9.036   6.303 -0.0877  0.0318 -0.0928
  680PSPI   GL210530  12.630   8.888   6.541  0.0048 -0.1703 -0.2778
  680PSPI   C1A10531  12.926   9.307   6.579  0.0206  0.2715  0.0559
  680PSPI   C2A10532  13.057   9.445   6.915 -0.3544 -0.0316  0.0238
  680PSPI   C3A10533  13.145   9.440   7.324 -0.0868 -0.0195  0.0467
  680PSPI   C4A10534  13.359   9.559   7.728 -0.0121 -0.1589  0.0602
  680PSPI   C1B10535  12.807   8.919   6.950  0.0214  0.0166 -0.1444
  680PSPI   C2B10536  12.984   8.977   7.288  0.0427  0.0076 -0.0203
  680PSPI   C3B10537  12.998   9.108   7.699  0.2196 -0.1526  0.4580
  680PSPI   C4B10538  13.057   9.377   8.086 -0.5627 -0.1833 -0.0404
  681PSPI    C110539   2.897  12.300   5.591 -0.0566  0.0081 -0.0037
  681PSPI    C210540   2.752  11.928   5.616 -0.2560  0.0728 -0.1621
  681PSPI    C310541   3.102  11.995   5.433 -0.1282 -0.0578  0.0300
  681PSPI   PO410542   2.907  12.410   5.945 -0.1804  0.0403  0.0368
  681PSPI   GL110543   3.244  12.667   6.134 -0.3886 -0.0844  0.0273
  681PSPI   GL210544   3.336  12.982   6.050  0.1100 -0.0398 -0.0723
  681PSPI   C1A10545   3.363  12.286   6.444 -0.0145  0.1907 -0.0248
  681PSPI   C2A10546   3.297  12.203   6.939  0.0083  0.1408 -0.0389
  681PSPI   C3A10547   3.241  12.093   7.412 -0.1223  0.0068  0.0953
  681PSPI   C4A10548   3.211  12.017   7.738  0.0378 -0.2297 -0.2288
  681PSPI   C1B10549   3.471  12.970   6.491 -0.2048  0.1333 -0.2365
  681PSPI   C2B10550   3.378  12.970   6.963 -0.0532 -0.3121  0.2035
  681PSPI   C3B10551   3.336  13.020   7.450 -0.1436  0.1645  0.4083
  681PSPI   C4B10552   3.636  13.133   7.764 -0.0179  0.0284 -0.2373
  682PSPI    C110553  15.167   4.082   5.550 -0.0063 -0.0520 -0.0242
  682PSPI    C210554  14.855   4.174   5.318 -0.3528  0.0474  0.4672
  682PSPI    C310555  15.068   4.465   5.491 -0.1069 -0.0264  0.2933
  682PSPI   PO410556  15.057   3.913   5.737 -0.1078  0.1610  0.0565
  682PSPI   GL110557  15.171   3.553   6.080 -0.0494  0.0346  0.0231
  682PSPI   GL210558  15.408   3.766   6.157 -0.2010  0.3753 -0.0512
  682PSPI   C1A10559  15.176   3.502   6.552  0.0610 -0.0242  0.0627
  682PSPI   C2A10560  15.032   3.632   7.005 -0.0173 -0.1428 -0.2693
  682PSPI   C3A10561  14.972   3.900   7.380 -0.4440  0.0672  0.0008
  682PSPI   C4A10562  15.172   4.029   7.777  0.0770 -0.0118  0.4598
  682PSPI   C1B10563  15.469   3.897   6.572 -0.3508  0.0153  0.0765
  682PSPI   C2B10564  15.425   3.961   7.108  0.2718  0.2894  0.1914
  682PSPI   C3B10565  15.452   4.267   7.438 -0.0753 -0.1175  0.0619
  682PSPI   C4B10566  15.336   4.535   7.747  0.1941  0.0911  0.2089
  683PSPI    C110567  14.754  12.623   6.115 -0.0205  0.0745 -0.2372
  683PSPI    C210568  14.828  12.902   5.839 -0.2299  0.0380 -0.3322
  683PSPI    C310569  14.916  12.519   5.764  0.2807  0.1034 -0.1099
  683PSPI   PO410570  14.443  12.725   6.277  0.1704  0.3715  0.0241
  683PSPI   GL110571  14.424  13.105   6.531 -0.0539 -0.3180 -0.1732
  683PSPI   GL210572  14.625  13.314   6.667 -0.1400 -0.0108 -0.0684
  683PSPI   C1A10573  14.259  12.993   6.987  0.1852  0.2068 -0.0560
  683PSPI   C2A10574  14.513  13.140   7.313 -0.0637 -0.0713 -0.0042
  683PSPI   C3A10575  14.825  13.145   7.598  0.1914  0.3769 -0.1577
  683PSPI   C4A10576  15.082  12.745   7.753  0.1860  0.0282 -0.1167
  683PSPI   C1B10577  14.873  13.397   7.031 -0.3786 -0.0768  0.3550
  683PSPI   C2B10578  14.992  13.599   7.427 -0.0248  0.2377 -0.1593
  683PSPI   C3B10579  14.955  13.634   7.826  0.0799 -0.2669  0.1538
  683PSPI   C4B10580  14.592  13.496   7.989  0.0224  0.0332  0.0841
  684PSPI    C110581   3.516   6.825   5.284  0.0097  0.0760 -0.0246
  684PSPI    C210582   3.429   7.134   5.046 -0.1121 -0.0597 -0.1586
  684PSPI    C310583   3.647   6.830   4.906 -0.1526 -0.1229 -0.0855
  684PSPI   PO410584   3.557   6.922   5.526 -0.2519 -0.0247 -0.2642
  684PSPI   GL110585   3.476   7.189   5.809 -0.0766  0.1435 -0.1785
  684PSPI   GL210586   3.181   7.029   5.966 -0.0668  0.2251 -0.0957
  684PSPI   C1A10587   3.289   7.480   5.988  0.0524  0.0338 -0.3509
  684PSPI   C2A10588   3.525   7.634   6.255  0.2059  0.3257 -0.2921
  684PSPI   C3A10589   3.556   7.688   6.672  0.3066  0.1660  0.2342
  684PSPI   C4A10590   3.453   7.874   7.084 -0.1746 -0.0598  0.0001
  684PSPI   C1B10591   2.943   6.950   6.376 -0.2268  0.3184 -0.0576
  684PSPI   C2B10592   2.987   6.936   6.879 -0.2761  0.2102  0.1334
  684PSPI   C3B10593   2.895   7.096   7.363 -0.3119  0.4318 -0.1862
  684PSPI   C4B10594   2.904   7.149   7.826 -0.0994  0.0189 -0.3394
  685PSPI    C110595   5.539  12.863   5.090 -0.1032 -0.2707  0.0089
  685PSPI    C210596   5.551  12.815   4.693 -0.2891  0.0442 -0.0378
  685PSPI    C310597   5.710  13.142   4.860 -0.0552 -0.1690  0.1662
  685PSPI   PO410598   5.277  12.904   5.172 -0.1519 -0.0666  0.1477
  685PSPI   GL110599   5.146  12.983   5.508 -0.2592  0.1146 -0.4895
  685PSPI   GL210600   5.100  13.227   5.595  0.1196  0.0289 -0.0041
  685PSPI   C1A10601   5.301  12.900   5.888  0.0706  0.1809  0.2096
  685PSPI   C2A10602   5.249  12.922   6.342  0.1753 -0.1807  0.3752
  685PSPI   C3A10603   5.507  12.965   6.750  0.0035  0.1907 -0.1283
  685PSPI   C4A10604   5.719  13.150   7.085 -0.1465  0.0633 -0.1384
  685PSPI   C1B10605   5.069  13.317   6.026 -0.0618  0.1788 -0.1317
  685PSPI   C2B10606   4.832  13.214   6.376  0.1410 -0.3037 -0.1389
  685PSPI   C3B10607   4.646  13.304   6.823 -0.0175  0.1356 -0.0567
  685PSPI   C4B10608   4.797  13.351   7.154 -0.3299 -0.0571 -0.3422
  686PSPI    C110609  12.216   6.985   5.304 -0.3204 -0.1417  0.2052
  686PSPI    C210610  12.356   7.343   5.194  0.1374 -0.3157  0.1983
  686PSPI    C310611  11.985   7.232   5.092  0.0991  0.0340 -0.0586
  686PSPI   PO410612  12.334   6.970   5.595  0.0001 -0.0548 -0.1816
  686PSPI   GL110613  12.476   7.180   5.929 -0.1299 -0.0075 -0.0054
  686PSPI   GL210614  12.419   7.381   5.905  0.2285 -0.1723 -0.2157
  686PSPI   C1A10615  12.616   7.188   6.463  0.0531 -0.3011 -0.1118
  686PSPI   C2A10616  12.732   7.354   6.821  0.0483 -0.3188 -0.0139
  686PSPI   C3A10617  12.813   7.195   7.285  0.3571  0.0211 -0.1742
  686PSPI   C4A10618  12.789   7.286   7.597 -0.2495 -0.2175 -0.1145
  686PSPI   C1B10619  12.202   7.362   6.289 -0.0364  0.1523  0.0646
  686PSPI   C2B10620  11.787   7.184   6.454 -0.3962  0.1224 -0.0010
  686PSPI   C3B10621  11.539   7.017   6.631 -0.2638 -0.0435  0.2045
  686PSPI   C4B10622  11.368   6.938   7.054 -0.1760 -0.0765  0.0139
  687PSPI    C110623  15.346   7.136   5.540 -0.1745  0.2344 -0.0636
  687PSPI    C210624  15.501   7.359   5.247  0.2663  0.1275  0.0799
  687PSPI    C310625  15.508   6.960   5.220 -0.0897  0.1204  0.0410
  687PSPI   PO410626  15.412   7.324   5.796 -0.0993 -0.0524 -0.0681
  687PSPI   GL110627  15.626   7.723   5.948 -0.0995  0.1726  0.1796
  687PSPI   GL210628  15.430   7.650   6.255  0.0045  0.2105  0.0084
  687PSPI   C1A10629  16.040   7.813   6.123 -0.1195 -0.0613 -0.0466
  687PSPI   C2A10630  16.204   7.977   6.610 -0.0669 -0.0794 -0.2043
  687PSPI   C3A10631  16.586   8.085   6.747  0.1454 -0.1625  0.3151
  687PSPI   C4A10632  16.864   8.296   7.008  0.0728  0.0775 -0.4353
  687PSPI   C1B10633  15.756   7.660   6.580 -0.0065 -0.1394  0.1490
  687PSPI   C2B10634  15.792   7.860   6.991  0.2524 -0.1501  0.1349
  687PSPI   C3B10635  15.342   8.069   7.195  0.1684  0.2262 -0.1659
  687PSPI   C4B10636  15.001   7.894   7.450 -0.0996  0.1307  0.1883
  688PSPI    C110637  11.905  11.150   5.985 -0.0288  0.1629 -0.0199
  688PSPI    C210638  11.536  11.004   5.939 -0.0125  0.0380  0.2305
  688PSPI    C310639  11.725  11.172   5.629 -0.0291 -0.4755 -0.0692
  688PSPI   PO410640  11.948  11.262   6.233  0.1600 -0.0080  0.1303
  688PSPI   GL110641  11.685  11.273   6.536 -0.0399 -0.1136  0.1166
  688PSPI   GL210642  11.615  11.541   6.618 -0.1373  0.1426 -0.2912
  688PSPI   C1A10643  11.823  11.145   6.885  0.1146  0.0462 -0.2648
  688PSPI   C2A10644  11.797  11.184   7.403  0.0549  0.0860 -0.2542
  688PSPI   C3A10645  11.791  11.280   7.799 -0.0381 -0.1556 -0.2123
  688PSPI   C4A10646  11.775  11.230   8.198 -0.0098 -0.3177  0.0439
  688PSPI   C1B10647  11.551  11.619   7.014 -0.1611  0.0576 -0.3122
  688PSPI   C2B10648  11.585  11.648   7.445  0.2763  0.0750 -0.2074
  688PSPI   C3B10649  11.265  11.533   7.694  0.0040  0.0026 -0.0600
  688PSPI   C4B10650  11.222  11.385   8.178 -0.1803 -0.2149  0.0517
  689PSPI    C110651   0.031  16.402   5.805 -0.1199  0.0475  0.0977
  689PSPI    C210652   0.183  16.141   5.544  0.0156  0.2429 -0.0211
  689PSPI    C310653   0.412  16.436   5.688 -0.0629  0.1478  0.3065
  689PSPI   PO410654  -0.047  16.248   6.063 -0.2617  0.1108  0.0735
  689PSPI   GL110655   0.023  16.368   6.465  0.0110  0.2732 -0.0743
  689PSPI   GL210656  -0.020  16.106   6.639 -0.3012 -0.2908  0.2385
  689PSPI   C1A10657   0.421  16.106   6.425 -0.2628  0.1142 -0.3336
  689PSPI   C2A10658   0.674  16.010   6.783 -0.2943 -0.1768  0.0840
  689PSPI   C3A10659   0.990  15.947   7.066 -0.1332  0.0031 -0.1474
  689PSPI   C4A10660   1.076  15.994   7.525  0.0826 -0.0590  0.1169
  689PSPI   C1B10661  -0.134  16.513   6.936 -0.1519 -0.4007 -0.2121
  689PSPI   C2B10662   0.136  16.717   7.234 -0.1722 -0.0149 -0.4391
  689PSPI   C3B10663   0.204  17.099   7.140 -0.0153  0.2487  0.0583
  689PSPI   C4B10664  -0.025  17.408   7.125  0.1377 -0.2411  0.1613
  690PSPI    C110665  14.905  13.393   6.214 -0.0893  0.0113  0.2312
  690PSPI    C210666  14.915  13.408   5.814  0.2315 -0.2111  0.2273
  690PSPI    C310667  15.082  13.701   6.029 -0.1876  0.0524  0.2049
  690PSPI   PO410668  14.972  13.097   6.336 -0.0875  0.1977 -0.1902
  690PSPI   GL110669  14.801  12.751   6.581  0.0207  0.1116  0.1532
  690PSPI   GL210670  14.544  12.634   6.739 -0.0216 -0.0285 -0.2087
  690PSPI   C1A10671  14.889  12.924   7.039 -0.1935 -0.2685 -0.1553
  690PSPI   C2A10672  15.218  13.038   7.226  0.0891 -0.2391  0.2947
  690PSPI   C3A10673  15.400  13.088   7.615  0.0913 -0.0558 -0.1433
  690PSPI   C4A10674  15.272  13.275   8.004  0.2149 -0.3640  0.5060
  690PSPI   C1B10675  14.481  12.634   7.186 -0.0610 -0.0654  0.1008
  690PSPI   C2B10676  14.192  12.677   7.534 -0.1028 -0.0936  0.2546
  690PSPI   C3B10677  14.093  12.685   8.042 -0.3422  0.2861 -0.1347
  690PSPI   C4B10678  13.653  12.900   8.269  0.0884 -0.0202 -0.3372
  691PSPI    C110679   7.594  17.140   5.620  0.0676 -0.0520 -0.0326
  691PSPI    C210680   7.372  17.109   5.289 -0.0410  0.1293  0.0223
  691PSPI    C310681   7.566  16.789   5.430 -0.1346  0.0095 -0.1184
  691PSPI   PO410682   7.471  17.242   5.832 -0.1488  0.2977  0.1502
  691PSPI   GL110683   7.647  17.182   6.213  0.0471 -0.0500 -0.0194
  691PSPI   GL210684   7.462  17.518   6.334  0.0535  0.2034 -0.1433
  691PSPI   C1A10685   7.796  17.239   6.634  0.0874  0.0556 -0.1527
  691PSPI   C2A10686   7.804  17.389   7.102  0.0193 -0.1311  0.0510
  691PSPI   C3A10687   8.083  17.449   7.379  0.1423 -0.2679 -0.0763
  691PSPI   C4A10688   8.268  17.580   7.853 -0.0172  0.0159 -0.1090
  691PSPI   C1B10689   7.544  17.651   6.788  0.1924  0.0190  0.2180
  691PSPI   C2B10690   7.663  17.887   7.172 -0.0802 -0.3440 -0.0094
  691PSPI   C3B10691   7.752  17.794   7.525  0.1452  0.0512 -0.0516
  691PSPI   C4B10692   7.505  18.032   7.821 -0.0145  0.0418  0.0476
  692PSPI    C110693  11.129   2.881   5.196 -0.2872 -0.1366 -0.0339
  692PSPI    C210694  11.247   2.501   5.235  0.0961 -0.0003  0.1850
  692PSPI    C310695  11.456   2.753   5.004 -0.2540  0.0386 -0.0969
  692PSPI   PO410696  11.040   2.900   5.505 -0.0358  0.0469  0.2065
  692PSPI   GL110697  11.120   3.003   5.852  0.0399 -0.3883 -0.2030
  692PSPI   GL210698  11.428   2.919   5.978  0.1761  0.1875 -0.1525
  692PSPI   C1A10699  10.880   2.773   6.149  0.0687  0.1404  0.4362
  692PSPI   C2A10700  10.918   2.491   6.405  0.1019  0.1469  0.1271
  692PSPI   C3A10701  10.724   2.204   6.674 -0.0190 -0.0171 -0.2359
  692PSPI   C4A10702  10.566   1.844   6.863  0.2256  0.0515  0.1112
  692PSPI   C1B10703  11.593   3.041   6.338 -0.0218 -0.3916 -0.2325
  692PSPI   C2B10704  11.812   2.960   6.748  0.2225  0.1413  0.0961
  692PSPI   C3B10705  11.846   2.709   7.097 -0.1226 -0.1139 -0.0192
  692PSPI   C4B10706  11.837   2.399   7.332  0.0751 -0.2958  0.2676
  693PSPI    C110707  10.228  15.230   5.745 -0.0264  0.2131 -0.2236
  693PSPI    C210708  10.173  14.862   5.892  0.2337  0.1450 -0.2921
  693PSPI    C310709  10.027  14.958   5.532 -0.0466  0.1856 -0.1696
  693PSPI   PO410710  10.053  15.372   5.986  0.0982  0.1398  0.0763
  693PSPI   GL110711  10.031  15.546   6.382  0.2190 -0.0287 -0.2854
  693PSPI   GL210712  10.355  15.746   6.473 -0.0683  0.2350 -0.0144
  693PSPI   C1A10713   9.849  15.288   6.741  0.1238  0.2802 -0.2324
  693PSPI   C2A10714   9.739  15.195   7.200  0.1963 -0.1062  0.0325
  693PSPI   C3A10715   9.701  14.986   7.600  0.1226  0.0314 -0.0341
  693PSPI   C4A10716   9.390  14.761   8.014  0.0365  0.2501  0.1249
  693PSPI   C1B10717  10.227  15.628   6.873  0.0630 -0.2003 -0.3165
  693PSPI   C2B10718  10.160  15.663   7.286  0.2094 -0.1579  0.0356
  693PSPI   C3B10719  10.061  15.634   7.625 -0.0177 -0.0283  0.0105
  693PSPI   C4B10720  10.065  15.413   7.975  0.3291  0.1328 -0.0226
  694POPI    C110721  14.670  15.198   5.930  0.3932 -0.0314  0.0257
  694POPI    C210722  14.431  15.045   6.211  0.0514 -0.0260 -0.2555
  694POPI    C310723  14.630  14.801   5.965  0.0509 -0.0266 -0.2554
  694POPI   PO410724  14.606  15.461   5.915  0.3430  0.2683 -0.3669
  694POPI   GL110725  14.464  15.681   6.412  0.1306 -0.0996  0.3823
  694POPI   GL210726  14.714  15.520   6.410  0.2093 -0.0726  0.0274
  694POPI   C1A10727  14.577  15.797   6.888 -0.0744 -0.1509  0.0529
  694POPI   D2A10728  14.644  16.044   7.137  0.0996  0.3366  0.2027
  694POPI   C3A10729  14.731  15.910   7.427 -0.2291  0.1080  0.4473
  694POPI   C4A10730  14.489  15.747   7.772 -0.1771 -0.1403 -0.2476
  694POPI   C1B10731  14.549  15.296   6.761  0.0038  0.3113  0.1418
  694POPI   C2B10732  14.602  15.299   7.170 -0.2306  0.0935 -0.2331
  694POPI   C3B10733  14.650  15.377   7.483  0.0464  0.0366  0.0157
  694POPI   C4B10734  14.832  15.373   7.859 -0.0985  0.1236 -0.0751
  695POPI    C110735   7.967   0.531   5.517 -0.1376  0.2183  0.0508
  695POPI    C210736   8.333   0.449   5.377 -0.2551  0.0461 -0.1611
  695POPI    C310737   8.091   0.695   5.174 -0.2956  0.0785 -0.0743
  695POPI   PO410738   8.037   0.597   5.716 -0.4300  0.0821  0.0486
  695POPI   GL110739   8.383   0.585   5.934 -0.1579 -0.1254  0.0617
  695POPI   GL210740   8.637   0.445   5.780  0.2702  0.0190  0.0848
  695POPI   C1A10741   8.389   0.299   6.280  0.3018  0.1736  0.0275
  695POPI   D2A10742   8.685   0.114   6.574  0.0366 -0.4561 -0.4314
  695POPI   C3A10743   8.910   0.278   6.935  0.0800 -0.4258 -0.0938
  695POPI   C4A10744   9.226   0.278   7.244 -0.3022 -0.0109 -0.1931
  695POPI   C1B10745   8.858   0.493   6.164 -0.1060 -0.0253 -0.1532
  695POPI   C2B10746   8.909   0.774   6.521  0.0067 -0.0958 -0.2256
  695POPI   C3B10747   9.207   0.810   6.959  0.1355  0.0207  0.1139
  695POPI   C4B10748   9.529   1.095   7.145  0.3223 -0.0258  0.1649
  696POPI    C110749  15.335   6.601   5.527  0.2757  0.0393  0.0027
  696POPI    C210750  15.389   6.471   5.152  0.0346  0.0279 -0.0296
  696POPI    C310751  15.074   6.702   5.241  0.0557 -0.0207  0.1783
  696POPI   PO410752  15.454   6.428   5.641 -0.1118 -0.5546  0.0994
  696POPI   GL110753  15.620   6.484   6.044 -0.1793  0.1877 -0.1611
  696POPI   GL210754  15.418   6.298   6.146 -0.0274  0.2747  0.0471
  696POPI   C1A10755  15.837   6.752   6.446  0.3015 -0.4853  0.1141
  696POPI   D2A10756  16.139   6.678   6.753  0.1379 -0.0087  0.0860
  696POPI   C3A10757  16.176   6.687   7.188  0.1096  0.0677 -0.2553
  696POPI   C4A10758  16.410   6.720   7.542  0.0334 -0.1030  0.0443
  696POPI   C1B10759  15.312   6.007   6.480  0.0197 -0.0638  0.1038
  696POPI   C2B10760  15.304   5.896   6.907  0.1120  0.1598 -0.0318
  696POPI   C3B10761  14.966   5.756   7.220 -0.0844 -0.1142  0.1394
  696POPI   C4B10762  14.529   5.642   7.359  0.3428 -0.4869 -0.0931
  697POPI    C110763  11.900   3.622   5.145  0.1897  0.1194  0.0559
  697POPI    C210764  11.659   3.914   5.015  0.2071  0.1819  0.1632
  697POPI    C310765  11.732   3.597   4.782 -0.1300  0.0700  0.2037
  697POPI   PO410766  11.831   3.537   5.326 -0.2222 -0.1127 -0.1785
  697POPI   GL110767  11.927   3.766   5.814 -0.2238  0.1656 -0.0011
  697POPI   GL210768  12.191   3.610   5.777  0.0306 -0.0599  0.2577
  697POPI   C1A10769  11.729   3.655   6.313  0.0939  0.2831 -0.0532
  697POPI   D2A10770  11.535   3.536   6.708 -0.1626 -0.0206  0.3464
  697POPI   C3A10771  11.682   3.301   7.035  0.2947  0.1618 -0.0667
  697POPI   C4A10772  11.739   3.213   7.464 -0.1057  0.0539  0.0003
  697POPI   C1B10773  12.462   3.418   6.051  0.3882  0.0001 -0.3203
  697POPI   C2B10774  12.788   3.514   6.397 -0.4331  0.2250 -0.0905
  697POPI   C3B10775  12.845   3.427   6.815  0.0998  0.3740  0.3787
  697POPI   C4B10776  12.565   3.422   7.145  0.1796 -0.0714 -0.0812
  698POPI    C110777   2.955   4.163   5.760  0.2329  0.2330 -0.3277
  698POPI    C210778   2.745   4.245   5.430 -0.0585  0.1953 -0.1548
  698POPI    C310779   2.748   4.505   5.734  0.0657  0.1500 -0.1171
  698POPI   PO410780   2.939   3.844   5.848 -0.0098  0.4214  0.0928
  698POPI   GL110781   3.270   3.634   6.041 -0.3841  0.0998  0.2397
  698POPI   GL210782   3.603   3.634   6.041  0.2240 -0.1156  0.2596
  698POPI   C1A10783   3.305   3.243   6.178 -0.0486  0.1519  0.1297
  698POPI   D2A10784   3.408   2.765   6.075  0.0442 -0.2866 -0.3543
  698POPI   C3A10785   3.765   2.682   6.333  0.1960 -0.0186  0.1641
  698POPI   C4A10786   4.162   2.400   6.440 -0.1728 -0.1968 -0.0810
  698POPI   C1B10787   3.503   3.574   6.483 -0.1263  0.1515  0.2129
  698POPI   C2B10788   3.649   3.480   6.849 -0.0995 -0.0341 -0.1004
  698POPI   C3B10789   3.763   3.134   7.156 -0.0191 -0.0757 -0.0776
  698POPI   C4B10790   3.722   2.897   7.547 -0.1216 -0.3868  0.1240
  699POPI    C110791   2.636   6.839   5.347  0.1869 -0.1841 -0.2707
  699POPI    C210792   2.579   7.229   5.418  0.0038 -0.2430 -0.0859
  699POPI    C310793   2.649   7.102   5.045 -0.1699 -0.0601 -0.1822
  699POPI   PO410794   2.520   6.725   5.402  0.3099 -0.3450 -0.1221
  699POPI   GL110795   2.460   6.398   5.742  0.0588  0.0928  0.2029
  699POPI   GL210796   2.372   6.678   5.915  0.0938 -0.1558  0.0774
  699POPI   C1A10797   2.866   6.583   5.967 -0.2220 -0.0725  0.0631
  699POPI   D2A10798   3.296   6.538   6.152 -0.0688  0.0265  0.0215
  699POPI   C3A10799   3.490   6.856   6.372  0.0921  0.0079  0.0912
  699POPI   C4A10800   3.321   7.167   6.554 -0.0824 -0.0589 -0.0492
  699POPI   C1B10801   2.283   6.890   6.319 -0.0350 -0.0136  0.1914
  699POPI   C2B10802   2.552   6.748   6.653 -0.2516 -0.2144 -0.0763
  699POPI   C3B10803   2.549   6.796   7.060  0.3570  0.2340 -0.1058
  699POPI   C4B10804   2.730   6.558   7.334 -0.1916  0.0597  0.4085
  700POPI    C110805  11.754   0.047   5.437 -0.0731  0.0340 -0.3210
  700POPI    C210806  11.545   0.142   5.110 -0.3725 -0.2506 -0.2180
  700POPI    C310807  11.395   0.221   5.472 -0.1359 -0.1283 -0.1446
  700POPI   PO410808  11.853  -0.172   5.492  0.0069 -0.1045 -0.2524
  700POPI   GL110809  12.162  -0.338   5.765 -0.0612  0.0335 -0.1999
  700POPI   GL210810  12.055  -0.591   5.970 -0.2151 -0.0477 -0.0225
  700POPI   C1A10811  12.519  -0.491   6.153 -0.1700 -0.2920  0.2208
  700POPI   D2A10812  12.752  -0.400   6.488  0.2077  0.4444 -0.1891
  700POPI   C3A10813  12.611  -0.152   6.865  0.0475 -0.1730  0.1981
  700POPI   C4A10814  12.806  -0.195   7.281  0.0947 -0.0280  0.4205
  700POPI   C1B10815  12.069  -0.400   6.404  0.2217 -0.0652 -0.1541
  700POPI   C2B10816  12.192  -0.323   6.909 -0.1126 -0.2062  0.0575
  700POPI   C3B10817  12.336  -0.533   7.250 -0.2036  0.0396  0.0851
  700POPI   C4B10818  12.498  -0.582   7.715 -0.0629  0.0387 -0.4249
  701POPI    C110819  16.515   6.721   5.867  0.1625 -0.0241 -0.2517
  701POPI    C210820  16.364   6.732   5.497  0.0069  0.2443 -0.1830
  701POPI    C310821  16.148   6.578   5.796  0.1696 -0.0590 -0.2178
  701POPI   PO410822  16.882   6.745   5.801  0.0974  0.0732  0.3892
  701POPI   GL110823  17.225   6.685   6.151 -0.1776  0.1055  0.0048
  701POPI   GL210824  17.229   6.966   6.257  0.1672 -0.1513 -0.1665
  701POPI   C1A10825  17.302   6.325   6.490 -0.1475  0.2665  0.0773
  701POPI   D2A10826  17.193   6.023   6.817  0.0403  0.1176 -0.0277
  701POPI   C3A10827  16.966   6.012   7.216 -0.2983  0.0476 -0.0019
  701POPI   C4A10828  16.861   5.756   7.518  0.3963  0.1632 -0.1201
  701POPI   C1B10829  17.324   6.857   6.675  0.1070 -0.1549  0.1464
  701POPI   C2B10830  17.512   6.862   6.987 -0.1450 -0.1203  0.0853
  701POPI   C3B10831  17.699   6.927   7.409  0.0890 -0.0765 -0.1273
  701POPI   C4B10832  17.977   7.044   7.791  0.0763  0.2917  0.0524
  702POPI    C110833   5.958  16.219   5.409 -0.0704  0.3180 -0.1893
  702POPI    C210834   5.901  15.948   5.120  0.1697 -0.1216  0.1610
  702POPI    C310835   6.236  16.166   5.127  0.0405  0.0896 -0.0399
  702POPI   PO410836   5.692  16.282   5.512  0.0884 -0.0361  0.0816
  702POPI   GL110837   5.676  16.466   5.881  0.0753  0.0553 -0.0727
  702POPI   GL210838   5.968  16.574   5.977  0.0339  0.0420 -0.0121
  702POPI   C1A10839   5.489  16.396   6.291 -0.1615 -0.1845 -0.0727
  702POPI   D2A10840   5.670  16.109   6.605 -0.3194 -0.0733 -0.1088
  702POPI   C3A10841   5.581  16.166   7.015  0.0319  0.0686  0.1955
  702POPI   C4A10842   5.329  15.899   7.380 -0.0265 -0.2355  0.0655
  702POPI   C1B10843   5.978  16.455   6.407  0.1364 -0.0998 -0.1748
  702POPI   C2B10844   5.953  16.490   6.778 -0.2878  0.0928  0.1066
  702POPI   C3B10845   6.063  16.342   7.150 -0.0767  0.0287 -0.2152
  702POPI   C4B10846   6.240  16.271   7.448  0.1090 -0.0829 -0.0753
  703POPI    C110847   6.577   7.772   5.444 -0.2815  0.1273 -0.1184
  703POPI    C210848   6.860   7.519   5.316 -0.3267 -0.0760  0.1722
  703POPI    C310849   6.548   7.606   5.081 -0.0145  0.1717 -0.1620
  703POPI   PO410850   6.523   7.697   5.745  0.2326 -0.1183  0.3724
  703POPI   GL110851   6.732   7.814   6.176  0.0113 -0.2902  0.2110
  703POPI   GL210852   6.420   7.908   6.226  0.1841 -0.1070 -0.2305
  703POPI   C1A10853   6.779   7.798   6.569  0.0397  0.1846 -0.0087
  703POPI   D2A10854   6.575   7.971   6.869 -0.1685  0.1393  0.2025
  703POPI   C3A10855   6.170   8.105   6.730  0.2503  0.0973  0.0710
  703POPI   C4A10856   6.106   8.383   6.357  0.1281 -0.0985 -0.0746
  703POPI   C1B10857   6.318   7.628   6.577 -0.2370  0.0846  0.2214
  703POPI   C2B10858   6.199   7.696   7.014 -0.0997 -0.0331 -0.1002
  703POPI   C3B10859   5.928   7.768   7.409 -0.0786 -0.0014  0.1243
  703POPI   C4B10860   5.614   7.473   7.642 -0.0430  0.0705 -0.0652
  704POPI    C110861   0.278  11.121   6.083 -0.2907  0.0620  0.0167
  704POPI    C210862   0.361  10.748   6.200  0.0906  0.1042 -0.1046
  704POPI    C310863   0.056  10.816   5.950  0.0748 -0.1364 -0.1534
  704POPI   PO410864   0.566  11.224   6.047 -0.1163  0.0140  0.0618
  704POPI   GL110865   1.050  11.179   6.252  0.0598  0.0964  0.0431
  704POPI   GL210866   0.904  11.306   6.547 -0.2335  0.0797 -0.0924
  704POPI   C1A10867   1.044  10.862   6.590  0.1952  0.0211 -0.3109
  704POPI   D2A10868   1.101  10.770   6.990 -0.1850  0.0597  0.0103
  704POPI   C3A10869   1.523  10.910   7.043 -0.0263  0.1006  0.0525
  704POPI   C4A10870   1.774  11.001   7.387  0.4180  0.1985  0.1371
  704POPI   C1B10871   1.150  11.275   6.937  0.0066  0.0432 -0.0309
  704POPI   C2B10872   1.184  11.140   7.363  0.0845  0.2428 -0.0192
  704POPI   C3B10873   1.345  11.078   7.714  0.0467  0.1407 -0.0531
  704POPI   C4B10874   1.500  11.036   8.019 -0.0271  0.0525 -0.0842
  705POPI    C110875  10.316  12.786   5.917  0.1510  0.1083  0.0233
  705POPI    C210876  10.626  12.566   6.044 -0.1532 -0.4937 -0.2360
  705POPI    C310877  10.636  12.736   5.682  0.0558 -0.1206 -0.0607
  705POPI   PO410878  10.242  12.897   6.170 -0.1968  0.0319  0.0825
  705POPI   GL110879  10.492  12.860   6.459  0.0243  0.2072 -0.2601
  705POPI   GL210880  10.564  13.083   6.534 -0.2556 -0.1915 -0.2074
  705POPI   C1A10881  10.489  12.459   6.721  0.1281 -0.1560 -0.3091
  705POPI   D2A10882  10.564  12.027   6.922  0.0354  0.0334 -0.0687
  705POPI   C3A10883  10.152  11.902   7.047  0.0171 -0.0977  0.1215
  705POPI   C4A10884   9.813  11.849   7.103 -0.0325  0.1516 -0.0560
  705POPI   C1B10885  10.517  13.322   6.905 -0.3603 -0.1330 -0.1304
  705POPI   C2B10886  10.347  13.264   7.241  0.0591  0.1396  0.3940
  705POPI   C3B10887   9.966  13.167   7.352 -0.1437 -0.0566 -0.2994
  705POPI   C4B10888   9.541  13.329   7.479 -0.0453 -0.3304 -0.0780
  706POPI    C110889  18.097   2.109   5.749  0.0375  0.0169  0.0428
  706POPI    C210890  18.070   2.243   5.373  0.2061 -0.0112  0.0198
  706POPI    C310891  17.853   1.928   5.489 -0.0101  0.1309  0.0073
  706POPI   PO410892  18.025   2.287   5.883 -0.0819  0.0745  0.1517
  706POPI   GL110893  17.843   2.411   6.173  0.1635 -0.2262  0.1731
  706POPI   GL210894  17.600   2.211   6.324  0.3127 -0.0331 -0.1097
  706POPI   C1A10895  17.968   2.480   6.581 -0.2752  0.4176 -0.1145
  706POPI   D2A10896  18.164   2.719   6.937  0.0663 -0.0427 -0.4878
  706POPI   C3A10897  17.929   2.971   7.346  0.0691  0.0408  0.1044
  706POPI   C4A10898  17.662   2.915   7.759 -0.0750 -0.1983 -0.0575
  706POPI   C1B10899  17.535   2.482   6.758 -0.0241  0.1670  0.0181
  706POPI   C2B10900  17.514   2.581   7.246 -0.0851 -0.2892  0.2506
  706POPI   C3B10901  17.445   2.437   7.677 -0.1571  0.1594  0.1008
  706POPI   C4B10902  17.246   2.449   8.051  0.0271  0.1052  0.0039
  707POPI    C110903   0.597  13.936   5.447 -0.1424  0.0615 -0.1723
  707POPI    C210904   0.377  13.786   5.149  0.0184 -0.2191 -0.1536
  707POPI    C310905   0.557  14.141   5.106 -0.0370 -0.2141 -0.3539
  707POPI   PO410906   0.376  13.924   5.705 -0.0352 -0.0325 -0.3418
  707POPI   GL110907   0.279  14.164   6.029 -0.0587  0.2656 -0.1354
  707POPI   GL210908   0.535  14.434   6.194 -0.0501  0.0386  0.0603
  707POPI   C1A10909   0.392  13.976   6.415  0.2700 -0.0382  0.0287
  707POPI   D2A10910   0.415  13.853   6.852  0.0668 -0.0410  0.1302
  707POPI   C3A10911   0.598  13.938   7.240 -0.0712  0.1699  0.1011
  707POPI   C4A10912   0.836  14.017   7.475 -0.0995  0.0926  0.0801
  707POPI   C1B10913   0.173  14.485   6.467 -0.0421  0.0246  0.0133
  707POPI   C2B10914   0.016  14.618   6.805 -0.0774 -0.0478  0.1215
  707POPI   C3B10915  -0.192  14.847   7.130 -0.1417  0.0210 -0.0482
  707POPI   C4B10916  -0.309  15.056   7.545  0.0819 -0.0424 -0.0553
  708POPI    C110917  13.142  11.338   6.049  0.0377  0.1099 -0.0845
  708POPI    C210918  13.096  11.120   5.717  0.2674  0.1560 -0.1487
  708POPI    C310919  12.775  11.247   5.919  0.1237  0.2120 -0.4074
  708POPI   PO410920  13.199  11.533   6.022 -0.1985  0.2367 -0.1294
  708POPI   GL110921  13.264  11.952   6.302  0.2796  0.0628  0.1600
  708POPI   GL210922  12.994  12.056   6.362 -0.0797  0.0757 -0.0159
  708POPI   C1A10923  13.615  12.039   6.626  0.2609 -0.1663  0.0463
  708POPI   D2A10924  13.807  12.021   6.921 -0.1088 -0.1964 -0.2746
  708POPI   C3A10925  13.660  11.848   7.277 -0.3523 -0.0878 -0.0927
  708POPI   C4A10926  13.506  11.809   7.585 -0.0633 -0.1187  0.1438
  708POPI   C1B10927  12.922  12.110   6.751 -0.0215 -0.1209  0.1426
  708POPI   C2B10928  12.822  12.062   7.164  0.1407 -0.1545 -0.1362
  708POPI   C3B10929  12.971  11.995   7.578 -0.0640  0.1594 -0.2190
  708POPI   C4B10930  13.035  11.804   8.007  0.0927 -0.2404  0.0924
  709POPI    C110931   4.753   4.973   5.682 -0.2452 -0.1002  0.0470
  709POPI    C210932   4.927   4.830   5.352 -0.3213 -0.2439  0.0686
  709POPI    C310933   4.710   5.165   5.334 -0.0960 -0.0978  0.0291
  709POPI   PO410934   4.615   4.696   5.726 -0.1471  0.1818  0.0515
  709POPI   GL110935   4.668   4.309   5.972 -0.1886 -0.0358 -0.1672
  709POPI   GL210936   4.546   3.981   6.131 -0.0110  0.0403 -0.3142
  709POPI   C1A10937   4.865   4.481   6.303  0.0515 -0.0226 -0.0864
  709POPI   D2A10938   4.909   4.598   6.666 -0.0761  0.1272 -0.1299
  709POPI   C3A10939   4.961   4.491   7.037  0.2608  0.0124  0.0169
  709POPI   C4A10940   5.225   4.426   7.325  0.0686  0.2172  0.1088
  709POPI   C1B10941   4.484   3.576   6.030 -0.0625 -0.0303 -0.1726
  709POPI   C2B10942   4.510   3.405   6.453 -0.2731 -0.0337  0.1458
  709POPI   C3B10943   4.454   3.156   6.818  0.2485  0.3221  0.0748
  709POPI   C4B10944   4.216   3.158   7.121 -0.0075 -0.0587  0.0760
  710POPI    C110945  15.725   5.691   5.392 -0.0106  0.2292  0.0053
  710POPI    C210946  15.507   6.022   5.339 -0.1757  0.1237  0.0194
  710POPI    C310947  15.838   5.965   5.123 -0.2875  0.1769 -0.1682
  710POPI   PO410948  15.785   5.664   5.703 -0.2409 -0.5010  0.0337
  710POPI   GL110949  15.677   5.672   6.077  0.1433 -0.2243 -0.1065
  710POPI   GL210950  16.022   5.600   6.123  0.0363 -0.1899  0.1469
  710POPI   C1A10951  15.332   5.421   6.147  0.1014  0.1220  0.0219
  710POPI   D2A10952  15.036   5.231   5.978  0.2532 -0.0619  0.1101
  710POPI   C3A10953  14.809   4.991   6.257  0.3545  0.0926  0.2153
  710POPI   C4A10954  14.529   4.978   6.593 -0.2917  0.0257 -0.0806
  710POPI   C1B10955  16.197   5.749   6.552  0.0874  0.0143  0.0053
  710POPI   C2B10956  16.257   5.872   6.982  0.2016  0.0907 -0.2222
  710POPI   C3B10957  16.416   5.658   7.295 -0.1497  0.1183 -0.1421
  710POPI   C4B10958  16.423   5.335   7.637  0.0027 -0.1803  0.1374
  711POPI    C110959  17.391   5.857   5.768  0.0372 -0.1120  0.0363
  711POPI    C210960  17.635   6.019   5.496  0.0852 -0.1248  0.0716
  711POPI    C310961  17.239   6.041   5.447  0.0898  0.0657  0.1113
  711POPI   PO410962  17.481   5.954   6.001 -0.4020 -0.0779 -0.2602
  711POPI   GL110963  17.732   6.060   6.360 -0.3624  0.1686  0.1411
  711POPI   GL210964  17.563   5.921   6.521  0.2351  0.0721 -0.2823
  711POPI   C1A10965  18.094   6.085   6.567  0.0139 -0.1165  0.2575
  711POPI   D2A10966  18.233   6.141   6.965 -0.1673 -0.2939  0.1060
  711POPI   C3A10967  18.477   6.277   7.240  0.0656 -0.1815 -0.0200
  711POPI   C4A10968  18.938   6.339   7.413  0.2559  0.0884  0.1602
  711POPI   C1B10969  17.755   5.976   6.988 -0.1561  0.0297  0.1680
  711POPI   C2B10970  17.788   5.700   7.345 -0.1521  0.1357  0.2304
  711POPI   C3B10971  18.039   5.366   7.395  0.1041 -0.2648 -0.1929
  711POPI   C4B10972  18.130   4.935   7.538  0.1133 -0.0205 -0.2047
  712POPI    C110973   2.354   9.405   5.529  0.0108 -0.0684  0.1108
  712POPI    C210974   2.543   9.377   5.178  0.0532  0.0387  0.1245
  712POPI    C310975   2.317   9.697   5.258  0.1798  0.0953  0.2607
  712POPI   PO410976   2.473   9.318   5.691 -0.0692 -0.2120 -0.1126
  712POPI   GL110977   2.313   9.426   6.058  0.1703 -0.4463 -0.0866
  712POPI   GL210978   2.440   9.688   6.124 -0.5364  0.2976 -0.2917
  712POPI   C1A10979   2.396   9.258   6.517  0.0111 -0.2459 -0.3183
  712POPI   D2A10980   2.181   8.903   6.784  0.1458  0.1849  0.0785
  712POPI   C3A10981   2.373   8.569   7.041 -0.2667 -0.1326 -0.1335
  712POPI   C4A10982   2.702   8.352   7.191 -0.1509 -0.0846  0.1117
  712POPI   C1B10983   2.220   9.738   6.473  0.2865  0.0812  0.0993
  712POPI   C2B10984   2.124   9.632   6.896  0.0584 -0.3668 -0.1234
  712POPI   C3B10985   2.012   9.277   7.108  0.0971 -0.1119  0.0905
  712POPI   C4B10986   1.853   9.315   7.596 -0.1569 -0.3697 -0.0902
  713POPI    C110987  17.914   7.251   5.620 -0.1209 -0.0341 -0.0397
  713POPI    C210988  17.562   7.379   5.480 -0.0075  0.0750 -0.2281
  713POPI    C310989  17.841   7.245   5.227  0.0569 -0.0882 -0.0727
  713POPI   PO410990  18.086   7.473   5.775  0.3687 -0.1873  0.1171
  713POPI   GL110991  18.435   7.389   5.918  0.0855 -0.0817 -0.0033
  713POPI   GL210992  18.457   7.083   5.982  0.0682 -0.4759 -0.3552
  713POPI   C1A10993  18.557   7.570   6.296  0.0170  0.0814  0.2573
  713POPI   D2A10994  18.338   7.926   6.488  0.1714  0.0641 -0.0541
  713POPI   C3A10995  18.271   8.004   6.887  0.0721 -0.0706  0.1491
  713POPI   C4A10996  18.009   7.942   7.198  0.1376 -0.3048 -0.2009
  713POPI   C1B10997  18.464   7.049   6.407  0.0404  0.2229 -0.3402
  713POPI   C2B10998  18.577   7.188   6.846 -0.0415  0.1425  0.2563
  713POPI   C3B10999  18.750   7.121   7.310 -0.1420  0.1045  0.0114
  713POPI   C4B11000  18.670   6.726   7.579 -0.1137 -0.3125 -0.1843
  714POPI    C111001   7.930  11.282   5.521  0.1544  0.1449  0.0533
  714POPI    C211002   7.910  11.018   5.221 -0.0418  0.1089  0.0969
  714POPI    C311003   8.238  11.037   5.448  0.0011 -0.0499  0.0499
  714POPI   PO411004   7.748  11.210   5.634  0.0713  0.1903 -0.2948
  714POPI   GL111005   7.558  11.191   5.925 -0.2320 -0.1369  0.1456
  714POPI   GL211006   7.516  11.474   6.014  0.1900 -0.1177 -0.1737
  714POPI   C1A11007   7.215  11.214   6.256  0.1359 -0.0084 -0.3164
  714POPI   D2A11008   7.139  11.155   6.787  0.2493 -0.0531 -0.0968
  714POPI   C3A11009   7.225  11.528   7.036 -0.1327  0.0835 -0.0762
  714POPI   C4A11010   7.497  11.792   7.289 -0.3645  0.0334  0.3756
  714POPI   C1B11011   7.756  11.186   6.373 -0.5171 -0.0257  0.1368
  714POPI   C2B11012   7.626  10.884   6.631 -0.0452  0.0275 -0.0615
  714POPI   C3B11013   7.571  10.787   7.108 -0.3058  0.2417 -0.0748
  714POPI   C4B11014   7.295  10.548   7.397  0.2153 -0.0699 -0.4937
  715POPI    C111015  11.924  16.011   5.697 -0.0972 -0.1577  0.0243
  715POPI    C211016  11.735  16.257   5.445 -0.0041  0.1410  0.2404
  715POPI    C311017  11.534  16.087   5.746 -0.1056 -0.1825 -0.0050
  715POPI   PO411018  12.053  16.037   5.840 -0.3163 -0.2288  0.1126
  715POPI   GL111019  12.262  16.242   6.165 -0.2082 -0.0771 -0.0330
  715POPI   GL211020  12.093  16.452   6.431 -0.1920 -0.2468  0.2700
  715POPI   C1A11021  12.432  16.052   6.473  0.2582 -0.2190 -0.2936
  715POPI   D2A11022  12.559  15.990   6.895 -0.2513  0.2237 -0.1131
  715POPI   C3A11023  12.421  16.053   7.330 -0.0845 -0.1892  0.1424
  715POPI   C4A11024  12.609  16.184   7.699 -0.0078 -0.1089  0.2601
  715POPI   C1B11025  12.385  16.445   6.876 -0.1266 -0.0187 -0.0272
  715POPI   C2B11026  12.532  16.563   7.107  0.0459 -0.3604 -0.3302
  715POPI   C3B11027  12.675  16.623   7.547 -0.1942 -0.2859  0.0586
  715POPI   C4B11028  12.358  16.560   7.828  0.0715 -0.0281  0.0599
  716POPI    C111029   7.865   7.754   5.605  0.0581 -0.1133 -0.1069
  716POPI    C211030   7.933   8.144   5.551  0.0779 -0.1117 -0.0706
  716POPI    C311031   7.868   7.907   5.235  0.1857 -0.1011 -0.1014
  716POPI   PO411032   7.583   7.738   5.864  0.0055  0.2458 -0.0175
  716POPI   GL111033   7.284   7.836   6.206  0.0559  0.3928 -0.0657
  716POPI   GL211034   7.347   8.145   6.275  0.2005 -0.1454  0.2411
  716POPI   C1A11035   7.086   7.476   6.329 -0.0468  0.0893  0.0344
  716POPI   D2A11036   7.157   6.995   6.635  0.0864  0.0307  0.1385
  716POPI   C3A11037   7.104   7.178   7.066 -0.3188 -0.0886 -0.1607
  716POPI   C4A11038   7.061   7.238   7.487  0.0430 -0.1740 -0.0110
  716POPI   C1B11039   7.109   8.234   6.724  0.0248 -0.1456  0.2517
  716POPI   C2B11040   6.951   8.126   7.105  0.0213 -0.1962 -0.0204
  716POPI   C3B11041   6.620   7.984   7.390 -0.1053  0.1245 -0.3228
  716POPI   C4B11042   6.678   7.979   7.710  0.0600 -0.0851  0.1332
  717POPI    C111043  14.899  16.757   5.879 -0.2026  0.0067 -0.0024
  717POPI    C211044  14.649  17.066   5.919  0.0605  0.2483 -0.1789
  717POPI    C311045  14.671  16.871   5.571 -0.0761  0.0527 -0.0800
  717POPI   PO411046  15.129  16.888   5.965  0.0002  0.2125 -0.1123
  717POPI   GL111047  15.318  17.184   6.091  0.1285 -0.1490  0.1907
  717POPI   GL211048  15.684  17.071   6.091 -0.0656  0.3117  0.1425
  717POPI   C1A11049  15.289  17.535   6.259  0.2023 -0.0428  0.2696
  717POPI   D2A11050  15.359  17.798   6.647  0.0644 -0.0348  0.1245
  717POPI   C3A11051  15.341  18.229   6.779 -0.1312 -0.1224 -0.0119
  717POPI   C4A11052  15.521  18.460   7.028  0.0936 -0.0838 -0.2900
  717POPI   C1B11053  15.906  17.010   6.453 -0.3458  0.0738  0.1331
  717POPI   C2B11054  16.338  16.992   6.577 -0.0883  0.0219  0.2733
  717POPI   C3B11055  16.270  16.946   7.132  0.1182 -0.2605 -0.0212
  717POPI   C4B11056  16.449  17.030   7.522  0.0997  0.1088  0.3358
  718POPI    C111057  10.738  16.151   5.989  0.1857 -0.1221 -0.1027
  718POPI    C211058  10.582  16.127   5.621  0.1162  0.0360 -0.0840
  718POPI    C311059  10.938  15.963   5.698  0.1019 -0.0531 -0.2055
  718POPI   PO411060  10.534  16.236   6.181 -0.0150  0.1491 -0.0187
  718POPI   GL111061  10.456  16.320   6.580  0.0442  0.3863 -0.0398
  718POPI   GL211062  10.354  16.611   6.502 -0.2234  0.2537 -0.0486
  718POPI   C1A11063  10.454  16.422   7.054  0.1979  0.0731 -0.1637
  718POPI   D2A11064  10.327  16.498   7.397  0.3805  0.0054  0.0352
  718POPI   C3A11065  10.560  16.483   7.672  0.0571  0.2024 -0.0910
  718POPI   C4A11066  10.809  16.648   8.033 -0.0555 -0.1937  0.4795
  718POPI   C1B11067  10.064  16.584   6.739  0.0600  0.0604  0.1854
  718POPI   C2B11068   9.909  16.583   7.166  0.0886 -0.1594 -0.4652
  718POPI   C3B11069   9.495  16.572   7.365  0.0100  0.0094 -0.0425
  718POPI   C4B11070   9.138  16.388   7.544  0.2287  0.0897 -0.0799
  719POPI    C111071   6.051   4.133   5.690 -0.1719 -0.0204 -0.0827
  719POPI    C211072   5.880   4.404   5.450 -0.1505  0.0251 -0.0468
  719POPI    C311073   6.267   4.314   5.406 -0.1404  0.0515 -0.0132
  719POPI   PO411074   5.915   4.195   5.938 -0.0618 -0.2576  0.0934
  719POPI   GL111075   5.925   4.366   6.276  0.0800  0.0545  0.1354
  719POPI   GL211076   5.904   4.065   6.396  0.1083  0.1460  0.4329
  719POPI   C1A11077   6.061   4.508   6.593  0.2781  0.1315  0.3060
  719POPI   D2A11078   6.296   4.369   6.919 -0.0076 -0.1343  0.4348
  719POPI   C3A11079   6.173   4.418   7.300 -0.2584 -0.1468 -0.4207
  719POPI   C4A11080   6.178   4.323   7.701  0.2058  0.1943 -0.0371
  719POPI   C1B11081   5.961   4.028   6.765 -0.1793  0.1065 -0.0150
  719POPI   C2B11082   5.974   3.865   7.229  0.1720 -0.1355  0.0677
  719POPI   C3B11083   6.023   3.859   7.658 -0.2512 -0.0425  0.1105
  719POPI   C4B11084   5.789   3.791   8.008 -0.0333  0.1296 -0.1830
  720POPI    C111085  10.717  11.696   5.742  0.3738  0.4935 -0.1329
  720POPI    C211086  10.444  11.979   5.815  0.0165  0.1274 -0.0066
  720POPI    C311087  10.550  11.895   5.438 -0.2614  0.0782 -0.0762
  720POPI   PO411088  10.681  11.615   6.031  0.0815 -0.1256  0.1365
  720POPI   GL111089  10.599  11.485   6.388 -0.1680  0.2468 -0.3266
  720POPI   GL211090  10.374  11.335   6.441 -0.3735 -0.1578  0.2773
  720POPI   C1A11091  10.494  11.556   6.834 -0.2262 -0.1220  0.1327
  720POPI   D2A11092  10.531  11.603   7.265 -0.0071  0.3296  0.0600
  720POPI   C3A11093  10.279  11.923   7.509 -0.0178 -0.0041  0.1241
  720POPI   C4A11094  10.239  12.307   7.827  0.2518  0.0726 -0.0038
  720POPI   C1B11095  10.320  11.096   6.800 -0.0303 -0.1214  0.0120
  720POPI   C2B11096  10.345  11.140   7.345 -0.0382  0.1471  0.0868
  720POPI   C3B11097  10.365  11.329   7.734  0.3050 -0.0366 -0.0430
  720POPI   C4B11098  10.495  11.402   8.206 -0.1658 -0.3260 -0.2966
  721POPI    C111099  15.663   2.263   5.403  0.1197  0.0416 -0.0785
  721POPI    C211100  15.493   2.065   5.101 -0.0777 -0.1489  0.1534
  721POPI    C311101  15.469   2.464   5.117 -0.0358 -0.1343 -0.0981
  721POPI   PO411102  15.523   2.083   5.671  0.0159 -0.1242  0.0354
  721POPI   GL111103  15.148   2.022   5.997 -0.0097 -0.1586 -0.2774
  721POPI   GL211104  14.856   2.203   5.933  0.0974  0.0116 -0.0823
  721POPI   C1A11105  15.233   2.048   6.431  0.0943 -0.1119 -0.0873
  721POPI   D2A11106  15.095   2.155   6.720 -0.0633  0.0537  0.0032
  721POPI   C3A11107  15.134   1.894   6.999  0.0664  0.0969 -0.3403
  721POPI   C4A11108  15.139   1.849   7.469  0.0700  0.0305 -0.0426
  721POPI   C1B11109  14.639   2.034   6.283  0.2660  0.3041 -0.1052
  721POPI   C2B11110  14.784   1.735   6.532 -0.1324  0.1341  0.1414
  721POPI   C3B11111  14.719   1.617   6.971 -0.2094 -0.1044 -0.0966
  721POPI   C4B11112  14.549   1.442   7.214 -0.1054 -0.0082  0.0184
  722POPI    C111113  17.771   5.553   5.535 -0.1972  0.4601  0.3295
  722POPI    C211114  18.104   5.761   5.456 -0.0149  0.0150 -0.1302
  722POPI    C311115  17.997   5.456   5.220 -0.4207 -0.2460  0.3686
  722POPI   PO411116  17.760   5.490   5.791 -0.1656  0.3394 -0.0589
  722POPI   GL111117  17.599   5.306   6.079 -0.1185 -0.2553 -0.0572
  722POPI   GL211118  17.359   5.514   6.230  0.1021  0.1220 -0.0251
  722POPI   C1A11119  17.595   5.058   6.383 -0.2239  0.0370  0.1925
  722POPI   D2A11120  17.395   4.942   6.754  0.0888  0.1796  0.0398
  722POPI   C3A11121  17.209   5.167   7.134  0.0466  0.0770  0.0922
  722POPI   C4A11122  17.322   5.405   7.554 -0.0139  0.1586 -0.1216
  722POPI   C1B11123  17.279   5.473   6.661  0.3537 -0.0883 -0.1551
  722POPI   C2B11124  17.335   5.668   7.140  0.0048 -0.0061  0.1273
  722POPI   C3B11125  17.407   5.973   7.480 -0.0068  0.1393 -0.0162
  722POPI   C4B11126  17.220   6.069   7.900 -0.0054 -0.0579  0.1645
  723POPI    C111127  15.522  18.412   5.261  0.0028 -0.1166 -0.0976
  723POPI    C211128  15.482  18.235   4.904 -0.1880 -0.2097 -0.0315
  723POPI    C311129  15.170  18.254   5.154 -0.1249  0.0766  0.0294
  723POPI   PO411130  15.732  18.306   5.304 -0.3496 -0.1909  0.1364
  723POPI   GL111131  15.876  18.463   5.677 -0.3088 -0.1646 -0.3815
  723POPI   GL211132  16.074  18.250   5.761  0.0851 -0.2195  0.0274
  723POPI   C1A11133  15.602  18.401   5.964  0.0300 -0.4008  0.0662
  723POPI   D2A11134  15.520  18.554   6.379 -0.3033  0.3057  0.0702
  723POPI   C3A11135  15.065  18.565   6.527  0.0544 -0.0193 -0.2007
  723POPI   C4A11136  15.056  18.660   6.943  0.0931 -0.1343 -0.0403
  723POPI   C1B11137  15.996  18.274   6.246  0.3249 -0.0543 -0.0478
  723POPI   C2B11138  15.819  18.270   6.652  0.0357 -0.4292 -0.0015
  723POPI   C3B11139  16.073  18.309   6.991 -0.0858  0.0521  0.2403
  723POPI   C4B11140  16.262  18.392   7.484 -0.0039 -0.0444 -0.1359
  724POPI    C111141  18.396  16.866   5.895 -0.0501 -0.2511  0.1070
  724POPI    C211142  18.158  17.006   5.606 -0.0733 -0.0360  0.2287
  724POPI    C311143  18.554  17.001   5.553 -0.0584  0.2499  0.2925
  724POPI   PO411144  18.404  16.938   6.152 -0.0456 -0.0934  0.1410
  724POPI   GL111145  18.293  16.891   6.531  0.1592  0.0487 -0.0723
  724POPI   GL211146  18.238  17.018   6.922 -0.1973 -0.2146  0.1289
  724POPI   C1A11147  17.900  17.069   6.488  0.0795 -0.1032 -0.2009
  724POPI   D2A11148  17.548  17.311   6.568 -0.0576 -0.2830  0.0033
  724POPI   C3A11149  17.443  17.658   6.809 -0.1281  0.3098  0.2583
  724POPI   C4A11150  17.177  18.047   6.626  0.0646 -0.0629 -0.0397
  724POPI   C1B11151  17.892  17.224   7.024 -0.2456 -0.3655 -0.0039
  724POPI   C2B11152  17.651  17.237   7.373  0.0386 -0.2233  0.0958
  724POPI   C3B11153  17.778  17.017   7.769  0.1771  0.2212  0.1125
  724POPI   C4B11154  18.118  16.707   7.824  0.3383  0.1446 -0.2182
  725POPI    C111155  10.711  16.699   5.671 -0.1374  0.1478 -0.0265
  725POPI    C211156  10.995  16.758   5.396  0.1329  0.2063  0.2582
  725POPI    C311157  11.010  16.436   5.632 -0.1059  0.1484  0.1969
  725POPI   PO411158  10.731  16.903   5.766  0.1217  0.0360  0.1718
  725POPI   GL111159  10.797  17.016   6.162  0.2783  0.0147  0.2861
  725POPI   GL211160  10.795  16.660   6.265 -0.1277 -0.2509 -0.0114
  725POPI   C1A11161  10.726  17.212   6.586  0.0093 -0.0863 -0.3681
  725POPI   D2A11162  10.849  17.391   6.873 -0.2589  0.1661 -0.0585
  725POPI   C3A11163  10.905  17.346   7.190  0.1737  0.0807 -0.0914
  725POPI   C4A11164  10.643  17.366   7.494 -0.4211  0.2395 -0.2803
  725POPI   C1B11165  10.788  16.661   6.714  0.0035  0.0372 -0.1647
  725POPI   C2B11166  10.706  16.867   7.030  0.3359 -0.0690  0.2290
  725POPI   C3B11167  10.721  16.877   7.359  0.0089 -0.0540 -0.2580
  725POPI   C4B11168  10.511  16.989   7.779 -0.1305  0.0711  0.0079
  726POPI    C111169  18.413  11.689   5.632 -0.1257  0.0864  0.0681
  726POPI    C211170  18.162  11.980   5.522 -0.1928 -0.1270 -0.3667
  726POPI    C311171  18.408  11.817   5.253  0.3129 -0.0261  0.0190
  726POPI   PO411172  18.473  11.797   5.868 -0.2111  0.4222  0.1548
  726POPI   GL111173  18.659  11.584   6.202  0.2918 -0.2969  0.1031
  726POPI   GL211174  18.913  11.598   6.390  0.2389 -0.2465 -0.1895
  726POPI   C1A11175  18.301  11.307   6.341  0.0292  0.2060  0.0785
  726POPI   D2A11176  18.317  10.979   6.499 -0.0760 -0.0218  0.0411
  726POPI   C3A11177  18.682  10.703   6.661 -0.0608  0.0589 -0.1378
  726POPI   C4A11178  19.076  10.727   6.889  0.1742  0.1740  0.2331
  726POPI   C1B11179  18.627  11.581   6.756  0.2236 -0.0906  0.2066
  726POPI   C2B11180  18.467  11.450   7.219  0.2855 -0.1059 -0.2939
  726POPI   C3B11181  18.487  11.131   7.569 -0.1180  0.1540 -0.2093
  726POPI   C4B11182  18.283  10.929   7.879  0.3366  0.1982  0.1282
  727POPI    C111183   5.209  13.759   5.177 -0.1996 -0.0504 -0.0064
  727POPI    C211184   5.383  13.402   5.226 -0.2893 -0.0807  0.0951
  727POPI    C311185   5.358  13.563   4.861  0.1362  0.0197  0.1045
  727POPI   PO411186   4.919  13.643   5.313 -0.2510 -0.0688 -0.1045
  727POPI   GL111187   4.962  13.670   5.715  0.1685 -0.0321 -0.0634
  727POPI   GL211188   5.233  13.936   5.633  0.0003  0.1852  0.3140
  727POPI   C1A11189   5.070  13.986   6.087  0.0107  0.0837  0.0373
  727POPI   D2A11190   5.240  14.158   6.467 -0.2768 -0.0225  0.0535
  727POPI   C3A11191   5.604  13.972   6.672  0.0620 -0.0942  0.1163
  727POPI   C4A11192   5.698  14.165   7.069  0.0470  0.0031 -0.0852
  727POPI   C1B11193   5.550  13.960   5.925 -0.0570 -0.2697  0.1467
  727POPI   C2B11194   5.868  14.065   6.245 -0.0100 -0.0277  0.0204
  727POPI   C3B11195   5.824  14.401   6.528  0.0933  0.2595 -0.0829
  727POPI   C4B11196   5.909  14.567   6.893  0.0062 -0.0844  0.0480
  728POPI    C111197  12.842  14.613   5.811  0.2552  0.1204  0.0127
  728POPI    C211198  12.609  14.379   5.586 -0.0414  0.2483  0.1793
  728POPI    C311199  12.958  14.240   5.725 -0.0839  0.0034  0.0485
  728POPI   PO411200  12.632  14.705   6.064  0.0123  0.1436  0.1451
  728POPI   GL111201  12.690  14.770   6.454 -0.1071  0.1892  0.0565
  728POPI   GL211202  12.883  15.074   6.286 -0.0266  0.2621 -0.1086
  728POPI   C1A11203  12.928  14.797   6.870 -0.0814 -0.1180 -0.1094
  728POPI   D2A11204  12.919  14.809   7.306  0.0745 -0.1746 -0.1433
  728POPI   C3A11205  13.104  14.464   7.565 -0.2215  0.0176  0.1614
  728POPI   C4A11206  13.398  14.128   7.634  0.2102  0.0498 -0.0242
  728POPI   C1B11207  13.107  15.269   6.626 -0.1323 -0.1187 -0.0194
  728POPI   C2B11208  13.463  15.297   6.949 -0.1540  0.1742 -0.2032
  728POPI   C3B11209  13.679  15.329   7.285  0.0122 -0.1134 -0.1478
  728POPI   C4B11210  13.772  15.233   7.738  0.3765  0.0601  0.1619
  729POPI    C111211  18.331   3.622   5.308 -0.2232  0.1519  0.1177
  729POPI    C211212  18.573   3.744   5.014 -0.0065 -0.3284  0.0879
  729POPI    C311213  18.184   3.837   5.004  0.0984  0.1206 -0.0641
  729POPI   PO411214  18.469   3.698   5.533  0.0900 -0.2632  0.1017
  729POPI   GL111215  18.358   3.565   5.918  0.3209  0.0331  0.2752
  729POPI   GL211216  18.270   3.168   6.029  0.3617  0.2291  0.0403
  729POPI   C1A11217  18.622   3.857   6.109  0.0231  0.1456  0.0232
  729POPI   D2A11218  18.819   3.914   6.479  0.2293 -0.1098 -0.1944
  729POPI   C3A11219  18.858   4.003   6.846 -0.2400  0.1563 -0.1544
  729POPI   C4A11220  18.990   3.890   7.283  0.0259 -0.2418 -0.0977
  729POPI   C1B11221  18.418   3.485   6.375  0.0871  0.0927 -0.0507
  729POPI   C2B11222  18.357   3.705   6.684  0.0615  0.0880  0.0803
  729POPI   C3B11223  18.437   3.736   7.130  0.1745 -0.2002  0.0710
  729POPI   C4B11224  18.531   4.050   7.505 -0.1575 -0.0235  0.1325
  730POPI    C111225  11.225  10.079   5.990 -0.0690 -0.1088 -0.1894
  730POPI    C211226  11.082  10.372   5.759  0.0842  0.2217  0.1257
  730POPI    C311227  10.921  10.006   5.740 -0.0731  0.3075 -0.3123
  730POPI   PO411228  11.172  10.114   6.231  0.2691  0.1908  0.1349
  730POPI   GL111229  11.085  10.026   6.631  0.0337 -0.0080 -0.0721
  730POPI   GL211230  10.738  10.098   6.687 -0.0880 -0.1857 -0.1973
  730POPI   C1A11231  11.160  10.049   7.062 -0.0290 -0.0544  0.1186
  730POPI   D2A11232  11.319  10.109   7.468  0.0976 -0.0067  0.0856
  730POPI   C3A11233  11.047  10.115   7.842  0.0905 -0.1752  0.0535
  730POPI   C4A11234  11.200  10.279   8.181  0.2510  0.0056 -0.2789
  730POPI   C1B11235  10.712  10.083   7.220 -0.2041 -0.0178 -0.1221
  730POPI   C2B11236  10.612  10.216   7.634 -0.0760 -0.0490  0.2038
  730POPI   C3B11237  10.697  10.252   8.132  0.0209  0.2878  0.0440
  730POPI   C4B11238  10.591  10.267   8.648  0.3883 -0.2455  0.1359
  731POPI    C111239  11.139   1.453   5.322  0.2467  0.1431 -0.0901
  731POPI    C211240  11.082   1.073   5.212 -0.1206  0.1809 -0.0463
  731POPI    C311241  11.062   1.364   4.939  0.1498  0.1731 -0.0779
  731POPI   PO411242  11.375   1.483   5.384 -0.1547  0.0674 -0.2262
  731POPI   GL111243  11.546   1.612   5.754 -0.3374 -0.2334  0.3309
  731POPI   GL211244  11.410   1.875   5.809 -0.1616 -0.1756  0.0840
  731POPI   C1A11245  11.588   1.290   6.040  0.1225 -0.3565  0.2246
  731POPI   D2A11246  11.772   1.061   6.376 -0.2310  0.0856 -0.3744
  731POPI   C3A11247  11.493   1.048   6.704 -0.0851 -0.1681 -0.0058
  731POPI   C4A11248  11.206   1.139   6.979 -0.1474 -0.2321 -0.2818
  731POPI   C1B11249  11.386   1.749   6.205  0.0215  0.0491  0.0221
  731POPI   C2B11250  11.385   1.520   6.486  0.1377 -0.0881 -0.0793
  731POPI   C3B11251  11.141   1.640   6.979  0.0340 -0.2021  0.1615
  731POPI   C4B11252  10.856   1.408   7.173  0.3245 -0.1585  0.2401
  732POPI    C111253   6.334   2.529   5.427  0.1375  0.0095  0.1197
  732POPI    C211254   6.154   2.870   5.533 -0.0838 -0.0537 -0.0459
  732POPI    C311255   6.231   2.797   5.147  0.0813 -0.1337  0.0018
  732POPI   PO411256   6.508   2.428   5.605  0.0689  0.1110  0.2194
  732POPI   GL111257   6.857   2.547   5.921 -0.0881  0.1269 -0.0893
  732POPI   GL211258   7.067   2.520   6.156  0.0589  0.1535  0.1554
  732POPI   C1A11259   6.579   2.860   6.116 -0.1724  0.0025  0.0553
  732POPI   D2A11260   6.266   3.027   6.445 -0.0484  0.0107 -0.1598
  732POPI   C3A11261   6.035   2.760   6.621  0.0278 -0.0271 -0.0557
  732POPI   C4A11262   5.571   2.600   6.596  0.0780 -0.3574 -0.0378
  732POPI   C1B11263   6.862   2.812   6.548 -0.0170  0.0404  0.4290
  732POPI   C2B11264   6.475   2.793   6.858  0.0121 -0.1440 -0.1376
  732POPI   C3B11265   6.053   2.857   7.112 -0.2588 -0.0778 -0.1640
  732POPI   C4B11266   5.592   2.794   7.124  0.0609  0.0410 -0.0346
  733POPI    C111267  14.933   8.296   5.284 -0.2253  0.0256 -0.4396
  733POPI    C211268  15.245   8.478   5.111  0.2322  0.0603  0.3693
  733POPI    C311269  14.914   8.686   5.198  0.2270  0.1759  0.0834
  733POPI   PO411270  15.111   8.127   5.453 -0.0422 -0.2073 -0.1379
  733POPI   GL111271  15.316   8.190   5.868 -0.2107  0.2331  0.1907
  733POPI   GL211272  15.668   8.198   5.930 -0.1046 -0.2383 -0.0147
  733POPI   C1A11273  15.270   8.161   6.286 -0.2186  0.1166 -0.0657
  733POPI   D2A11274  15.372   8.022   6.702 -0.1406 -0.0463 -0.1997
  733POPI   C3A11275  15.290   7.642   6.810  0.1949  0.0673  0.0424
  733POPI   C4A11276  15.088   7.225   6.580 -0.0004 -0.0332  0.1574
  733POPI   C1B11277  15.826   8.201   6.409  0.0050  0.0003  0.1119
  733POPI   C2B11278  15.866   8.320   6.748  0.0882 -0.0035  0.0875
  733POPI   C3B11279  16.126   8.238   7.071  0.2228  0.0281  0.1348
  733POPI   C4B11280  16.433   8.268   7.409 -0.2442  0.2720  0.2672
  734POPI    C111281  10.163   5.523   5.739  0.1426 -0.1214 -0.0870
  734POPI    C211282  10.287   5.794   6.006 -0.2876  0.0633 -0.0671
  734POPI    C311283  10.298   5.878   5.615 -0.1382 -0.0094 -0.0792
  734POPI   PO411284  10.314   5.277   5.782 -0.2302 -0.2533  0.1888
  734POPI   GL111285  10.442   5.078   6.163 -0.2255 -0.1925 -0.1037
  734POPI   GL211286  10.647   5.374   6.082 -0.0755 -0.0958  0.0116
  734POPI   C1A11287  10.696   5.198   6.601  0.2664  0.0245 -0.1544
  734POPI   D2A11288  10.740   5.359   7.038 -0.0114  0.1094  0.1233
  734POPI   C3A11289  10.904   5.206   7.371 -0.0013  0.0744  0.1527
  734POPI   C4A11290  10.949   5.069   7.735 -0.4210 -0.0704  0.0526
  734POPI   C1B11291  10.532   5.672   6.407  0.2541 -0.1690 -0.0843
  734POPI   C2B11292  10.663   5.783   6.850 -0.0480 -0.0293  0.0873
  734POPI   C3B11293  10.787   5.851   7.256  0.1104 -0.4212  0.0171
  734POPI   C4B11294  10.758   5.749   7.639 -0.1748 -0.2730  0.2110
  735POPI    C111295   8.115   2.230   5.592  0.2029 -0.3193  0.1012
  735POPI    C211296   8.441   2.413   5.734  0.2060 -0.2460  0.0011
  735POPI    C311297   8.447   2.249   5.370  0.0479 -0.0092 -0.1105
  735POPI   PO411298   7.996   2.170   5.827  0.0918 -0.1686 -0.1066
  735POPI   GL111299   8.089   2.332   6.159  0.0057  0.0164 -0.0743
  735POPI   GL211300   8.384   2.112   6.176 -0.1285 -0.0940  0.1823
  735POPI   C1A11301   7.987   2.360   6.528 -0.1331  0.1444 -0.0876
  735POPI   D2A11302   7.823   2.504   6.887  0.3850 -0.2183  0.3508
  735POPI   C3A11303   7.893   2.770   7.207  0.0335  0.3262 -0.1374
  735POPI   C4A11304   8.201   2.953   7.488  0.1471  0.3277 -0.0134
  735POPI   C1B11305   8.545   2.135   6.509  0.2092  0.1063  0.0834
  735POPI   C2B11306   8.542   2.020   6.841 -0.0531  0.1174 -0.1193
  735POPI   C3B11307   8.498   2.031   7.297  0.1466  0.0230 -0.2716
  735POPI   C4B11308   8.484   2.129   7.679  0.0445 -0.1383  0.0563
  736POPI    C111309  18.303  15.322   5.232 -0.0410 -0.1233 -0.2332
  736POPI    C211310  18.046  15.615   5.141  0.0260  0.0458  0.1041
  736POPI    C311311  18.320  15.499   4.873  0.0234  0.3178 -0.0198
  736POPI   PO411312  18.321  15.406   5.491 -0.1243  0.2097 -0.1842
  736POPI   GL111313  18.482  15.365   5.962  0.0728  0.0548 -0.4152
  736POPI   GL211314  18.798  15.409   6.132  0.1127  0.1284 -0.0569
  736POPI   C1A11315  18.219  15.314   6.392  0.0079  0.0869  0.1995
  736POPI   D2A11316  18.135  14.930   6.564 -0.0055  0.0267 -0.1700
  736POPI   C3A11317  17.864  14.896   6.889  0.0451 -0.1195 -0.3055
  736POPI   C4A11318  17.869  14.755   7.242  0.3310 -0.1345 -0.2041
  736POPI   C1B11319  19.034  15.601   6.440  0.1460  0.0176 -0.0616
  736POPI   C2B11320  18.688  15.694   6.748 -0.1793 -0.1968  0.3008
  736POPI   C3B11321  18.273  15.615   6.782 -0.1886 -0.0350 -0.0970
  736POPI   C4B11322  18.142  15.323   6.994  0.0936 -0.0584  0.1810
  737POPI    C111323   2.070   0.052   5.096 -0.0924 -0.1022 -0.3642
  737POPI    C211324   1.812   0.314   4.939 -0.2092  0.2315  0.3441
  737POPI    C311325   2.165   0.440   5.078  0.1051 -0.1353 -0.0927
  737POPI   PO411326   1.921  -0.084   5.293  0.1915  0.1976  0.1446
  737POPI   GL111327   1.939  -0.008   5.771  0.1288 -0.2094 -0.1902
  737POPI   GL211328   1.748   0.176   5.940  0.1423 -0.0463 -0.1402
  737POPI   C1A11329   2.029  -0.365   6.136  0.2244 -0.0587 -0.1898
  737POPI   D2A11330   2.157  -0.700   6.414  0.0309  0.1637 -0.1873
  737POPI   C3A11331   2.231  -0.924   6.826  0.2125  0.1260 -0.0262
  737POPI   C4A11332   2.253  -1.234   7.202  0.0902 -0.3627  0.1404
  737POPI   C1B11333   1.571   0.044   6.303 -0.2743  0.2078  0.1366
  737POPI   C2B11334   1.752   0.030   6.815  0.1615  0.0338  0.1466
  737POPI   C3B11335   1.883   0.010   7.152 -0.4312  0.0554  0.0559
  737POPI   C4B11336   2.275  -0.158   7.437 -0.1233  0.1259 -0.0319
  738POPI    C111337   4.011  17.920   5.350  0.0140 -0.0013  0.1961
  738POPI    C211338   4.082  18.297   5.461  0.1054  0.0897 -0.1566
  738POPI    C311339   3.919  18.222   5.104 -0.3606 -0.1847  0.1044
  738POPI   PO411340   3.865  17.800   5.496 -0.0004 -0.1634  0.0953
  738POPI   GL111341   3.859  17.833   5.931  0.0988 -0.2646 -0.0627
  738POPI   GL211342   3.604  17.632   6.205 -0.4065 -0.0058  0.0265
  738POPI   C1A11343   4.120  17.813   6.289  0.0290  0.1569 -0.0585
  738POPI   D2A11344   4.288  17.620   6.609  0.0286  0.1593  0.2334
  738POPI   C3A11345   4.193  17.686   6.920 -0.1694 -0.1008 -0.3490
  738POPI   C4A11346   4.118  17.734   7.417  0.1182  0.0614 -0.0129
  738POPI   C1B11347   3.824  17.500   6.595  0.1042  0.1098 -0.1127
  738POPI   C2B11348   3.875  17.347   7.025 -0.1403  0.0782  0.0669
  738POPI   C3B11349   3.858  17.186   7.368  0.2242  0.2807  0.0067
  738POPI   C4B11350   3.846  17.333   7.805  0.3460 -0.3496 -0.2058
  739POPI    C111351  16.497  16.639   5.582  0.0396 -0.1157 -0.2137
  739POPI    C211352  16.208  16.364   5.552 -0.1838  0.0858  0.0444
  739POPI    C311353  16.113  16.752   5.569  0.1220  0.1739 -0.1893
  739POPI   PO411354  16.723  16.448   5.728  0.0468 -0.0323 -0.1713
  739POPI   GL111355  16.805  16.439   6.134  0.2968 -0.0908  0.2784
  739POPI   GL211356  16.841  16.110   6.285 -0.1357 -0.2079 -0.2436
  739POPI   C1A11357  16.656  16.613   6.526 -0.0902 -0.0480 -0.4106
  739POPI   D2A11358  16.573  16.556   6.950 -0.1169  0.2237 -0.0802
  739POPI   C3A11359  16.546  16.564   7.369 -0.1104  0.1944  0.2226
  739POPI   C4A11360  16.521  16.581   7.827  0.0598 -0.0886  0.0068
  739POPI   C1B11361  16.960  16.054   6.683  0.3046  0.1725 -0.1136
  739POPI   C2B11362  16.931  16.101   7.086  0.1254 -0.4639  0.0669
  739POPI   C3B11363  16.560  16.091   7.408  0.1511  0.0560  0.0002
  739POPI   C4B11364  16.194  16.049   7.647  0.1294 -0.2111 -0.2099
  740POPI    C111365  17.130  13.380   5.419 -0.3219 -0.2270  0.0564
  740POPI    C211366  17.074  13.019   5.255  0.1938 -0.2240 -0.1470
  740POPI    C311367  17.218  13.319   5.033  0.1902 -0.0127  0.1308
  740POPI   PO411368  17.165  13.455   5.737  0.1541 -0.4093  0.0120
  740POPI   GL111369  17.255  13.217   6.135  0.3737 -0.0625  0.1359
  740POPI   GL211370  17.399  12.864   6.259 -0.0431  0.1180 -0.4068
  740POPI   C1A11371  17.268  13.484   6.419  0.2179  0.2084 -0.0614
  740POPI   D2A11372  16.982  13.430   6.744  0.0435 -0.1325 -0.0083
  740POPI   C3A11373  17.049  13.565   7.161  0.0877  0.0983  0.2581
  740POPI   C4A11374  16.892  13.837   7.354  0.0796  0.2648 -0.0230
  740POPI   C1B11375  17.298  13.034   6.687  0.5191  0.1398  0.1660
  740POPI   C2B11376  17.214  13.081   7.124 -0.4950  0.4417 -0.1942
  740POPI   C3B11377  17.183  13.354   7.648 -0.0875  0.5092 -0.1828
  740POPI   C4B11378  16.923  13.403   7.971  0.0370  0.0596  0.3396
  741POPS   CNO11379  18.452   1.779   5.675 -0.1777  0.1819 -0.1298
  741POPS   PO411380  18.887   1.634   5.712  0.1532  0.2452  0.0857
  741POPS   GL111381  19.013   1.477   6.135  0.0349 -0.1064 -0.2325
  741POPS   GL211382  19.129   1.807   6.149  0.3311  0.1867  0.2809
  741POPS   C1A11383  19.072   1.445   6.521  0.0198 -0.2214 -0.3542
  741POPS   D2A11384  19.109   1.317   6.888 -0.1083 -0.3173 -0.1864
  741POPS   C3A11385  18.708   1.562   7.054 -0.0979 -0.0266  0.0852
  741POPS   C4A11386  18.553   1.887   7.298  0.2746  0.1435  0.0494
  741POPS   C1B11387  18.943   1.946   6.468 -0.1683 -0.0713  0.0089
  741POPS   C2B11388  18.864   2.011   6.882 -0.1243 -0.0753  0.1573
  741POPS   C3B11389  18.929   2.224   7.235 -0.0039 -0.0357 -0.3328
  741POPS   C4B11390  18.866   2.524   7.423  0.0431  0.0496  0.1355
  742POPS   CNO11391  11.985  11.639   5.856  0.0085 -0.1700 -0.1855
  742POPS   PO411392  12.413  11.458   6.175 -0.0747  0.0105  0.3616
  742POPS   GL111393  12.400  11.103   6.489  0.2152  0.0915 -0.1094
  742POPS   GL211394  12.280  11.250   6.724 -0.0680  0.1250 -0.1740
  742POPS   C1A11395  12.190  10.766   6.849  0.1082 -0.3908 -0.1461
  742POPS   D2A11396  12.021  10.797   7.260 -0.1388  0.0117  0.0289
  742POPS   C3A11397  11.940  10.666   7.665 -0.3037  0.2862 -0.0904
  742POPS   C4A11398  11.863  10.753   8.102  0.0537 -0.2738  0.1671
  742POPS   C1B11399  12.332  11.191   7.139 -0.3877  0.0120 -0.1392
  742POPS   C2B11400  12.223  11.050   7.616  0.1255 -0.0303  0.0387
  742POPS   C3B11401  12.249  11.109   8.061 -0.0923 -0.2154 -0.0438
  742POPS   C4B11402  12.513  11.216   8.418  0.1428 -0.0058 -0.0531
  743POPS   CNO11403   5.896   3.354   5.651 -0.3057 -0.0829  0.0130
  743POPS   PO411404   5.637   3.383   5.878  0.1233  0.0938 -0.0428
  743POPS   GL111405   5.295   3.396   6.164  0.1714 -0.0801  0.2684
  743POPS   GL211406   4.982   3.587   6.046 -0.0491  0.1707  0.0529
  743POPS   C1A11407   5.342   3.330   6.635 -0.1388 -0.1345  0.0234
  743POPS   D2A11408   5.736   3.196   6.874 -0.1996  0.0049  0.0275
  743POPS   C3A11409   5.723   3.287   7.254  0.0233 -0.0785 -0.1319
  743POPS   C4A11410   5.833   3.355   7.728 -0.1884 -0.0117  0.1000
  743POPS   C1B11411   4.976   3.591   6.438  0.1889 -0.0429 -0.0495
  743POPS   C2B11412   4.826   3.510   6.831  0.0305  0.0742 -0.1122
  743POPS   C3B11413   4.512   3.582   7.159  0.0849  0.0278  0.1282
  743POPS   C4B11414   4.422   3.547   7.585  0.2428 -0.1183  0.2209
  744POPS   CNO11415  10.025   9.961   5.606 -0.0425  0.2232  0.0777
  744POPS   PO411416   9.728   9.691   5.797  0.0855  0.1772  0.0813
  744POPS   GL111417   9.752   9.633   6.222  0.0943  0.0837  0.2670
  744POPS   GL211418   9.481   9.819   6.373 -0.0445 -0.1592  0.0089
  744POPS   C1A11419   9.903   9.544   6.587  0.2129 -0.0006  0.1645
  744POPS   D2A11420  10.090   9.653   6.954 -0.3398  0.0293 -0.4320
  744POPS   C3A11421   9.823   9.606   7.433  0.3195  0.3069 -0.1600
  744POPS   C4A11422   9.390   9.763   7.468 -0.3145 -0.1485  0.1551
  744POPS   C1B11423   9.261   9.996   6.648  0.0176 -0.2665  0.2133
  744POPS   C2B11424   9.270  10.004   6.995 -0.2722  0.2707 -0.1847
  744POPS   C3B11425   9.392  10.260   7.447  0.0962 -0.2863 -0.0578
  744POPS   C4B11426   9.457  10.392   7.838  0.0938  0.3033  0.0406
  745POPS   CNO11427  10.334   4.794   5.718  0.1744  0.3843 -0.1381
  745POPS   PO411428   9.864   4.912   5.705  0.0811  0.2421  0.0279
  745POPS   GL111429   9.985   4.766   6.149  0.1330 -0.2520 -0.0126
  745POPS   GL211430   9.916   5.006   6.298 -0.1320 -0.2021 -0.1890
  745POPS   C1A11431  10.195   4.744   6.605 -0.1997 -0.0126 -0.1288
  745POPS   D2A11432  10.494   4.880   6.904  0.0259 -0.0238  0.1454
  745POPS   C3A11433  10.673   4.514   7.077  0.2827 -0.1503  0.1220
  745POPS   C4A11434  10.536   4.377   7.554 -0.1067  0.2184  0.0547
  745POPS   C1B11435   9.754   4.888   6.636  0.3012 -0.1384  0.0174
  745POPS   C2B11436   9.852   4.919   7.068 -0.0747  0.0738 -0.1215
  745POPS   C3B11437   9.946   5.026   7.445  0.2675  0.2952  0.0425
  745POPS   C4B11438   9.651   5.037   7.843 -0.3752  0.1672 -0.1493
  746POPS   CNO11439  15.036   3.072   5.842  0.4327  0.1554  0.2908
  746POPS   PO411440  15.326   2.734   5.666  0.3336 -0.1511 -0.0646
  746POPS   GL111441  15.643   2.840   6.062 -0.0698  0.0437 -0.3757
  746POPS   GL211442  15.952   2.820   6.124  0.3139  0.4701 -0.2315
  746POPS   C1A11443  15.642   2.605   6.480  0.1805 -0.2330  0.2002
  746POPS   D2A11444  15.527   2.570   6.908 -0.0402 -0.1614  0.1002
  746POPS   C3A11445  15.217   2.321   7.198  0.0567  0.0514 -0.3143
  746POPS   C4A11446  15.002   2.582   7.465  0.2376  0.0444 -0.0369
  746POPS   C1B11447  16.251   2.756   6.455 -0.3059  0.2791  0.1665
  746POPS   C2B11448  16.352   2.839   6.832 -0.0158 -0.2957 -0.2214
  746POPS   C3B11449  16.427   3.079   7.176 -0.2778 -0.0599 -0.1666
  746POPS   C4B11450  16.332   3.161   7.637  0.0296 -0.1389 -0.4772
  747POPS   CNO11451  18.393  14.080   5.625  0.0240  0.2740 -0.0182
  747POPS   PO411452  18.132  14.361   5.708  0.0192 -0.2966 -0.1082
  747POPS   GL111453  18.311  14.307   6.160  0.0253  0.0852 -0.1453
  747POPS   GL211454  18.291  14.046   6.360 -0.2442 -0.1427  0.0893
  747POPS   C1A11455  18.061  14.373   6.657  0.3295  0.2967  0.0721
  747POPS   D2A11456  18.132  14.350   7.084  0.3040 -0.3416  0.1714
  747POPS   C3A11457  18.355  14.356   7.538 -0.0117 -0.1287 -0.1649
  747POPS   C4A11458  18.478  14.658   7.993 -0.0327 -0.0451  0.0304
  747POPS   C1B11459  18.458  14.106   6.820  0.2133  0.2394  0.1103
  747POPS   C2B11460  18.516  14.016   7.246  0.2656  0.0857  0.1233
  747POPS   C3B11461  18.458  13.826   7.671 -0.0734  0.0934  0.0349
  747POPS   C4B11462  18.257  13.546   7.937 -0.1703  0.0684 -0.0230
  748POPS   CNO11463   8.993  13.629   5.644  0.2174  0.0703  0.1903
  748POPS   PO411464   9.206  13.778   6.058  0.0999  0.4961 -0.1571
  748POPS   GL111465   8.831  13.700   6.210 -0.1357 -0.2272  0.2432
  748POPS   GL211466   8.746  13.454   6.031 -0.2066 -0.1923  0.2404
  748POPS   C1A11467   8.535  13.925   6.479 -0.0651  0.1638 -0.1086
  748POPS   D2A11468   8.428  13.929   6.932  0.0256 -0.1467 -0.2537
  748POPS   C3A11469   8.062  14.119   6.993  0.2178  0.3318  0.0478
  748POPS   C4A11470   7.676  14.026   7.129 -0.1186 -0.0436 -0.0418
  748POPS   C1B11471   8.780  13.144   6.424 -0.3542  0.2717 -0.2773
  748POPS   C2B11472   8.764  13.094   6.872 -0.3365  0.2097  0.0864
  748POPS   C3B11473   8.978  13.022   7.222 -0.2271  0.0100  0.0740
  748POPS   C4B11474   9.130  13.015   7.635 -0.1064  0.1867  0.0655
  749POPS   CNO11475   6.987   4.993   5.605  0.1935 -0.1408  0.0059
  749POPS   PO411476   7.299   4.967   5.718 -0.1038 -0.4127 -0.2805
  749POPS   GL111477   7.177   5.172   6.175  0.1198 -0.0985 -0.1087
  749POPS   GL211478   6.867   5.078   6.314  0.1512  0.3343  0.0511
  749POPS   C1A11479   7.249   5.127   6.645  0.1464  0.0770 -0.2512
  749POPS   D2A11480   6.981   4.855   6.898  0.1614 -0.1654 -0.1681
  749POPS   C3A11481   7.137   4.897   7.320 -0.0627 -0.0720 -0.1936
  749POPS   C4A11482   7.074   5.259   7.658  0.0894  0.2984 -0.1364
  749POPS   C1B11483   6.729   5.225   6.734  0.1632  0.2205 -0.1091
  749POPS   C2B11484   6.905   5.634   6.805 -0.0321  0.0143  0.3366
  749POPS   C3B11485   6.893   5.861   7.231 -0.1149 -0.1057 -0.1373
  749POPS   C4B11486   6.669   5.958   7.570  0.2096  0.0837  0.0877
  750POPS   CNO11487   0.881  11.802   5.549  0.0491 -0.0833 -0.1116
  750POPS   PO411488   0.832  12.109   5.754 -0.0916  0.1309  0.1626
  750POPS   GL111489   0.875  12.121   6.233  0.1975 -0.0525  0.1369
  750POPS   GL211490   1.060  12.233   6.363  0.0614  0.0072 -0.0976
  750POPS   C1A11491   0.831  11.833   6.655 -0.0975 -0.0092 -0.1164
  750POPS   D2A11492   0.845  11.651   6.896  0.0373  0.0598 -0.0325
  750POPS   C3A11493   0.910  11.747   7.350  0.1718  0.1926  0.3226
  750POPS   C4A11494   1.075  11.577   7.563  0.1293  0.2590 -0.1257
  750POPS   C1B11495   1.005  12.349   6.785 -0.4049 -0.1886  0.0256
  750POPS   C2B11496   0.904  12.220   7.108  0.0288 -0.0618 -0.2824
  750POPS   C3B11497   0.694  12.164   7.488 -0.1031 -0.0154  0.3828
  750POPS   C4B11498   0.341  12.113   7.629  0.0715 -0.0768 -0.2252
  751POPS   CNO11499   9.190   3.529   5.291 -0.2176 -0.0752 -0.2655
  751POPS   PO411500   9.531   3.261   5.526 -0.0095  0.1158 -0.0057
  751POPS   GL111501   9.624   3.224   6.006 -0.2105  0.2098  0.1203
  751POPS   GL211502   9.653   3.501   6.162  0.5090  0.0980 -0.1210
  751POPS   C1A11503   9.891   2.913   6.267  0.3245 -0.1173 -0.3108
  751POPS   D2A11504   9.981   2.638   6.600  0.2125 -0.1891 -0.2544
  751POPS   C3A11505   9.886   2.657   7.113  0.2260  0.0884 -0.0124
  751POPS   C4A11506   9.770   2.637   7.458 -0.0764  0.2204 -0.0327
  751POPS   C1B11507   9.619   3.481   6.639 -0.1212 -0.2178  0.1315
  751POPS   C2B11508   9.625   3.444   7.004 -0.1754 -0.1219 -0.0702
  751POPS   C3B11509   9.992   3.679   7.426 -0.0125  0.0260 -0.0165
  751POPS   C4B11510  10.100   4.085   7.658  0.3293 -0.4538 -0.2313
  752POPS   CNO11511   4.281   8.733   5.403 -0.0138  0.1244  0.3032
  752POPS   PO411512   4.309   8.946   5.710 -0.0970 -0.1572  0.2331
  752POPS   GL111513   4.209   9.215   6.099 -0.0136 -0.0276  0.4445
  752POPS   GL211514   4.312   9.575   6.142 -0.2330  0.4990 -0.0981
  752POPS   C1A11515   4.179   9.179   6.493  0.1099 -0.0412 -0.1590
  752POPS   D2A11516   4.155   9.362   6.906 -0.2302  0.1900  0.1629
  752POPS   C3A11517   4.271   9.209   7.347  0.0268  0.2364  0.0243
  752POPS   C4A11518   4.312   9.115   7.726 -0.3036  0.0415  0.0007
  752POPS   C1B11519   4.322   9.670   6.560  0.0088  0.0239  0.0163
  752POPS   C2B11520   4.639   9.514   7.032  0.1033 -0.0850 -0.4278
  752POPS   C3B11521   4.910   9.861   7.190  0.1573  0.1875 -0.0049
  752POPS   C4B11522   4.870  10.178   7.473 -0.0373  0.1603 -0.1312
  753POPS   CNO11523  18.038  10.202   5.985  0.1048  0.0725  0.2435
  753POPS   PO411524  17.593   9.990   5.966  0.1690  0.0633  0.1140
  753POPS   GL111525  17.653   9.985   6.369 -0.1454  0.1316 -0.5066
  753POPS   GL211526  17.818  10.203   6.447 -0.2367  0.3029  0.0508
  753POPS   C1A11527  17.531   9.771   6.747 -0.1781  0.0209  0.2108
  753POPS   D2A11528  17.640   9.752   7.164 -0.0512  0.0239 -0.1061
  753POPS   C3A11529  17.503   9.548   7.505  0.2363 -0.1062  0.0921
  753POPS   C4A11530  17.336   9.174   7.790 -0.0417  0.5305 -0.0015
  753POPS   C1B11531  17.749  10.348   6.946  0.0589  0.1028  0.0601
  753POPS   C2B11532  17.772  10.240   7.395 -0.2164 -0.1820  0.2614
  753POPS   C3B11533  17.828   9.949   7.707  0.3414 -0.0109 -0.0261
  753POPS   C4B11534  17.537   9.947   8.000 -0.1860  0.1647  0.0361
  754POPS   CNO11535  12.885   1.784   5.574  0.2135  0.0297  0.2055
  754POPS   PO411536  12.948   2.248   5.620  0.0900 -0.0949 -0.2872
  754POPS   GL111537  13.099   2.329   5.976  0.0435 -0.3622  0.0156
  754POPS   GL211538  13.020   2.655   6.037  0.0525 -0.3543 -0.2815
  754POPS   C1A11539  13.049   2.326   6.483  0.0066  0.0757  0.5172
  754POPS   D2A11540  13.121   2.036   6.877 -0.0817 -0.2809  0.0830
  754POPS   C3A11541  12.998   2.246   7.277  0.0054 -0.1343 -0.0479
  754POPS   C4A11542  12.703   2.468   7.367  0.2451  0.1927 -0.1115
  754POPS   C1B11543  12.787   2.959   6.134  0.1215 -0.0964  0.3402
  754POPS   C2B11544  12.503   3.045   6.395  0.3099 -0.0975  0.3850
  754POPS   C3B11545  12.459   3.038   6.776 -0.2246  0.0703  0.0304
  754POPS   C4B11546  12.145   3.185   7.100 -0.0700  0.2149  0.0756
  755POPS   CNO11547   6.520   5.684   5.636  0.0016  0.1364 -0.3236
  755POPS   PO411548   6.688   6.021   5.449  0.2184 -0.0469  0.1765
  755POPS   GL111549   6.462   6.145   5.921 -0.1427  0.1031  0.0961
  755POPS   GL211550   6.371   6.482   5.956 -0.2017 -0.1255 -0.1806
  755POPS   C1A11551   6.712   5.993   6.231  0.1525 -0.2783  0.0863
  755POPS   D2A11552   7.015   6.205   6.400  0.1646  0.0043  0.0794
  755POPS   C3A11553   7.087   6.471   6.717  0.1008 -0.4310 -0.1471
  755POPS   C4A11554   7.444   6.435   6.943 -0.0221 -0.1773 -0.3145
  755POPS   C1B11555   6.402   6.317   6.399  0.1617  0.1693  0.4169
  755POPS   C2B11556   6.645   6.196   6.764 -0.1687 -0.2488 -0.1110
  755POPS   C3B11557   6.762   6.475   7.195  0.0762 -0.0371 -0.0017
  755POPS   C4B11558   6.571   6.551   7.501 -0.0669  0.0789 -0.0151
  756POPS   CNO11559  13.707  11.720   5.971  0.0831  0.0754 -0.0244
  756POPS   PO411560  13.698  11.281   5.928  0.1713  0.3940 -0.3075
  756POPS   GL111561  13.572  11.279   6.362 -0.1199  0.2236 -0.3511
  756POPS   GL211562  13.532  11.559   6.438  0.0092  0.1595  0.3557
  756POPS   C1A11563  13.499  11.177   6.822  0.0555  0.0319 -0.0878
  756POPS   D2A11564  13.433  11.303   7.130  0.0709 -0.1445  0.0457
  756POPS   C3A11565  13.606  11.365   7.557  0.1107 -0.1059 -0.2902
  756POPS   C4A11566  13.417  11.399   8.012 -0.0478  0.3488  0.3054
  756POPS   C1B11567  13.246  11.748   6.789  0.0581 -0.0765  0.0919
  756POPS   C2B11568  13.117  11.650   7.268 -0.0706  0.1762 -0.3394
  756POPS   C3B11569  13.073  11.317   7.658 -0.2160 -0.0506  0.0311
  756POPS   C4B11570  12.973  11.316   8.208  0.0547  0.2902 -0.0539
  757POPS   CNO11571  14.385  17.327   4.973 -0.0207 -0.1819  0.5194
  757POPS   PO411572  14.396  17.238   5.328  0.0671  0.1160  0.0598
  757POPS   GL111573  14.163  17.432   5.721  0.1129 -0.1194  0.1279
  757POPS   GL211574  13.855  17.492   6.006  0.3818 -0.1191 -0.0900
  757POPS   C1A11575  14.320  17.594   6.144  0.1787  0.0379 -0.0119
  757POPS   D2A11576  14.408  17.358   6.433  0.2326  0.2634  0.1206
  757POPS   C3A11577  14.369  16.972   6.655 -0.1987 -0.1116  0.0775
  757POPS   C4A11578  14.710  16.901   6.907 -0.2924 -0.1157  0.0297
  757POPS   C1B11579  13.945  17.583   6.469 -0.3673  0.1607  0.1498
  757POPS   C2B11580  14.287  17.656   6.790 -0.0694 -0.1331  0.1613
  757POPS   C3B11581  14.285  17.761   7.275 -0.0031  0.0316 -0.0565
  757POPS   C4B11582  14.254  17.855   7.691  0.1075 -0.0361 -0.0220
  758POPS   CNO11583  10.203  13.246   5.829  0.3362 -0.1464 -0.3962
  758POPS   PO411584   9.939  13.685   5.882  0.1324  0.3143 -0.2380
  758POPS   GL111585   9.610  13.476   6.158  0.0811 -0.2226  0.0600
  758POPS   GL211586   9.573  13.852   6.383 -0.0340  0.2561  0.0819
  758POPS   C1A11587   9.676  13.271   6.587  0.1043 -0.1677  0.0322
  758POPS   D2A11588  10.061  13.088   6.733 -0.0112 -0.3178 -0.3159
  758POPS   C3A11589  10.164  12.828   7.047 -0.0784 -0.1936  0.1112
  758POPS   C4A11590  10.364  12.394   7.219  0.3418  0.2268  0.0170
  758POPS   C1B11591   9.430  13.671   6.718  0.0324  0.0228  0.0860
  758POPS   C2B11592   9.249  13.441   7.015 -0.1182  0.0287  0.1582
  758POPS   C3B11593   9.129  13.566   7.376  0.2523  0.0466  0.0445
  758POPS   C4B11594   8.720  13.289   7.567  0.0873  0.0145  0.0028
  759POPS   CNO11595  17.719   1.798   6.016  0.2182 -0.1511 -0.0125
  759POPS   PO411596  18.029   1.472   5.930 -0.3792  0.2210  0.1647
  759POPS   GL111597  18.221   1.751   6.067 -0.3048  0.1533 -0.1760
  759POPS   GL211598  18.526   1.713   6.196 -0.1877  0.1366 -0.0307
  759POPS   C1A11599  17.980   1.921   6.444  0.1167  0.0159  0.0997
  759POPS   D2A11600  17.756   1.972   6.764  0.0693 -0.1733  0.2215
  759POPS   C3A11601  17.867   2.252   7.061 -0.4720  0.1573 -0.1492
  759POPS   C4A11602  17.902   2.418   7.454 -0.0118  0.1281  0.1008
  759POPS   C1B11603  18.466   1.694   6.614 -0.1744  0.1309  0.1296
  759POPS   C2B11604  18.225   1.782   6.921 -0.1035  0.4111  0.0665
  759POPS   C3B11605  17.975   1.872   7.283 -0.2674  0.2110 -0.2745
  759POPS   C4B11606  17.684   1.977   7.535  0.2846 -0.0710  0.1203
  760POPS   CNO11607  10.851   0.475   4.942 -0.0856 -0.0644  0.0977
  760POPS   PO411608  11.200   0.556   5.174 -0.1962 -0.0611  0.0968
  760POPS   GL111609  11.092   0.685   5.582  0.0166 -0.2369 -0.0263
  760POPS   GL211610  11.114   1.024   5.701 -0.0585 -0.1794  0.0631
  760POPS   C1A11611  11.092   0.382   5.958  0.1247  0.0052  0.1619
  760POPS   D2A11612  10.880   0.143   6.345 -0.0079 -0.1715  0.1299
  760POPS   C3A11613  10.699   0.382   6.728 -0.1116  0.1179  0.0242
  760POPS   C4A11614  10.858   0.753   7.024  0.0227 -0.1105 -0.0733
  760POPS   C1B11615  10.689   1.066   5.957  0.3163  0.1282 -0.0315
  760POPS   C2B11616  10.480   1.138   6.301 -0.3985  0.0476  0.0258
  760POPS   C3B11617  10.257   1.264   6.602  0.1885 -0.0491  0.1425
  760POPS   C4B11618  10.166   1.527   6.879  0.0668  0.2461  0.5453
  761POPS   CNO11619  16.430   4.156   5.258 -0.0258 -0.1997  0.2697
  761POPS   PO411620  16.630   4.012   5.559  0.0392  0.0341  0.1509
  761POPS   GL111621  16.748   3.947   6.027  0.2980 -0.1409 -0.1247
  761POPS   GL211622  17.113   3.936   6.016  0.1182  0.0561 -0.1716
  761POPS   C1A11623  16.616   4.151   6.399 -0.2172  0.1363 -0.2935
  761POPS   D2A11624  16.548   4.410   6.818 -0.0829  0.3680 -0.1560
  761POPS   C3A11625  16.649   4.606   7.297 -0.3194  0.1107  0.1478
  761POPS   C4A11626  16.672   4.853   7.728 -0.0982 -0.3285  0.0589
  761POPS   C1B11627  17.091   4.204   6.429  0.0747 -0.0369 -0.1784
  761POPS   C2B11628  17.025   4.340   6.761  0.0427  0.4513  0.0833
  761POPS   C3B11629  17.108   4.545   7.093 -0.0440  0.0020  0.1464
  761POPS   C4B11630  17.124   4.362   7.516  0.0069  0.0245 -0.5205
  762POPS   CNO11631  10.081  18.082   5.592 -0.1124 -0.0960 -0.1203
  762POPS   PO411632  10.416  18.376   5.670  0.0263 -0.0829 -0.0166
  762POPS   GL111633  10.334  18.489   6.052  0.2717 -0.3947  0.2333
  762POPS   GL211634  10.341  18.101   6.105 -0.1235  0.3453  0.0057
  762POPS   C1A11635  10.206  18.418   6.473  0.1786 -0.0653 -0.0656
  762POPS   D2A11636  10.323  18.373   6.920  0.3141 -0.1627  0.1852
  762POPS   C3A11637  10.531  18.669   7.128 -0.1065 -0.2845 -0.2065
  762POPS   C4A11638  11.012  18.782   7.153  0.1504 -0.5970 -0.1687
  762POPS   C1B11639  10.645  18.186   6.431 -0.0803  0.0991 -0.1934
  762POPS   C2B11640  10.838  18.205   6.698 -0.0940  0.3094 -0.1461
  762POPS   C3B11641  10.827  18.273   7.135 -0.1243  0.4222 -0.2005
  762POPS   C4B11642  10.770  18.410   7.541  0.0966 -0.0550 -0.0475
  763POPS   CNO11643  10.103   7.812   6.065 -0.1443 -0.0445 -0.1028
  763POPS   PO411644  10.408   8.198   6.023  0.0219 -0.0615  0.2196
  763POPS   GL111645  10.304   8.197   6.439  0.1417  0.3829 -0.0478
  763POPS   GL211646  10.443   7.842   6.450  0.0777  0.1244  0.0005
  763POPS   C1A11647  10.146   8.413   6.768  0.1560 -0.1912  0.4796
  763POPS   D2A11648  10.261   8.513   7.209 -0.1701  0.1278  0.0096
  763POPS   C3A11649  10.215   8.876   7.392  0.3292  0.2176  0.0813
  763POPS   C4A11650  10.212   9.295   7.414  0.0066 -0.0991  0.1259
  763POPS   C1B11651  10.724   7.665   6.765 -0.1577  0.0683 -0.0216
  763POPS   C2B11652  10.672   7.633   7.213  0.1229  0.3024  0.1013
  763POPS   C3B11653  10.521   7.544   7.720 -0.0820 -0.1425 -0.1766
  763POPS   C4B11654  10.320   7.678   7.923 -0.2939 -0.1751 -0.2951
  764POPS   CNO11655  13.344  17.823   5.073  0.0243  0.0893 -0.1556
  764POPS   PO411656  13.145  17.761   5.434  0.0446  0.1791 -0.2611
  764POPS   GL111657  13.358  17.908   5.747 -0.1852  0.0063 -0.0979
  764POPS   GL211658  13.635  18.143   5.834  0.0421 -0.1505  0.0808
  764POPS   C1A11659  13.530  17.823   6.218 -0.1212  0.1731  0.4354
  764POPS   D2A11660  13.729  17.969   6.623 -0.0656 -0.0576  0.0389
  764POPS   C3A11661  13.839  17.689   6.974 -0.1852  0.0357  0.0371
  764POPS   C4A11662  13.841  17.490   7.289  0.1594 -0.0579  0.1391
  764POPS   C1B11663  14.005  18.003   6.202 -0.0838  0.0987  0.0080
  764POPS   C2B11664  14.231  18.087   6.525  0.0676  0.3311 -0.0010
  764POPS   C3B11665  14.083  18.100   6.899  0.0552  0.2199 -0.1851
  764POPS   C4B11666  14.099  18.320   7.268 -0.0102 -0.0571  0.1232
  765POPS   CNO11667  13.442   9.101   5.616 -0.1080 -0.1004  0.3557
  765POPS   PO411668  13.696   9.093   5.886 -0.0053 -0.1507  0.0058
  765POPS   GL111669  13.716   9.259   6.279 -0.0870 -0.1341  0.0074
  765POPS   GL211670  13.756   9.643   6.254 -0.1786 -0.0439 -0.3344
  765POPS   C1A11671  13.777   9.408   6.722  0.3049 -0.1008  0.3204
  765POPS   D2A11672  13.751   9.429   7.126 -0.0767 -0.1242  0.0021
  765POPS   C3A11673  13.626   9.242   7.448 -0.3372  0.0285  0.2284
  765POPS   C4A11674  13.654   9.157   7.935 -0.1604 -0.0041  0.0196
  765POPS   C1B11675  14.040   9.902   6.500  0.1595  0.3588 -0.3665
  765POPS   C2B11676  14.096   9.784   6.911  0.0973  0.3720  0.1791
  765POPS   C3B11677  14.118   9.730   7.358 -0.2652 -0.1749  0.0566
  765POPS   C4B11678  13.902   9.706   7.754  0.1506 -0.2991  0.0805
  766POPS   CNO11679  18.105   5.043   4.993  0.0453 -0.4781 -0.0906
  766POPS   PO411680  18.408   5.138   5.272  0.0386  0.0599 -0.2083
  766POPS   GL111681  18.645   4.983   5.687 -0.2635  0.0637 -0.2461
  766POPS   GL211682  19.012   5.009   5.687  0.2347  0.2146 -0.2952
  766POPS   C1A11683  18.530   4.722   6.143  0.0263  0.3517  0.0477
  766POPS   D2A11684  18.447   4.416   6.319  0.0005 -0.2894 -0.3235
  766POPS   C3A11685  18.452   4.473   6.714  0.2003 -0.0213 -0.1971
  766POPS   C4A11686  18.511   4.259   7.074 -0.2899 -0.2273 -0.1757
  766POPS   C1B11687  19.186   4.758   6.077 -0.1273 -0.1767 -0.2736
  766POPS   C2B11688  19.330   4.731   6.512  0.1081  0.3642  0.1376
  766POPS   C3B11689  19.422   4.651   6.927  0.1834  0.4915 -0.0849
  766POPS   C4B11690  19.498   4.699   7.374 -0.1108  0.2947 -0.0517
  767POPS   CNO11691   2.456   5.411   5.829  0.1155 -0.1810 -0.1234
  767POPS   PO411692   2.357   5.706   5.583 -0.0448  0.2777 -0.0988
  767POPS   GL111693   2.193   5.907   5.882  0.2486 -0.0705  0.0702
  767POPS   GL211694   1.858   5.936   5.958 -0.1863  0.1234  0.2290
  767POPS   C1A11695   2.433   6.180   6.171  0.2649 -0.2113  0.2435
  767POPS   D2A11696   2.404   6.306   6.550  0.1252 -0.0821 -0.0572
  767POPS   C3A11697   2.714   6.197   6.840 -0.2209 -0.0080  0.1566
  767POPS   C4A11698   2.670   6.060   7.277 -0.4519  0.4173  0.1723
  767POPS   C1B11699   1.849   5.867   6.377  0.2914  0.1310 -0.1925
  767POPS   C2B11700   1.887   5.752   6.795  0.0142 -0.3101 -0.1278
  767POPS   C3B11701   1.955   5.505   7.195  0.1423  0.1590  0.0411
  767POPS   C4B11702   2.135   5.625   7.550 -0.1029  0.4483  0.3297
  768POPS   CNO11703  15.323  10.503   5.432  0.1667  0.0698  0.1418
  768POPS   PO411704  15.342  10.657   5.746 -0.0542  0.0188  0.1056
  768POPS   GL111705  15.459  10.908   6.104 -0.1437 -0.0321 -0.0985
  768POPS   GL211706  15.609  10.638   6.313 -0.0161 -0.0941  0.0558
  768POPS   C1A11707  15.386  10.990   6.528 -0.0709  0.0822  0.0384
  768POPS   D2A11708  15.655  10.883   6.871 -0.2226  0.0548 -0.2232
  768POPS   C3A11709  15.532  10.919   7.250  0.0982 -0.3742  0.1331
  768POPS   C4A11710  15.763  11.136   7.526 -0.0075  0.1439  0.1461
  768POPS   C1B11711  15.319  10.544   6.727  0.2189 -0.0918 -0.0869
  768POPS   C2B11712  15.269  10.491   7.129 -0.3024  0.0190  0.1015
  768POPS   C3B11713  15.242  10.536   7.511 -0.2859 -0.1950 -0.3065
  768POPS   C4B11714  15.305  10.527   7.918 -0.5764 -0.3671 -0.0903
  769POPS   CNO11715   1.372   9.180   5.107  0.1076 -0.1485  0.0904
  769POPS   PO411716   1.425   9.453   5.493 -0.0841  0.0991 -0.3444
  769POPS   GL111717   1.359   9.416   5.983  0.3960  0.2117  0.0183
  769POPS   GL211718   1.327   9.663   6.268  0.0004 -0.0991  0.0691
  769POPS   C1A11719   1.247   9.063   6.167 -0.0319  0.0033 -0.1158
  769POPS   D2A11720   1.190   8.921   6.589 -0.0221 -0.0530 -0.3646
  769POPS   C3A11721   1.147   8.592   6.715  0.1226  0.2263 -0.0831
  769POPS   C4A11722   1.032   8.096   6.975  0.2376 -0.0088  0.1031
  769POPS   C1B11723   1.290   9.444   6.622 -0.2757 -0.2301 -0.0758
  769POPS   C2B11724   1.155   9.351   6.950  0.0790 -0.1755 -0.1007
  769POPS   C3B11725   0.961   9.332   7.292 -0.1086  0.1069  0.0332
  769POPS   C4B11726   0.887   9.477   7.673  0.2232 -0.1042 -0.1204
  770POPS   CNO11727   0.441   2.553   5.932 -0.1579  0.0170  0.3186
  770POPS   PO411728   0.149   2.916   5.735 -0.1732  0.1363 -0.1163
  770POPS   GL111729   0.056   2.750   6.153 -0.1085  0.2817  0.0813
  770POPS   GL211730  -0.172   2.634   6.249  0.0977 -0.0833  0.2839
  770POPS   C1A11731   0.342   2.689   6.419 -0.2618 -0.0076 -0.2780
  770POPS   D2A11732   0.346   2.602   6.884  0.1074  0.3615  0.1732
  770POPS   C3A11733   0.149   2.804   7.033  0.3231  0.0426 -0.2111
  770POPS   C4A11734  -0.009   2.909   7.452  0.0556  0.1498  0.2673
  770POPS   C1B11735  -0.126   2.994   6.552 -0.1633  0.1051 -0.0081
  770POPS   C2B11736  -0.209   3.173   6.983 -0.0619 -0.1256 -0.2954
  770POPS   C3B11737  -0.264   3.453   7.421 -0.0029 -0.2267  0.0649
  770POPS   C4B11738  -0.178   3.658   7.809 -0.0208 -0.1976 -0.0309
  771POPS   CNO11739   4.876   2.608   5.728 -0.0115  0.0426 -0.3442
  771POPS   PO411740   4.981   3.033   5.567 -0.0717 -0.2782  0.2664
  771POPS   GL111741   4.727   3.127   5.983  0.1785  0.0319 -0.2662
  771POPS   GL211742   4.480   2.940   5.975  0.3912  0.1425 -0.2566
  771POPS   C1A11743   4.804   3.033   6.352 -0.0758 -0.0687  0.1197
  771POPS   D2A11744   4.982   2.857   6.724 -0.0016  0.1568 -0.1084
  771POPS   C3A11745   4.868   2.995   7.102 -0.2305  0.0477  0.1482
  771POPS   C4A11746   4.592   3.078   7.393 -0.2000  0.2399  0.4154
  771POPS   C1B11747   4.214   2.961   6.291 -0.2384  0.0206  0.1995
  771POPS   C2B11748   4.011   2.879   6.748  0.0968  0.1901  0.2979
  771POPS   C3B11749   4.019   2.633   7.118  0.1647  0.0145 -0.0652
  771POPS   C4B11750   3.883   2.410   7.478 -0.3161  0.1771  0.0418
  772POPS   CNO11751  15.425   0.703   4.863 -0.0090  0.2665  0.0813
  772POPS   PO411752  15.452   0.757   5.354  0.1872  0.1214 -0.0265
  772POPS   GL111753  15.650   0.743   5.789  0.0028 -0.0576 -0.3945
  772POPS   GL211754  15.635   1.098   5.784  0.1265 -0.2703  0.0743
  772POPS   C1A11755  15.528   0.572   6.306 -0.2504 -0.0633  0.2089
  772POPS   D2A11756  15.350   0.473   6.671  0.2898 -0.0582 -0.4423
  772POPS   C3A11757  15.447   0.468   7.119  0.1042  0.2424 -0.1386
  772POPS   C4A11758  15.223   0.294   7.454  0.0748 -0.0288  0.2060
  772POPS   C1B11759  15.524   1.091   6.255 -0.1888 -0.2575 -0.0457
  772POPS   C2B11760  15.304   0.965   6.439 -0.0775 -0.0938  0.1231
  772POPS   C3B11761  15.178   0.941   6.988 -0.0741  0.5177 -0.1173
  772POPS   C4B11762  15.110   0.926   7.466  0.1532  0.1048  0.1486
  773POPS   CNO11763   6.516   1.211   5.406 -0.1301 -0.2325  0.0548
  773POPS   PO411764   6.275   1.057   5.735 -0.0393 -0.0741  0.1485
  773POPS   GL111765   6.133   0.822   6.091  0.0884 -0.0332 -0.0302
  773POPS   GL211766   6.292   0.669   6.200  0.1531  0.0646 -0.0695
  773POPS   C1A11767   5.881   0.654   6.502  0.0211  0.1302  0.1326
  773POPS   D2A11768   5.572   0.414   6.654 -0.0277 -0.0125  0.0571
  773POPS   C3A11769   5.361   0.250   7.074  0.2057 -0.1684  0.1038
  773POPS   C4A11770   5.566   0.325   7.482  0.0215 -0.0687  0.1593
  773POPS   C1B11771   6.390   0.649   6.599 -0.1937 -0.1111 -0.3423
  773POPS   C2B11772   6.729   0.623   6.875 -0.1808 -0.1169 -0.0795
  773POPS   C3B11773   6.746   0.455   7.288 -0.6901 -0.2355 -0.0875
  773POPS   C4B11774   6.879   0.349   7.772 -0.3511  0.1228  0.1485
  774POPS   CNO11775   3.851   1.301   5.165  0.0788 -0.0553 -0.0109
  774POPS   PO411776   3.437   1.073   5.375 -0.2089 -0.0737 -0.1879
  774POPS   GL111777   3.561   1.249   5.831  0.2088 -0.0467  0.3584
  774POPS   GL211778   3.414   1.245   6.101 -0.0749 -0.0603 -0.1250
  774POPS   C1A11779   3.886   1.423   6.097  0.1086  0.1023 -0.3417
  774POPS   D2A11780   3.946   1.329   6.453 -0.0664  0.1278 -0.2941
  774POPS   C3A11781   3.596   1.253   6.668 -0.3355 -0.1347 -0.0165
  774POPS   C4A11782   3.621   1.059   7.068 -0.2217  0.2131  0.1468
  774POPS   C1B11783   3.171   1.052   6.420  0.0071  0.1173  0.1265
  774POPS   C2B11784   3.177   0.959   6.927  0.0014 -0.3332  0.0043
  774POPS   C3B11785   2.952   0.689   7.238  0.1162 -0.0929  0.1304
  774POPS   C4B11786   2.505   0.648   7.434 -0.3365 -0.0552  0.2928
  775POPS   CNO11787   6.691  15.517   5.533 -0.0242  0.0110  0.3458
  775POPS   PO411788   6.880  15.079   5.333  0.3359 -0.1668 -0.1248
  775POPS   GL111789   6.945  15.154   5.770  0.0803 -0.0740 -0.0405
  775POPS   GL211790   7.297  15.000   5.849 -0.0734 -0.2211  0.0033
  775POPS   C1A11791   6.695  15.317   6.090  0.2562  0.0831 -0.2614
  775POPS   D2A11792   6.732  15.681   6.308  0.1221  0.1343 -0.1804
  775POPS   C3A11793   6.796  15.532   6.679 -0.1486  0.1889  0.1822
  775POPS   C4A11794   6.981  15.655   7.045 -0.0224 -0.1641 -0.2360
  775POPS   C1B11795   7.615  15.044   6.195  0.0791  0.3111  0.1373
  775POPS   C2B11796   8.019  15.206   6.172  0.1707 -0.1133 -0.1204
  775POPS   C3B11797   8.108  15.595   6.094  0.0803 -0.0841  0.2256
  775POPS   C4B11798   8.340  15.946   6.151 -0.0043  0.1482 -0.3487
  776POPS   CNO11799   2.115   9.908   5.862 -0.1438 -0.1219  0.0163
  776POPS   PO411800   1.863  10.239   5.853  0.1256  0.1262  0.0148
  776POPS   GL111801   1.787  10.114   6.239 -0.1153  0.1865 -0.0258
  776POPS   GL211802   1.796   9.843   6.230 -0.2454 -0.1514 -0.0770
  776POPS   C1A11803   1.840  10.231   6.610 -0.0684  0.0844 -0.1773
  776POPS   D2A11804   1.987  10.108   7.100 -0.0255 -0.2793  0.0724
  776POPS   C3A11805   2.254   9.761   7.331 -0.0284 -0.2576 -0.0046
  776POPS   C4A11806   2.386   9.354   7.554  0.1947  0.1153 -0.0753
  776POPS   C1B11807   1.773   9.737   6.643  0.4361  0.2843 -0.2718
  776POPS   C2B11808   1.627   9.602   7.047  0.1514 -0.0564 -0.1859
  776POPS   C3B11809   1.385   9.564   7.371  0.0038 -0.3331  0.2144
  776POPS   C4B11810   1.407   9.656   7.790 -0.0099 -0.0200  0.1965
  777POPS   CNO11811   5.393  10.986   4.885 -0.3214 -0.1464  0.1661
  777POPS   PO411812   5.340  10.857   5.289  0.2490  0.2087 -0.1671
  777POPS   GL111813   5.407  10.894   5.836  0.4405  0.0007  0.1714
  777POPS   GL211814   5.172  11.034   5.997  0.1459 -0.0077  0.0121
  777POPS   C1A11815   5.546  10.918   6.304  0.2506  0.0394  0.0275
  777POPS   D2A11816   5.587  11.101   6.689  0.1471 -0.0846 -0.0059
  777POPS   C3A11817   5.676  11.036   7.060 -0.0890  0.1785 -0.4515
  777POPS   C4A11818   6.111  10.966   7.307 -0.3893  0.0466  0.0492
  777POPS   C1B11819   5.513  11.377   6.236  0.0795  0.0416  0.1113
  777POPS   C2B11820   5.760  11.551   6.603  0.2987 -0.1134  0.0019
  777POPS   C3B11821   5.893  11.597   6.998 -0.0036  0.0120 -0.0894
  777POPS   C4B11822   5.886  11.483   7.461 -0.0621 -0.1940 -0.0588
  778POPS   CNO11823  14.398  16.511   5.969  0.0153  0.1323  0.1405
  778POPS   PO411824  14.722  16.328   5.920 -0.1692 -0.0084 -0.1999
  778POPS   GL111825  15.025  16.381   6.263 -0.1613 -0.0240  0.0669
  778POPS   GL211826  15.375  16.559   6.260  0.0905  0.2684  0.1689
  778POPS   C1A11827  14.981  16.589   6.642 -0.0018 -0.3465 -0.2857
  778POPS   D2A11828  14.959  16.443   7.018 -0.1270 -0.3644 -0.1878
  778POPS   C3A11829  14.883  16.782   7.336 -0.0106  0.0121  0.1539
  778POPS   C4A11830  14.908  17.213   7.365  0.0866 -0.0809  0.0589
  778POPS   C1B11831  15.454  16.874   6.545 -0.0097  0.1821  0.1021
  778POPS   C2B11832  15.423  17.250   6.634  0.2145 -0.0094 -0.1748
  778POPS   C3B11833  15.481  17.491   7.026  0.0234  0.1637 -0.1928
  778POPS   C4B11834  15.484  17.325   7.435  0.0790 -0.0476  0.1047
  779POPS   CNO11835   2.242   4.250   5.174  0.2187  0.1121 -0.1241
  779POPS   PO411836   2.239   4.391   5.610 -0.0482 -0.0042  0.0988
  779POPS   GL111837   2.291   4.508   6.103 -0.0083 -0.2482 -0.3285
  779POPS   GL211838   1.923   4.427   6.308 -0.3511  0.1845 -0.0261
  779POPS   C1A11839   2.355   4.698   6.440  0.1240 -0.1901  0.1795
  779POPS   D2A11840   2.291   4.661   6.872 -0.0845 -0.0208 -0.0034
  779POPS   C3A11841   2.688   4.781   7.075  0.1724  0.0145 -0.3346
  779POPS   C4A11842   2.881   4.835   7.502 -0.2798 -0.0638 -0.0716
  779POPS   C1B11843   1.512   4.536   6.322 -0.0587  0.1396 -0.1687
  779POPS   C2B11844   1.329   4.796   6.630  0.0579 -0.0942 -0.0007
  779POPS   C3B11845   1.370   4.898   7.006  0.1738  0.1732  0.0662
  779POPS   C4B11846   1.511   4.797   7.433  0.0424  0.3138  0.0979
  780POPS   CNO11847  11.009  11.062   5.791  0.1037  0.0022  0.2382
  780POPS   PO411848  10.851  10.773   5.987  0.2692 -0.1485  0.2748
  780POPS   GL111849  10.827  11.000   6.292  0.2451  0.0614 -0.0829
  780POPS   GL211850  11.064  11.224   6.314 -0.2094  0.1126  0.2822
  780POPS   C1A11851  10.782  11.126   6.662  0.0711  0.0713  0.0384
  780POPS   D2A11852  10.814  11.193   7.126 -0.0650 -0.3091  0.1435
  780POPS   C3A11853  10.817  11.226   7.580  0.0265 -0.1802  0.1609
  780POPS   C4A11854  10.882  11.110   7.968 -0.3841  0.0059 -0.0505
  780POPS   C1B11855  11.251  10.932   6.522 -0.0659 -0.1079  0.3358
  780POPS   C2B11856  11.315  11.160   6.863 -0.1861  0.0467 -0.0770
  780POPS   C3B11857  11.325  11.199   7.272 -0.1196  0.2292  0.2187
  780POPS   C4B11858  11.332  10.948   7.597 -0.0700  0.0777 -0.4867
  781POPS   CNO11859   6.995   1.656   5.730 -0.0919  0.0670  0.1273
  781POPS   PO411860   6.594   1.604   5.786  0.0487 -0.4260 -0.0689
  781POPS   GL111861   6.650   1.681   6.248 -0.2120  0.0552  0.1772
  781POPS   GL211862   6.937   1.503   6.214  0.2276 -0.0666  0.1959
  781POPS   C1A11863   6.702   1.691   6.687 -0.0551 -0.2713 -0.1374
  781POPS   D2A11864   6.605   1.992   7.080  0.1021 -0.1174 -0.1144
  781POPS   C3A11865   6.847   1.948   7.473  0.2037  0.0538  0.0800
  781POPS   C4A11866   7.281   2.120   7.619 -0.1654  0.0835  0.0974
  781POPS   C1B11867   7.208   1.590   6.669  0.2838  0.0681 -0.0430
  781POPS   C2B11868   7.104   1.672   7.082  0.1345 -0.0712  0.2036
  781POPS   C3B11869   7.203   1.620   7.530  0.0394  0.2399  0.0099
  781POPS   C4B11870   7.360   1.679   7.967  0.2987  0.0965 -0.0641
  782POPS   CNO11871   3.521  12.210   5.573 -0.0333 -0.3531 -0.0741
  782POPS   PO411872   3.908  12.340   5.657  0.1744 -0.4531 -0.1463
  782POPS   GL111873   4.066  12.464   6.126  0.0337  0.3503 -0.0145
  782POPS   GL211874   3.724  12.577   6.290  0.2081  0.0124 -0.2306
  782POPS   C1A11875   4.155  12.558   6.587  0.0646 -0.2131 -0.1966
  782POPS   D2A11876   4.121  12.399   6.961  0.0732 -0.0444 -0.0605
  782POPS   C3A11877   4.345  11.932   6.875 -0.0194 -0.1068  0.0933
  782POPS   C4A11878   4.348  11.533   6.766 -0.0319  0.0770 -0.3740
  782POPS   C1B11879   3.604  12.554   6.792  0.2628  0.0022  0.2364
  782POPS   C2B11880   3.474  12.511   7.295 -0.1606 -0.4951  0.0207
  782POPS   C3B11881   3.451  12.543   7.685  0.2618  0.1309 -0.3222
  782POPS   C4B11882   3.171  12.765   7.857 -0.1442 -0.1325 -0.2121
  783POPS   CNO11883   2.296   0.238   5.500  0.1714  0.2431 -0.3043
  783POPS   PO411884   2.710   0.195   5.508  0.0769 -0.0715 -0.4174
  783POPS   GL111885   2.614   0.278   5.906  0.1694 -0.0073  0.0387
  783POPS   GL211886   2.389   0.037   5.938  0.2051  0.2744 -0.0840
  783POPS   C1A11887   2.496   0.475   6.251 -0.0507 -0.0467 -0.1452
  783POPS   D2A11888   2.221   0.795   6.406 -0.0047  0.2438 -0.0995
  783POPS   C3A11889   1.850   0.900   6.674  0.0514 -0.1108 -0.1009
  783POPS   C4A11890   1.594   1.052   7.013 -0.1796  0.2566  0.0808
  783POPS   C1B11891   2.567  -0.001   6.366  0.2362 -0.0537  0.0992
  783POPS   C2B11892   2.552   0.147   6.796 -0.2957  0.0815  0.1503
  783POPS   C3B11893   2.459   0.219   7.189  0.2324  0.0385  0.0753
  783POPS   C4B11894   2.062   0.471   7.362 -0.0433  0.1771 -0.0227
  784POPS   CNO11895   4.222   9.957   5.447  0.0064  0.1326 -0.0774
  784POPS   PO411896   4.144  10.035   5.765 -0.0628  0.1332 -0.2614
  784POPS   GL111897   4.133  10.106   6.227  0.0006 -0.0678 -0.0960
  784POPS   GL211898   4.498  10.053   6.287 -0.0662  0.1572  0.0024
  784POPS   C1A11899   4.184  10.179   6.631 -0.1188  0.0890 -0.1389
  784POPS   D2A11900   4.458   9.979   6.985 -0.1551 -0.0824 -0.1497
  784POPS   C3A11901   4.282   9.729   7.266  0.1350 -0.1597  0.1017
  784POPS   C4A11902   3.947   9.536   7.524 -0.1844  0.1124  0.2972
  784POPS   C1B11903   4.783  10.267   6.619  0.0205 -0.1444 -0.0825
  784POPS   C2B11904   4.968  10.537   6.949 -0.0347 -0.1259  0.0129
  784POPS   C3B11905   4.792  10.717   7.263  0.0898 -0.3157 -0.2708
  784POPS   C4B11906   4.515  10.899   7.517  0.0531  0.2497 -0.0694
  785POPS   CNO11907   4.450   0.119   5.852 -0.0850  0.1550 -0.1125
  785POPS   PO411908   4.157   0.331   5.607 -0.1903 -0.3513  0.2329
  785POPS   GL111909   3.928   0.345   5.989 -0.1030  0.0985  0.2179
  785POPS   GL211910   3.652   0.310   5.832 -0.1200  0.0767 -0.1614
  785POPS   C1A11911   3.983   0.221   6.424 -0.0969  0.0774  0.2572
  785POPS   D2A11912   3.973   0.400   6.822 -0.1283 -0.2134  0.2775
  785POPS   C3A11913   3.956   0.705   7.208 -0.3439 -0.0814  0.2834
  785POPS   C4A11914   3.878   0.981   7.540 -0.3749 -0.0895  0.2121
  785POPS   C1B11915   3.504   0.180   6.251  0.3579  0.1254  0.0947
  785POPS   C2B11916   3.514   0.107   6.644  0.1953 -0.1788 -0.1370
  785POPS   C3B11917   3.522  -0.038   7.085  0.1546  0.0763  0.3176
  785POPS   C4B11918   3.339  -0.052   7.471 -0.0920 -0.0389 -0.1121
  786POPS   CNO11919   9.788   7.595   5.676 -0.1348  0.0202  0.0271
  786POPS   PO411920   9.591   7.900   5.999 -0.2775 -0.2030 -0.1728
  786POPS   GL111921   9.705   7.869   6.449 -0.2071 -0.2261 -0.1358
  786POPS   GL211922   9.604   7.520   6.609 -0.0160  0.1287 -0.1363
  786POPS   C1A11923  10.011   7.818   6.738 -0.2883 -0.2546 -0.1001
  786POPS   D2A11924  10.280   7.825   6.943  0.1514  0.1691 -0.0687
  786POPS   C3A11925  10.353   7.989   7.423 -0.2239  0.3336 -0.0668
  786POPS   C4A11926  10.191   8.146   7.905 -0.0399 -0.0074 -0.1691
  786POPS   C1B11927   9.562   7.875   7.004  0.0271  0.0844  0.0054
  786POPS   C2B11928   9.366   7.775   7.495 -0.4098  0.0757  0.0224
  786POPS   C3B11929   9.130   7.606   7.591  0.0893  0.1599  0.1656
  786POPS   C4B11930   9.056   7.437   8.044 -0.0399 -0.1185  0.0916
  787POPS   CNO11931   7.486  16.110   5.251  0.0150  0.3480  0.4638
  787POPS   PO411932   7.858  15.843   5.458  0.2222 -0.3179  0.1502
  787POPS   GL111933   7.681  15.775   5.904 -0.1874  0.1656 -0.0062
  787POPS   GL211934   7.451  15.942   5.832  0.0791  0.1040 -0.0464
  787POPS   C1A11935   7.644  15.558   6.318 -0.1346 -0.0509 -0.0315
  787POPS   D2A11936   7.714  15.260   6.727 -0.1775  0.0910 -0.0086
  787POPS   C3A11937   7.557  14.846   6.640 -0.1198 -0.2969  0.1510
  787POPS   C4A11938   7.299  14.652   6.300  0.0465 -0.2308  0.1716
  787POPS   C1B11939   7.268  15.970   6.217  0.1613  0.0281  0.3900
  787POPS   C2B11940   7.339  15.818   6.657  0.0248  0.2665 -0.3147
  787POPS   C3B11941   7.484  15.492   7.142  0.1166  0.2035  0.0974
  787POPS   C4B11942   7.648  15.119   7.484 -0.1612  0.2970 -0.1077
  788POPS   CNO11943   1.266  17.749   5.760 -0.0334  0.2183 -0.0126
  788POPS   PO411944   0.934  17.387   5.686 -0.0222 -0.0483 -0.1467
  788POPS   GL111945   0.957  17.414   6.128  0.1906  0.0219  0.1658
  788POPS   GL211946   1.249  17.149   6.092  0.1536 -0.1958  0.0060
  788POPS   C1A11947   1.222  17.491   6.479 -0.2957 -0.1816 -0.0640
  788POPS   D2A11948   1.296  17.841   6.730 -0.1355  0.1844 -0.0204
  788POPS   C3A11949   1.257  17.740   7.093  0.2086 -0.2988  0.0069
  788POPS   C4A11950   1.288  17.701   7.510  0.0142 -0.1171  0.1516
  788POPS   C1B11951   1.471  17.092   6.470  0.0785 -0.0877 -0.0274
  788POPS   C2B11952   1.370  17.267   6.924  0.1760 -0.0512 -0.3349
  788POPS   C3B11953   1.467  17.286   7.408  0.1935  0.1028  0.0487
  788POPS   C4B11954   1.541  17.262   7.837  0.1729 -0.1633 -0.0305
  789POPS   CNO11955  11.899   4.732   5.226  0.1240  0.0232  0.0084
  789POPS   PO411956  11.631   4.655   5.522 -0.1109  0.1815 -0.0992
  789POPS   GL111957  11.743   4.814   5.935 -0.0232 -0.0526 -0.1522
  789POPS   GL211958  11.549   4.985   6.084  0.1005  0.0975  0.0727
  789POPS   C1A11959  12.080   4.815   6.196  0.0635 -0.1482  0.2761
  789POPS   D2A11960  12.334   4.413   6.159 -0.1758 -0.2544  0.1298
  789POPS   C3A11961  12.401   4.269   6.514  0.4001 -0.1578 -0.1116
  789POPS   C4A11962  12.247   4.241   6.892  0.1451  0.1438 -0.0590
  789POPS   C1B11963  11.632   4.927   6.435  0.2801 -0.1903  0.2432
  789POPS   C2B11964  11.621   4.840   6.830  0.0894  0.0917  0.0014
  789POPS   C3B11965  11.741   4.445   7.078  0.0475 -0.3113  0.1022
  789POPS   C4B11966  11.851   4.190   7.419 -0.1067  0.2533  0.0606
  790POPS   CNO11967  16.075  14.085   5.771 -0.0144 -0.2940 -0.1569
  790POPS   PO411968  15.747  14.309   5.742 -0.2177  0.1200  0.2045
  790POPS   GL111969  16.027  14.444   6.072  0.0518 -0.1482 -0.2291
  790POPS   GL211970  16.234  14.292   6.208 -0.3066  0.3913 -0.1577
  790POPS   C1A11971  16.233  14.655   6.521  0.1330 -0.3812 -0.1773
  790POPS   D2A11972  16.401  14.644   6.966 -0.2773  0.1192  0.0271
  790POPS   C3A11973  16.478  14.719   7.403  0.0865 -0.0697 -0.2706
  790POPS   C4A11974  16.907  14.756   7.675  0.2073 -0.0165 -0.3092
  790POPS   C1B11975  16.079  14.200   6.577  0.2232 -0.2004  0.4486
  790POPS   C2B11976  15.813  13.982   6.833 -0.3702 -0.0975  0.1312
  790POPS   C3B11977  15.904  13.839   7.153 -0.2232 -0.0165  0.1108
  790POPS   C4B11978  15.978  13.819   7.614 -0.3332  0.0920  0.3321
  791POPS   CNO11979  11.331  12.738   5.584  0.3253  0.0695  0.0633
  791POPS   PO411980  11.313  12.335   5.794 -0.0285  0.0334  0.2068
  791POPS   GL111981  11.277  12.276   6.181 -0.0050 -0.0432  0.0255
  791POPS   GL211982  10.971  12.219   6.230 -0.0144 -0.1054 -0.0369
  791POPS   C1A11983  11.403  12.532   6.491 -0.0568  0.1923  0.2918
  791POPS   D2A11984  11.593  12.730   6.736  0.1577  0.1215  0.2615
  791POPS   C3A11985  11.308  12.637   7.087  0.2312  0.0529  0.1738
  791POPS   C4A11986  11.298  12.482   7.494  0.1510  0.0643  0.0931
  791POPS   C1B11987  10.986  12.232   6.615  0.0037 -0.1346  0.2276
  791POPS   C2B11988  10.960  12.327   7.166 -0.1193 -0.0031  0.0525
  791POPS   C3B11989  10.677  12.289   7.585 -0.0971 -0.2001 -0.1738
  791POPS   C4B11990  10.801  12.314   8.032 -0.0647  0.3098  0.3391
  792POPS   CNO11991  17.798  17.076   5.996  0.0170 -0.0283  0.4321
  792POPS   PO411992  17.567  16.663   6.072 -0.1950 -0.2762  0.0537
  792POPS   GL111993  17.465  16.662   6.444 -0.0453 -0.0386 -0.0982
  792POPS   GL211994  17.205  16.427   6.383 -0.1010 -0.3225 -0.0214
  792POPS   C1A11995  17.418  16.909   6.837  0.1264 -0.1061  0.1479
  792POPS   D2A11996  17.208  17.088   7.142  0.2011  0.0193 -0.1245
  792POPS   C3A11997  17.252  17.505   7.307  0.2204 -0.0256  0.0728
  792POPS   C4A11998  17.430  17.999   7.377 -0.2591  0.1158 -0.2186
  792POPS   C1B11999  17.068  16.598   6.790  0.0265 -0.0628 -0.1118
  792POPS   C2B12000  17.109  16.632   7.136  0.2552 -0.0208  0.1623
  792POPS   C3B12001  16.914  16.929   7.502 -0.1466 -0.2623  0.2281
  792POPS   C4B12002  16.816  17.053   7.933  0.2010 -0.2669  0.1795
  793POPS   CNO12003   1.417  13.354   5.758 -0.1119  0.2445  0.1139
  793POPS   PO412004   1.013  13.532   5.799 -0.1316 -0.2326 -0.0788
  793POPS   GL112005   1.130  13.624   6.171  0.1429 -0.0446 -0.1449
  793POPS   GL212006   1.419  13.497   6.264 -0.2032 -0.3242  0.1047
  793POPS   C1A12007   0.965  13.776   6.544  0.0750  0.1127 -0.0881
  793POPS   D2A12008   0.943  13.821   6.885 -0.1249  0.1064 -0.3061
  793POPS   C3A12009   0.992  14.226   7.056 -0.2314 -0.1899  0.0495
  793POPS   C4A12010   0.963  14.481   7.416 -0.0624  0.0559 -0.0101
  793POPS   C1B12011   1.378  13.346   6.620 -0.2778 -0.2611 -0.2285
  793POPS   C2B12012   1.161  13.346   7.051  0.0107  0.0339 -0.3344
  793POPS   C3B12013   1.585  13.375   7.321 -0.0462  0.0845 -0.2117
  793POPS   C4B12014   1.643  13.585   7.719  0.1903 -0.2281  0.1477
  794POPS   CNO12015  17.263   2.726   5.331  0.2426  0.0014 -0.1864
  794POPS   PO412016  17.268   3.087   5.592  0.2559  0.1798  0.2363
  794POPS   GL112017  17.128   3.228   5.955  0.3671 -0.1693 -0.0400
  794POPS   GL212018  17.324   3.474   5.987  0.0582 -0.0736 -0.2606
  794POPS   C1A12019  16.937   2.996   6.272 -0.1667  0.0229 -0.3173
  794POPS   D2A12020  16.841   2.728   6.608  0.1076 -0.0255 -0.1523
  794POPS   C3A12021  17.264   2.884   6.812 -0.0304 -0.1994 -0.2535
  794POPS   C4A12022  17.690   2.974   6.858 -0.0963  0.1671  0.1043
  794POPS   C1B12023  17.356   3.327   6.475  0.1166 -0.0116 -0.0691
  794POPS   C2B12024  17.390   3.356   6.962 -0.2197 -0.3004 -0.3251
  794POPS   C3B12025  17.414   3.112   7.358  0.1524  0.0406 -0.2588
  794POPS   C4B12026  17.299   3.302   7.686  0.0999 -0.0469 -0.2054
  795POPS   CNO12027  11.296  17.696   5.270 -0.4524  0.1249  0.2234
  795POPS   PO412028  10.984  17.798   5.474  0.0983  0.2406  0.1180
  795POPS   GL112029  11.046  17.975   5.927 -0.1547 -0.1259 -0.1118
  795POPS   GL212030  10.905  17.814   6.116  0.0089  0.1071 -0.1819
  795POPS   C1A12031  11.145  18.208   6.324 -0.1340  0.3019 -0.0357
  795POPS   D2A12032  11.250  18.490   6.652 -0.1946  0.0925  0.0927
  795POPS   C3A12033  11.296  18.409   7.038 -0.0501 -0.1839 -0.0867
  795POPS   C4A12034  11.461  18.355   7.457 -0.0987 -0.0893 -0.2403
  795POPS   C1B12035  10.946  17.780   6.550 -0.0993 -0.0550  0.0467
  795POPS   C2B12036  11.027  17.837   6.988  0.2961  0.1533 -0.1610
  795POPS   C3B12037  11.139  17.987   7.435 -0.1272 -0.1450 -0.0235
  795POPS   C4B12038  11.133  18.168   7.851  0.3379  0.1944 -0.0768
  796POPS   CNO12039   5.534  17.895   5.924  0.2608 -0.1571  0.2551
  796POPS   PO412040   4.981  17.782   5.687 -0.0918  0.1321 -0.2562
  796POPS   GL112041   5.095  17.798   6.168  0.0072 -0.0211 -0.1190
  796POPS   GL212042   5.268  18.130   6.263 -0.0678 -0.0411  0.0135
  796POPS   C1A12043   5.334  17.577   6.452 -0.1990  0.2027 -0.0032
  796POPS   D2A12044   5.377  17.465   6.844 -0.0855 -0.1964 -0.0173
  796POPS   C3A12045   5.182  17.606   7.123  0.0091 -0.1593  0.0196
  796POPS   C4A12046   5.082  17.430   7.437  0.1754  0.3061 -0.0231
  796POPS   C1B12047   5.245  17.995   6.717 -0.0320  0.1722 -0.0486
  796POPS   C2B12048   5.268  18.080   7.039 -0.4524  0.0311  0.0134
  796POPS   C3B12049   5.357  17.989   7.395  0.1935 -0.2197 -0.0129
  796POPS   C4B12050   5.422  17.860   7.800  0.2290 -0.2076  0.2469
  797POPS   CNO12051  17.807  18.037   5.889 -0.1543  0.0025  0.3069
  797POPS   PO412052  17.757  17.550   5.802  0.3950 -0.3724  0.0694
  797POPS   GL112053  17.733  17.680   6.258  0.1455  0.1854 -0.1302
  797POPS   GL212054  17.591  18.009   6.419  0.1225  0.1795  0.2504
  797POPS   C1A12055  17.947  17.752   6.675 -0.2537 -0.0325  0.1673
  797POPS   D2A12056  18.040  17.747   7.117 -0.0487 -0.0572  0.2444
  797POPS   C3A12057  17.938  17.699   7.502  0.0084  0.1037 -0.0855
  797POPS   C4A12058  17.963  17.383   7.988 -0.1383  0.1735  0.1272
  797POPS   C1B12059  17.611  18.166   6.897 -0.1599  0.0402  0.0616
  797POPS   C2B12060  17.140  18.258   7.112  0.1626 -0.1305 -0.2254
  797POPS   C3B12061  16.883  18.231   7.506 -0.0771 -0.2167 -0.2100
  797POPS   C4B12062  16.649  18.397   7.900 -0.0213 -0.2321 -0.0068
  798POPS   CNO12063   2.820  14.199   5.374 -0.0984 -0.0536  0.1269
  798POPS   PO412064   3.048  14.226   5.680  0.1192 -0.1176  0.2619
  798POPS   GL112065   3.323  14.254   6.043  0.0318 -0.1756 -0.0422
  798POPS   GL212066   3.668  14.312   5.931  0.1120  0.0388 -0.0306
  798POPS   C1A12067   3.363  14.081   6.501  0.0340  0.0682  0.2773
  798POPS   D2A12068   3.408  13.629   6.444  0.0262  0.0713 -0.0539
  798POPS   C3A12069   3.072  13.383   6.554 -0.0942  0.0972  0.2575
  798POPS   C4A12070   2.967  12.938   6.490  0.0942  0.2135  0.2276
  798POPS   C1B12071   3.933  14.498   6.284 -0.1047 -0.3079  0.2209
  798POPS   C2B12072   3.834  14.443   6.687  0.1271 -0.0752 -0.2137
  798POPS   C3B12073   4.035  14.277   7.047 -0.1624 -0.0081  0.2165
  798POPS   C4B12074   4.283  14.091   7.480 -0.0165 -0.0016  0.0824
  799POPS   CNO12075  18.286   3.197   5.541 -0.1271 -0.1763 -0.1194
  799POPS   PO412076  17.914   3.311   5.644  0.0736  0.1789  0.1429
  799POPS   GL112077  17.685   3.063   5.969 -0.0700 -0.1785 -0.4648
  799POPS   GL212078  17.849   2.925   6.264 -0.2419 -0.0464 -0.1445
  799POPS   C1A12079  17.416   2.693   6.313  0.0141 -0.1113  0.0274
  799POPS   D2A12080  17.107   2.373   6.460  0.0845 -0.0569 -0.0635
  799POPS   C3A12081  17.074   2.334   6.863 -0.0189  0.4867 -0.3626
  799POPS   C4A12082  17.095   2.361   7.355  0.1441  0.1444  0.2267
  799POPS   C1B12083  17.910   3.311   6.556  0.2436  0.1651 -0.3762
  799POPS   C2B12084  17.895   3.529   6.990 -0.1612 -0.6083 -0.0245
  799POPS   C3B12085  17.679   3.581   7.289  0.0024  0.0368  0.2210
  799POPS   C4B12086  17.771   3.482   7.688 -0.1112 -0.0246 -0.0378
  800POPS   CNO12087   7.002  15.892   5.652 -0.4057 -0.0508  0.0349
  800POPS   PO412088   7.249  16.350   5.594  0.3179  0.0139 -0.2379
  800POPS   GL112089   7.232  16.384   5.986  0.2084 -0.0620  0.0594
  800POPS   GL212090   6.981  16.598   6.087 -0.0093 -0.3552 -0.1436
  800POPS   C1A12091   7.379  16.616   6.373  0.0200 -0.3644 -0.0222
  800POPS   D2A12092   7.489  16.369   6.801 -0.3417  0.0783  0.0712
  800POPS   C3A12093   7.760  16.393   7.214 -0.1677  0.1837 -0.0024
  800POPS   C4A12094   8.081  16.660   7.440 -0.2827 -0.1752  0.0100
  800POPS   C1B12095   6.843  16.695   6.563 -0.0386 -0.1180  0.0660
  800POPS   C2B12096   7.039  16.638   6.939 -0.0671  0.0280 -0.1844
  800POPS   C3B12097   7.228  16.475   7.261 -0.0669 -0.1949 -0.3476
  800POPS   C4B12098   7.337  15.996   7.229  0.4213 -0.0286 -0.0520
  801POPS   CNO12099   2.542  16.340   5.250 -0.0746  0.1695  0.1799
  801POPS   PO412100   2.553  16.490   5.743  0.1977  0.0778 -0.1342
  801POPS   GL112101   2.410  16.552   6.142  0.1616  0.1801 -0.1766
  801POPS   GL212102   2.396  16.228   6.146  0.0711  0.3032 -0.2042
  801POPS   C1A12103   2.454  16.657   6.570  0.0781  0.1501 -0.1126
  801POPS   D2A12104   2.386  16.328   6.926  0.1582 -0.1038 -0.0521
  801POPS   C3A12105   2.386  16.350   7.374  0.1236 -0.0140 -0.0063
  801POPS   C4A12106   2.320  16.486   7.834 -0.0351 -0.1156 -0.0779
  801POPS   C1B12107   2.254  15.983   6.563 -0.2239  0.2157  0.0279
  801POPS   C2B12108   2.386  15.705   6.891 -0.0675  0.1419  0.1442
  801POPS   C3B12109   2.538  15.729   7.305  0.0848  0.1482 -0.3983
  801POPS   C4B12110   2.735  16.049   7.510 -0.0067 -0.1228 -0.0617
  802POPS   CNO12111  10.348  10.599   5.932 -0.1137  0.2831 -0.2943
  802POPS   PO412112  10.023  10.681   6.170  0.0526  0.1585  0.0317
  802POPS   GL112113  10.007  10.799   6.591 -0.1333  0.0160  0.2865
  802POPS   GL212114  10.021  10.618   6.671  0.3124 -0.0611  0.2629
  802POPS   C1A12115   9.867  10.935   7.072 -0.1454  0.2539  0.2641
  802POPS   D2A12116   9.855  11.020   7.463  0.1203 -0.1701  0.0652
  802POPS   C3A12117   9.854  11.196   7.869 -0.1755 -0.2291  0.2821
  802POPS   C4A12118  10.165  11.004   8.145 -0.2352 -0.0574 -0.1280
  802POPS   C1B12119   9.934  10.445   7.117 -0.1988 -0.2424  0.0524
  802POPS   C2B12120   9.887  10.544   7.456 -0.0477  0.0886 -0.0069
  802POPS   C3B12121   9.891  10.634   7.868 -0.0460  0.2325 -0.2425
  802POPS   C4B12122   9.485  10.723   8.175  0.0547  0.1116 -0.0937
  803POPS   CNO12123   5.963  18.251   6.054 -0.0300  0.1449 -0.1314
  803POPS   PO412124   6.147  17.946   6.037  0.0557 -0.0437 -0.0520
  803POPS   GL112125   6.171  18.021   6.478 -0.2968  0.2951  0.1972
  803POPS   GL212126   6.300  17.656   6.553 -0.0328  0.1918  0.4905
  803POPS   C1A12127   6.140  18.260   6.887 -0.2953  0.1528  0.0465
  803POPS   D2A12128   6.155  18.242   7.351 -0.1709  0.1487 -0.1891
  803POPS   C3A12129   6.000  18.542   7.590  0.3180  0.0663  0.0757
  803POPS   C4A12130   5.933  18.959   7.786 -0.1081  0.2693  0.1174
  803POPS   C1B12131   6.470  17.849   6.945  0.0131 -0.0894 -0.0347
  803POPS   C2B12132   6.640  18.143   7.184  0.0640 -0.1096 -0.0772
  803POPS   C3B12133   6.645  18.077   7.705 -0.2477  0.3900 -0.0584
  803POPS   C4B12134   6.858  18.362   7.956  0.0516  0.0894 -0.0037
  804POPS   CNO12135   3.780   9.162   5.811  0.1921 -0.0333  0.0009
  804POPS   PO412136   3.398   9.406   5.532 -0.1310  0.1275  0.1859
  804POPS   GL112137   3.431   9.517   6.059  0.2205  0.1899  0.1500
  804POPS   GL212138   3.790   9.631   6.101  0.2106 -0.0264  0.0297
  804POPS   C1A12139   3.322   9.577   6.463  0.1081 -0.4023 -0.1559
  804POPS   D2A12140   3.511   9.435   6.817 -0.0713 -0.2779 -0.1357
  804POPS   C3A12141   3.526   9.660   7.213 -0.4512  0.2292 -0.1368
  804POPS   C4A12142   3.475   9.461   7.665 -0.0328 -0.0341  0.4247
  804POPS   C1B12143   3.730   9.242   6.321  0.0541  0.0161  0.2694
  804POPS   C2B12144   3.695   8.865   6.580  0.1344  0.1393 -0.0070
  804POPS   C3B12145   3.531   8.757   6.915 -0.0498 -0.1184 -0.1154
  804POPS   C4B12146   3.581   8.641   7.371  0.0720 -0.0670  0.1037
  805POPS   CNO12147   5.933   5.940   5.558 -0.1286 -0.0863 -0.0316
  805POPS   PO412148   5.576   5.642   5.597  0.1523 -0.1095  0.1446
  805POPS   GL112149   5.647   5.904   6.054  0.2034  0.2085 -0.0654
  805POPS   GL212150   5.944   5.948   6.023 -0.0081 -0.0202  0.1066
  805POPS   C1A12151   5.394   5.764   6.397 -0.2406  0.0300  0.0786
  805POPS   D2A12152   5.486   5.835   6.695 -0.0551 -0.0341 -0.1417
  805POPS   C3A12153   5.112   5.949   6.915  0.3119  0.3154  0.0341
  805POPS   C4A12154   4.884   6.325   7.051  0.1237 -0.1604 -0.0618
  805POPS   C1B12155   5.989   6.007   6.491 -0.0891  0.1823 -0.3289
  805POPS   C2B12156   5.892   5.938   6.936  0.0299  0.2595 -0.2703
  805POPS   C3B12157   5.572   5.925   7.217 -0.3699  0.1701  0.1660
  805POPS   C4B12158   5.210   6.119   7.380 -0.2542  0.1720 -0.0577
  806POPS   CNO12159  13.864  16.567   5.703  0.1759 -0.1629 -0.3022
  806POPS   PO412160  13.616  16.233   5.695 -0.3842  0.0569  0.0866
  806POPS   GL112161  13.543  16.262   6.067 -0.1160  0.1709  0.0370
  806POPS   GL212162  13.442  15.971   6.233  0.1961 -0.1121  0.0586
  806POPS   C1A12163  13.160  16.417   6.336 -0.2061 -0.4728  0.2816
  806POPS   D2A12164  12.913  16.179   6.610 -0.2139  0.2524  0.1084
  806POPS   C3A12165  12.943  16.274   7.034 -0.0494 -0.0043 -0.0318
  806POPS   C4A12166  13.081  16.201   7.466 -0.3543  0.0323 -0.1839
  806POPS   C1B12167  13.577  16.132   6.567 -0.0878 -0.1874  0.2660
  806POPS   C2B12168  13.439  16.338   6.814 -0.1560  0.0380 -0.1531
  806POPS   C3B12169  13.458  16.295   7.225 -0.1986 -0.0350  0.1685
  806POPS   C4B12170  13.537  16.512   7.636  0.1569  0.0042 -0.2324
  807POPS   CNO12171   8.049   6.301   5.537  0.0115 -0.2639  0.3443
  807POPS   PO412172   8.019   6.131   5.857  0.1460 -0.2514  0.0235
  807POPS   GL112173   7.900   6.059   6.259  0.1290 -0.2382 -0.0987
  807POPS   GL212174   7.934   6.357   6.502 -0.2203  0.2013  0.0242
  807POPS   C1A12175   7.543   6.112   6.566  0.0794  0.1638 -0.0549
  807POPS   D2A12176   7.217   5.980   6.795 -0.4344 -0.2436 -0.2264
  807POPS   C3A12177   7.404   5.951   7.210  0.1609 -0.1258 -0.0560
  807POPS   C4A12178   7.683   5.885   7.537 -0.1768  0.0321  0.0785
  807POPS   C1B12179   7.894   6.271   6.860 -0.0568 -0.1126  0.1245
  807POPS   C2B12180   7.819   6.216   7.198  0.0005  0.0982 -0.0878
  807POPS   C3B12181   7.652   6.428   7.590 -0.3281 -0.0588 -0.3747
  807POPS   C4B12182   7.474   6.156   7.910  0.0099 -0.0341 -0.0061
  808POPS   CNO12183  10.680   7.027   5.743 -0.0903 -0.1005  0.0492
  808POPS   PO412184  10.820   7.408   5.598 -0.0545  0.2544 -0.0797
  808POPS   GL112185  11.064   7.377   5.962  0.1387  0.2049 -0.1967
  808POPS   GL212186  10.976   7.605   6.233  0.0404  0.2476 -0.2054
  808POPS   C1A12187  11.311   7.075   6.185  0.5201  0.1755 -0.0060
  808POPS   D2A12188  11.616   6.749   6.209  0.2072 -0.1145  0.0905
  808POPS   C3A12189  11.585   6.559   6.607 -0.1699 -0.0878  0.2326
  808POPS   C4A12190  11.267   6.474   6.896 -0.0383  0.1095 -0.1395
  808POPS   C1B12191  11.157   7.892   6.632 -0.2485  0.1629  0.2813
  808POPS   C2B12192  11.131   7.993   7.047 -0.0230 -0.3698  0.0121
  808POPS   C3B12193  11.204   7.813   7.465  0.0850 -0.1299  0.1549
  808POPS   C4B12194  11.384   7.601   7.846  0.4268  0.0722 -0.2671
  809POPS   CNO12195   9.824   0.629   5.257  0.1746 -0.1859 -0.2334
  809POPS   PO412196   9.686   0.474   5.673  0.1189 -0.0837 -0.1470
  809POPS   GL112197   9.638   0.436   6.060  0.2250 -0.0296 -0.0688
  809POPS   GL212198   9.806   0.698   6.062 -0.1180  0.0465  0.3818
  809POPS   C1A12199   9.775   0.122   6.327 -0.1201  0.0262 -0.0485
  809POPS   D2A12200   9.582  -0.250   6.444  0.0597 -0.0160 -0.1053
  809POPS   C3A12201   9.491  -0.575   6.818 -0.1018  0.1741 -0.0997
  809POPS   C4A12202   9.495  -0.741   7.161 -0.1738  0.4681 -0.0456
  809POPS   C1B12203  10.039   0.858   6.365  0.1748 -0.0146  0.0993
  809POPS   C2B12204  10.391   0.793   6.678 -0.0264  0.1426  0.1854
  809POPS   C3B12205  10.447   1.120   7.088  0.0698 -0.1400 -0.1810
  809POPS   C4B12206  10.448   1.397   7.504  0.0783 -0.0316 -0.0136
  810POPS   CNO12207   4.765  15.982   5.441  0.0085  0.3774 -0.1205
  810POPS   PO412208   4.755  16.375   5.594 -0.1219 -0.0491  0.2394
  810POPS   GL112209   4.641  16.330   5.951  0.0979 -0.5414 -0.0983
  810POPS   GL212210   4.578  15.989   5.912  0.0281  0.3297  0.0402
  810POPS   C1A12211   4.773  16.547   6.392  0.1444 -0.0239  0.2590
  810POPS   D2A12212   5.112  16.651   6.686 -0.1154 -0.0551  0.3565
  810POPS   C3A12213   5.083  16.868   6.998 -0.4229  0.2237 -0.2079
  810POPS   C4A12214   4.739  16.935   7.324  0.1672 -0.1422  0.0641
  810POPS   C1B12215   4.619  16.069   6.374  0.0872 -0.1254  0.0251
  810POPS   C2B12216   4.729  16.253   6.849 -0.0414  0.2182  0.1390
  810POPS   C3B12217   4.651  16.493   7.229 -0.2232 -0.1083  0.3141
  810POPS   C4B12218   4.917  16.555   7.703  0.2142 -0.0950 -0.2983
  811YOPS   CNO12219   7.817   1.401   5.913 -0.0893 -0.0011 -0.1969
  811YOPS   PO412220   7.419   1.440   5.958 -0.2089  0.0917  0.0711
  811YOPS   GL112221   7.574   1.676   6.334 -0.0959  0.2531 -0.0334
  811YOPS   GL212222   7.741   1.954   6.313 -0.0847  0.0904  0.0336
  811YOPS   C1A12223   7.721   1.472   6.713 -0.0866  0.2753  0.0005
  811YOPS   D2A12224   7.573   1.358   7.073  0.3396  0.0006  0.1860
  811YOPS   C3A12225   7.742   1.304   7.386 -0.2598 -0.1616  0.1452
  811YOPS   C4A12226   7.760   1.529   7.773  0.1217 -0.0241  0.0412
  811YOPS   C1B12227   7.682   2.006   6.738 -0.2169 -0.0789  0.3022
  811YOPS   C2B12228   8.048   2.135   7.068 -0.0377  0.1070  0.1487
  811YOPS   D3B12229   8.337   2.513   6.856 -0.1901 -0.0504  0.0464
  811YOPS   C4B12230   8.454   2.838   7.099 -0.1515 -0.2284  0.1490
  812YOPS   CNO12231  16.914   9.314   6.221 -0.1566 -0.0395 -0.0616
  812YOPS   PO412232  17.223   9.489   5.929 -0.0949  0.0297  0.0197
  812YOPS   GL112233  17.239   9.763   6.250 -0.0013  0.0270  0.0074
  812YOPS   GL212234  17.195  10.123   6.245 -0.1089  0.3294 -0.0678
  812YOPS   C1A12235  17.062   9.612   6.707 -0.2623 -0.0088  0.2785
  812YOPS   D2A12236  17.118   9.636   7.150 -0.2775 -0.2210  0.0128
  812YOPS   C3A12237  17.043   9.531   7.678  0.0004  0.0977 -0.2667
  812YOPS   C4A12238  16.853   9.162   7.744 -0.0408  0.1003 -0.3255
  812YOPS   C1B12239  17.338  10.222   6.702  0.3358  0.1381  0.0229
  812YOPS   C2B12240  17.222  10.133   7.078  0.0251  0.5300  0.0483
  812YOPS   D3B12241  17.314  10.045   7.504  0.4867 -0.4154  0.0944
  812YOPS   C4B12242  16.990   9.988   7.751  0.2180 -0.0184  0.0267
  813YOPS   CNO12243   2.746   1.094   5.335  0.1087  0.3319 -0.2265
  813YOPS   PO412244   2.519   1.240   5.686  0.0219  0.1428  0.0975
  813YOPS   GL112245   2.302   1.500   6.117  0.0741 -0.0959  0.2103
  813YOPS   GL212246   2.146   1.461   6.304 -0.0260 -0.0280 -0.0937
  813YOPS   C1A12247   2.505   1.745   6.435  0.2299 -0.1136  0.3002
  813YOPS   D2A12248   2.644   1.477   6.781 -0.5269  0.1739 -0.1336
  813YOPS   C3A12249   2.740   1.174   7.072 -0.0648  0.1294 -0.0237
  813YOPS   C4A12250   2.850   1.165   7.506 -0.2451  0.2197 -0.0591
  813YOPS   C1B12251   2.261   1.234   6.666 -0.3260  0.0195 -0.1864
  813YOPS   C2B12252   2.155   1.101   7.142  0.2335  0.3168  0.2746
  813YOPS   D3B12253   2.321   1.095   7.468  0.0036 -0.5893 -0.0957
  813YOPS   C4B12254   2.484   1.454   7.379  0.1464  0.1671 -0.1350
  814YOPS   CNO12255   9.291   5.698   5.994 -0.0160 -0.0923 -0.2515
  814YOPS   PO412256   9.655   5.799   5.991  0.0270  0.2529  0.4018
  814YOPS   GL112257   9.817   5.939   6.304  0.1340  0.0971  0.1983
  814YOPS   GL212258  10.156   5.981   6.443 -0.1069  0.1872 -0.0083
  814YOPS   C1A12259   9.696   5.950   6.625  0.0451 -0.3187 -0.0599
  814YOPS   D2A12260   9.683   5.949   7.102  0.1962 -0.1589  0.0132
  814YOPS   C3A12261   9.903   5.797   7.508 -0.0230  0.0741  0.4465
  814YOPS   C4A12262  10.267   5.870   7.637 -0.1199  0.3268  0.0365
  814YOPS   C1B12263  10.142   5.942   6.764 -0.0809  0.1680 -0.0453
  814YOPS   C2B12264  10.239   5.886   7.124 -0.1286 -0.1976  0.1093
  814YOPS   D3B12265  10.435   6.205   7.318  0.1890  0.1765  0.0267
  814YOPS   C4B12266  10.739   6.218   7.581  0.0001 -0.0996  0.1981
  815YOPS   CNO12267   7.488   9.528   5.744  0.0885 -0.0631  0.1013
  815YOPS   PO412268   7.201   9.410   5.965 -0.0908  0.1551  0.1034
  815YOPS   GL112269   7.104   9.276   6.308 -0.0492  0.2001  0.1799
  815YOPS   GL212270   6.918   8.970   6.376 -0.2994 -0.0696 -0.2306
  815YOPS   C1A12271   7.050   9.174   6.777 -0.0337 -0.2062 -0.0669
  815YOPS   D2A12272   7.178   9.168   7.209 -0.0805 -0.0222 -0.0293
  815YOPS   C3A12273   7.313   8.900   7.482  0.1432 -0.0629 -0.0899
  815YOPS   C4A12274   7.035   8.704   7.686  0.0782  0.1322  0.0681
  815YOPS   C1B12275   6.796   8.758   6.717 -0.2142  0.2181  0.2878
  815YOPS   C2B12276   6.626   8.957   7.017 -0.0519 -0.0902 -0.1439
  815YOPS   D3B12277   6.766   9.137   7.499  0.0569 -0.0893  0.1695
  815YOPS   C4B12278   6.710   9.542   7.588 -0.1932 -0.0089  0.0227
  816YOPS   CNO12279  15.815  10.783   5.520  0.3241  0.0373 -0.1151
  816YOPS   PO412280  15.731  11.104   5.747 -0.3278  0.0009 -0.1883
  816YOPS   GL112281  15.937  10.977   6.086  0.0464  0.0583  0.1039
  816YOPS   GL212282  16.013  10.602   5.983 -0.0709 -0.0809  0.1553
  816YOPS   C1A12283  15.964  11.102   6.527 -0.1552 -0.0253  0.2517
  816YOPS   D2A12284  16.195  11.318   6.924  0.1281 -0.2442  0.0114
  816YOPS   C3A12285  16.194  11.335   7.371  0.2704  0.0295 -0.2241
  816YOPS   C4A12286  16.346  11.584   7.578  0.3187 -0.1101 -0.1092
  816YOPS   C1B12287  16.145  10.613   6.379  0.0220  0.2224 -0.2296
  816YOPS   C2B12288  16.168  10.675   6.839 -0.0128  0.0348 -0.2236
  816YOPS   D3B12289  16.083  10.831   7.227  0.0652 -0.1015 -0.0196
  816YOPS   C4B12290  16.276  10.488   7.401  0.0153  0.0638  0.0382
  817YOPS   CNO12291   2.853  15.122   5.674 -0.1265 -0.1990  0.3303
  817YOPS   PO412292   2.734  15.532   5.783  0.3708  0.1887 -0.0970
  817YOPS   GL112293   2.743  15.461   6.239  0.1140  0.0299 -0.0936
  817YOPS   GL212294   2.696  15.737   6.421  0.0007  0.0150  0.0660
  817YOPS   C1A12295   2.690  15.234   6.612 -0.1769 -0.1155 -0.1035
  817YOPS   D2A12296   2.695  15.243   7.072  0.0765 -0.3301  0.3299
  817YOPS   C3A12297   2.692  15.152   7.611 -0.0560 -0.4012 -0.1335
  817YOPS   C4A12298   2.413  15.142   7.880 -0.0071 -0.1291  0.0737
  817YOPS   C1B12299   2.900  15.777   6.796  0.2595 -0.2873 -0.0558
  817YOPS   C2B12300   3.038  15.665   7.112  0.0378 -0.2603 -0.0528
  817YOPS   D3B12301   2.958  15.572   7.535  0.0520 -0.0784 -0.2159
  817YOPS   C4B12302   3.083  15.368   7.933  0.0654 -0.3319  0.2174
  818YOPS   CNO12303  12.385   9.866   5.998  0.0214  0.1960 -0.3803
  818YOPS   PO412304  11.907   9.942   6.010  0.1585 -0.1813 -0.1426
  818YOPS   GL112305  12.066   9.868   6.393 -0.2572  0.0284 -0.0777
  818YOPS   GL212306  12.335   9.953   6.509  0.0254 -0.1032  0.3045
  818YOPS   C1A12307  11.968   9.639   6.798  0.1238  0.3057 -0.0674
  818YOPS   D2A12308  12.034   9.190   6.923 -0.0365  0.0729  0.2210
  818YOPS   C3A12309  12.349   8.868   7.145  0.0159 -0.0024 -0.0155
  818YOPS   C4A12310  12.562   8.533   6.931 -0.2225 -0.0762 -0.2875
  818YOPS   C1B12311  12.274   9.957   7.013  0.3225  0.0024 -0.0068
  818YOPS   C2B12312  12.394   9.994   7.437 -0.0348  0.0571  0.2312
  818YOPS   D3B12313  12.278   9.725   7.744 -0.0505  0.0709 -0.0388
  818YOPS   C4B12314  12.553   9.879   7.999  0.1673  0.0282 -0.3731
  819YOPS   CNO12315  12.310  17.617   5.582 -0.0645  0.1159 -0.0085
  819YOPS   PO412316  12.634  17.775   5.298 -0.0159 -0.1638  0.2569
  819YOPS   GL112317  12.615  18.186   5.532  0.1723 -0.1631 -0.2496
  819YOPS   GL212318  12.860  18.037   5.756 -0.0842  0.1936 -0.2274
  819YOPS   C1A12319  12.615  18.399   5.892 -0.2202  0.1444  0.1654
  819YOPS   D2A12320  12.741  18.524   6.280 -0.1183  0.2261  0.0921
  819YOPS   C3A12321  12.890  18.784   6.578 -0.1189 -0.1865 -0.0162
  819YOPS   C4A12322  13.026  18.563   6.899  0.2157  0.2030 -0.0180
  819YOPS   C1B12323  12.953  17.821   6.119  0.4226 -0.2003 -0.2188
  819YOPS   C2B12324  13.162  17.763   6.501 -0.2126  0.1367  0.1068
  819YOPS   D3B12325  13.470  17.554   6.745 -0.0751  0.1261 -0.0072
  819YOPS   C4B12326  13.360  17.735   7.193 -0.2401  0.0065 -0.1153
  820YOPS   CNO12327  10.892   3.332   5.092 -0.1886 -0.0389 -0.3405
  820YOPS   PO412328  11.442   3.297   5.078 -0.1135  0.0930 -0.0426
  820YOPS   GL112329  11.465   3.258   5.486  0.2064  0.0965 -0.1462
  820YOPS   GL212330  11.434   3.490   5.743 -0.1734 -0.0169  0.3041
  820YOPS   C1A12331  11.807   3.205   5.823 -0.1862  0.1273  0.1425
  820YOPS   D2A12332  12.044   3.261   6.261 -0.1707  0.1783  0.0391
  820YOPS   C3A12333  12.111   3.389   6.654  0.0175 -0.0846 -0.0091
  820YOPS   C4A12334  12.436   3.735   6.629  0.3056 -0.1534 -0.2531
  820YOPS   C1B12335  11.247   3.406   6.181 -0.1235 -0.1035 -0.3881
  820YOPS   C2B12336  11.181   3.216   6.496 -0.1102 -0.0741 -0.1959
  820YOPS   D3B12337  11.148   3.275   6.969 -0.2264  0.4860  0.1285
  820YOPS   C4B12338  10.941   3.080   7.252  0.1362  0.0539 -0.0974
  821YOPS   CNO12339  13.910   1.285   5.363  0.0198  0.3348  0.2008
  821YOPS   PO412340  14.315   1.387   5.513  0.2094  0.1401 -0.2605
  821YOPS   GL112341  14.144   1.364   5.933  0.1892 -0.0711  0.0709
  821YOPS   GL212342  14.205   1.686   6.125 -0.0887  0.0341 -0.1589
  821YOPS   C1A12343  13.931   1.307   6.287 -0.1624 -0.6399  0.0827
  821YOPS   D2A12344  13.737   1.293   6.691 -0.0832 -0.0993 -0.1651
  821YOPS   C3A12345  13.880   1.179   7.181  0.0621 -0.3906 -0.0411
  821YOPS   C4A12346  13.637   1.210   7.555  0.0303  0.1543 -0.0742
  821YOPS   C1B12347  14.279   1.741   6.548 -0.0395 -0.1017  0.0779
  821YOPS   C2B12348  14.568   2.065   6.767  0.0931 -0.0973  0.0843
  821YOPS   D3B12349  14.723   2.220   7.148  0.3260 -0.0049  0.2638
  821YOPS   C4B12350  14.543   2.352   7.458 -0.3532  0.0634  0.0061
  822YOPS   CNO12351   8.776   7.299   6.299  0.1893  0.0290 -0.1024
  822YOPS   PO412352   8.767   7.700   6.047 -0.0389 -0.0782  0.1956
  822YOPS   GL112353   8.650   7.734   6.515  0.2510 -0.1606  0.0256
  822YOPS   GL212354   8.287   7.961   6.493  0.1701 -0.0202 -0.0935
  822YOPS   C1A12355   8.475   7.733   6.915  0.0357 -0.1814  0.0737
  822YOPS   D2A12356   8.291   7.336   7.200 -0.0083 -0.0647  0.2683
  822YOPS   C3A12357   8.097   7.312   7.541  0.1963  0.1492 -0.0061
  822YOPS   C4A12358   8.313   7.482   7.830  0.1719  0.0459 -0.0005
  822YOPS   C1B12359   8.645   8.254   6.645 -0.1642 -0.1401 -0.0398
  822YOPS   C2B12360   8.687   8.448   6.975 -0.1155 -0.2061  0.3482
  822YOPS   D3B12361   8.893   8.443   7.379  0.2260 -0.1115  0.0898
  822YOPS   C4B12362   8.886   8.301   7.790  0.1373 -0.1422  0.0398
  823YOPS   CNO12363  12.337  10.880   6.057  0.0187 -0.0163 -0.0264
  823YOPS   PO412364  12.710  10.742   6.284 -0.0912 -0.3562 -0.0945
  823YOPS   GL112365  12.534  10.424   6.651  0.0203 -0.0922 -0.0203
  823YOPS   GL212366  12.270  10.473   6.434 -0.2048 -0.2771  0.0377
  823YOPS   C1A12367  12.459  10.406   7.077 -0.2265 -0.2096  0.0372
  823YOPS   D2A12368  12.419  10.618   7.523  0.0706  0.2880 -0.0586
  823YOPS   C3A12369  12.363  10.672   7.926  0.0624  0.0049  0.1651
  823YOPS   C4A12370  12.275  10.396   8.358  0.4103 -0.2539  0.2914
  823YOPS   C1B12371  12.007  10.275   6.736  0.0261 -0.2114  0.0427
  823YOPS   C2B12372  11.948  10.288   7.187  0.3405  0.1917  0.2389
  823YOPS   D3B12373  11.849  10.107   7.591 -0.1998 -0.0919 -0.0330
  823YOPS   C4B12374  12.085  10.244   7.897  0.1102 -0.1478  0.4009
  824YOPS   CNO12375   2.202  11.408   5.895  0.1937  0.0321  0.3786
  824YOPS   PO412376   2.320  11.798   5.838  0.1014  0.4329  0.0187
  824YOPS   GL112377   2.212  11.739   6.296  0.1477 -0.0058 -0.2138
  824YOPS   GL212378   2.252  11.939   6.497  0.0175  0.0504 -0.0521
  824YOPS   C1A12379   2.188  11.405   6.677 -0.0148 -0.3554 -0.1551
  824YOPS   D2A12380   2.088  11.348   7.165  0.4553  0.1218 -0.0710
  824YOPS   C3A12381   2.206  11.210   7.553  0.0565  0.4802 -0.2946
  824YOPS   C4A12382   2.580  10.910   7.813 -0.1321 -0.0154 -0.1042
  824YOPS   C1B12383   2.309  11.933   6.928  0.0962  0.0187 -0.4015
  824YOPS   C2B12384   2.352  12.139   7.251 -0.3827 -0.1162 -0.0920
  824YOPS   D3B12385   2.372  12.361   7.590  0.2891 -0.0464 -0.0484
  824YOPS   C4B12386   2.408  12.433   7.998  0.2726 -0.1214  0.1227
  825YOPS   CNO12387   9.980   2.494   4.902 -0.0691  0.0316  0.1531
  825YOPS   PO412388  10.273   2.345   5.232  0.0386  0.1849  0.1165
  825YOPS   GL112389  10.228   2.591   5.558 -0.1831  0.2565 -0.0163
  825YOPS   GL212390  10.497   2.459   5.694 -0.2228  0.0614  0.0522
  825YOPS   C1A12391  10.054   2.452   5.943  0.2143  0.1941  0.1207
  825YOPS   D2A12392   9.826   2.176   6.268  0.0488  0.3368  0.1603
  825YOPS   C3A12393   9.355   1.926   6.323  0.1545  0.0066 -0.2847
  825YOPS   C4A12394   9.422   1.575   6.332  0.1996  0.5786 -0.0625
  825YOPS   C1B12395  10.512   2.300   6.063  0.3785  0.1853  0.0491
  825YOPS   C2B12396  10.300   2.104   6.451  0.3564  0.2930 -0.3316
  825YOPS   D3B12397  10.220   2.194   6.823 -0.0315 -0.0803  0.0444
  825YOPS   C4B12398  10.530   2.281   7.137 -0.2101  0.1008 -0.2447
  826YOPS   CNO12399  13.980  12.651   5.778  0.0636  0.0941 -0.0269
  826YOPS   PO412400  13.518  12.763   6.001 -0.2114 -0.1189  0.1724
  826YOPS   GL112401  13.521  12.990   6.392 -0.0500 -0.0655  0.2027
  826YOPS   GL212402  13.318  13.072   6.518 -0.1986 -0.0466 -0.1145
  826YOPS   C1A12403  13.842  13.058   6.768  0.3660 -0.0389 -0.0819
  826YOPS   D2A12404  13.871  13.222   7.172  0.0809  0.0068  0.0182
  826YOPS   C3A12405  13.943  13.137   7.516  0.0345 -0.0196 -0.1016
  826YOPS   C4A12406  14.332  13.135   7.754  0.0081  0.1369  0.0379
  826YOPS   C1B12407  13.343  12.921   6.986  0.1890  0.0161  0.1927
  826YOPS   C2B12408  13.152  12.873   7.428 -0.2135 -0.0822 -0.0210
  826YOPS   D3B12409  13.100  12.792   7.930 -0.1580  0.1119  0.2745
  826YOPS   C4B12410  13.153  13.095   8.223 -0.0109 -0.0459  0.0483
  827YOPS   CNO12411   3.708   1.923   5.236 -0.1151 -0.1753  0.1149
  827YOPS   PO412412   3.620   1.626   5.552  0.1095 -0.0948 -0.1255
  827YOPS   GL112413   3.699   1.888   5.811  0.0304  0.3093 -0.7292
  827YOPS   GL212414   3.476   1.775   6.105  0.1643 -0.0988  0.0486
  827YOPS   C1A12415   3.912   1.875   6.276 -0.1067 -0.2437  0.0686
  827YOPS   D2A12416   3.902   1.811   6.681 -0.2608  0.0502 -0.2838
  827YOPS   C3A12417   3.840   1.947   7.147 -0.0316 -0.0113 -0.3492
  827YOPS   C4A12418   4.211   1.971   7.403 -0.0001 -0.1348  0.0710
  827YOPS   C1B12419   3.496   1.681   6.514 -0.1908 -0.2074 -0.1488
  827YOPS   C2B12420   3.425   1.813   6.922  0.0220 -0.1138  0.2014
  827YOPS   D3B12421   3.375   1.929   7.367 -0.1513 -0.1930 -0.1965
  827YOPS   C4B12422   3.021   2.025   7.602 -0.1992 -0.2224 -0.0082
  828YOPS   CNO12423  16.075   1.249   5.521 -0.1586  0.3423 -0.1841
  828YOPS   PO412424  16.385   1.529   5.711 -0.1792 -0.1625 -0.0055
  828YOPS   GL112425  16.405   1.147   5.981 -0.1339  0.0727 -0.4660
  828YOPS   GL212426  16.167   0.904   5.911 -0.1326 -0.1420  0.0749
  828YOPS   C1A12427  16.414   1.075   6.344 -0.3288 -0.1625  0.0041
  828YOPS   D2A12428  16.250   0.952   6.768 -0.2375 -0.3728 -0.1089
  828YOPS   C3A12429  16.058   1.067   7.208 -0.1563 -0.0588 -0.2269
  828YOPS   C4A12430  15.593   1.059   7.232  0.0197  0.1838 -0.0697
  828YOPS   C1B12431  15.959   0.774   6.398  0.0388 -0.2403 -0.1390
  828YOPS   C2B12432  15.733   0.821   6.748 -0.0984  0.1586  0.0348
  828YOPS   D3B12433  15.931   0.636   7.096  0.2229 -0.3115  0.2117
  828YOPS   C4B12434  15.709   0.677   7.514  0.0974 -0.0025 -0.1063
  829YOPS   CNO12435   4.903   0.914   5.548 -0.3369  0.4018  0.2783
  829YOPS   PO412436   5.283   0.955   5.713 -0.1934  0.1370  0.1124
  829YOPS   GL112437   5.062   0.816   6.131 -0.3211 -0.2004  0.3126
  829YOPS   GL212438   5.261   0.645   6.325 -0.2545 -0.2606  0.0071
  829YOPS   C1A12439   4.732   0.841   6.402 -0.2124 -0.0016  0.0357
  829YOPS   D2A12440   4.583   0.700   6.762  0.4003  0.3539 -0.1324
  829YOPS   C3A12441   4.466   0.498   7.199 -0.0088  0.2699 -0.0136
  829YOPS   C4A12442   4.661   0.565   7.607  0.0138 -0.1764 -0.2662
  829YOPS   C1B12443   5.070   0.561   6.644 -0.1609  0.1941 -0.0492
  829YOPS   C2B12444   4.947   0.422   7.065 -0.0091 -0.0890  0.0908
  829YOPS   D3B12445   4.980   0.287   7.445 -0.0255 -0.0871 -0.1438
  829YOPS   C4B12446   5.170  -0.017   7.447  0.1116 -0.0104 -0.5224
  830YOPS   CNO12447  11.482   9.833   5.645  0.2554 -0.0206 -0.2892
  830YOPS   PO412448  11.146   9.542   5.942  0.1869 -0.0868 -0.2353
  830YOPS   GL112449  11.256   9.555   6.404 -0.0834  0.1293 -0.1008
  830YOPS   GL212450  11.560   9.753   6.526  0.1585 -0.1626  0.0763
  830YOPS   C1A12451  11.070   9.512   6.786  0.0557 -0.1711 -0.2321
  830YOPS   D2A12452  11.155   9.587   7.157  0.0299 -0.1286 -0.2520
  830YOPS   C3A12453  11.040   9.633   7.652 -0.2321 -0.2221  0.0289
  830YOPS   C4A12454  10.640   9.664   7.950  0.1349  0.2184 -0.2651
  830YOPS   C1B12455  11.571  10.007   6.811  0.2326 -0.0558 -0.0606
  830YOPS   C2B12456  11.656   9.890   7.211  0.1357 -0.1311  0.0205
  830YOPS   D3B12457  11.976   9.670   7.313  0.1139  0.0341 -0.1700
  830YOPS   C4B12458  12.052   9.285   7.384 -0.3626  0.1275 -0.1526
  831YOPS   CNO12459  16.760  10.873   5.758 -0.1421  0.0590 -0.1210
  831YOPS   PO412460  16.365  10.973   5.900 -0.0105 -0.2405  0.0808
  831YOPS   GL112461  16.416  11.154   6.201  0.0359  0.0555  0.0207
  831YOPS   GL212462  16.300  11.470   6.105  0.1759  0.0439  0.0132
  831YOPS   C1A12463  16.500  11.173   6.562  0.0312  0.1002 -0.4806
  831YOPS   D2A12464  16.595  10.975   6.807  0.1996 -0.1040  0.3181
  831YOPS   C3A12465  16.557  10.933   7.296  0.1189 -0.0152 -0.1963
  831YOPS   C4A12466  16.273  10.974   7.649 -0.1081  0.0781 -0.2194
  831YOPS   C1B12467  16.057  11.586   6.412 -0.0871 -0.0167  0.0317
  831YOPS   C2B12468  16.193  11.842   6.806  0.0175 -0.3267  0.2198
  831YOPS   D3B12469  16.167  11.851   7.139  0.3204 -0.0299 -0.2065
  831YOPS   C4B12470  15.911  12.122   7.318 -0.0396 -0.0724 -0.1888
  832YOPS   CNO12471   9.851  14.513   5.342  0.1133  0.1194 -0.1259
  832YOPS   PO412472  10.001  14.423   5.671  0.0084 -0.1456 -0.4702
  832YOPS   GL112473   9.911  14.483   6.181 -0.1234 -0.1294  0.1532
  832YOPS   GL212474  10.230  14.478   6.265 -0.0481 -0.0438 -0.1648
  832YOPS   C1A12475   9.678  14.366   6.547  0.0372  0.0546  0.1345
  832YOPS   D2A12476   9.560  14.172   6.878  0.1077  0.1742 -0.1945
  832YOPS   C3A12477   9.430  14.069   7.287 -0.0225 -0.1142  0.0605
  832YOPS   C4A12478   9.672  13.881   7.546  0.1852  0.0919 -0.0379
  832YOPS   C1B12479  10.244  14.345   6.626  0.0289 -0.0092  0.1169
  832YOPS   C2B12480  10.245  14.249   7.064  0.1992 -0.0065  0.1291
  832YOPS   D3B12481   9.863  14.319   7.331  0.0567 -0.0489  0.2454
  832YOPS   C4B12482   9.786  14.528   7.742  0.0878  0.1618  0.3828
  833YOPS   CNO12483  11.134   5.498   5.399 -0.2026  0.1029  0.1302
  833YOPS   PO412484  11.284   5.790   5.695 -0.3686  0.0188 -0.0913
  833YOPS   GL112485  11.752   5.857   5.777  0.3001  0.0986  0.2250
  833YOPS   GL212486  11.849   6.217   5.906 -0.2542  0.1301 -0.1347
  833YOPS   C1A12487  12.089   5.802   6.074 -0.0763 -0.2255  0.0178
  833YOPS   D2A12488  12.244   5.846   6.467  0.3667  0.0053 -0.1350
  833YOPS   C3A12489  12.319   5.616   6.827 -0.1919  0.1478  0.1986
  833YOPS   C4A12490  12.359   5.958   7.133 -0.2035  0.0021 -0.0874
  833YOPS   C1B12491  12.011   6.306   6.315 -0.2770 -0.0471 -0.2903
  833YOPS   C2B12492  11.977   6.306   6.715 -0.4172  0.0560 -0.0894
  833YOPS   D3B12493  11.989   6.475   7.104 -0.0740  0.0768 -0.1003
  833YOPS   C4B12494  11.578   6.613   7.353 -0.0699  0.2634 -0.2501
  834YOPS   CNO12495   5.136  15.327   5.089  0.2046 -0.1512  0.1908
  834YOPS   PO412496   5.185  15.616   5.357  0.3547 -0.2247 -0.1237
  834YOPS   GL112497   5.172  15.605   5.809 -0.1743  0.1415  0.3108
  834YOPS   GL212498   5.378  15.508   6.062 -0.1829 -0.1650 -0.0043
  834YOPS   C1A12499   5.005  15.932   6.072 -0.3161  0.1704 -0.1858
  834YOPS   D2A12500   5.103  16.159   6.481  0.0513 -0.0241  0.0176
  834YOPS   C3A12501   5.161  15.985   6.853  0.0837  0.0977  0.1543
  834YOPS   C4A12502   5.128  16.371   7.158 -0.0659 -0.1964 -0.2322
  834YOPS   C1B12503   5.387  15.724   6.447  0.2954 -0.0934 -0.0537
  834YOPS   C2B12504   5.502  15.660   6.924  0.2176  0.1329  0.0588
  834YOPS   D3B12505   5.559  15.384   7.180  0.2770 -0.0714 -0.0164
  834YOPS   C4B12506   5.997  15.296   7.277  0.0050  0.2072  0.2443
  835YOPS   CNO12507  12.909   9.502   6.157  0.0074  0.2114 -0.0753
  835YOPS   PO412508  13.104   9.881   5.959 -0.2505  0.0885  0.0303
  835YOPS   GL112509  13.312   9.906   6.354  0.0319  0.1576  0.0886
  835YOPS   GL212510  13.316   9.604   6.493 -0.1463  0.2166  0.4716
  835YOPS   C1A12511  13.359  10.200   6.667  0.0319  0.1061  0.2099
  835YOPS   D2A12512  13.371  10.215   7.160  0.2147  0.1955  0.1119
  835YOPS   C3A12513  13.360  10.410   7.483  0.0953  0.1256 -0.1799
  835YOPS   C4A12514  13.687  10.733   7.574 -0.0762  0.0736  0.2656
  835YOPS   C1B12515  13.452   9.743   6.882 -0.0014  0.0802 -0.0969
  835YOPS   C2B12516  13.623   9.850   7.396  0.0723  0.0936  0.0636
  835YOPS   D3B12517  13.551  10.057   7.762 -0.2145  0.2118 -0.0695
  835YOPS   C4B12518  13.757  10.435   7.975 -0.4464 -0.3376  0.1412
  836YOPS   CNO12519  10.253   9.619   6.085 -0.0442 -0.1842  0.3527
  836YOPS   PO412520  10.387   9.089   5.935 -0.1257 -0.0891 -0.1600
  836YOPS   GL112521  10.434   9.251   6.375  0.0848  0.2456  0.2074
  836YOPS   GL212522  10.766   9.340   6.367  0.2156  0.4298  0.0071
  836YOPS   C1A12523  10.241   9.244   6.699  0.0160  0.2008  0.0230
  836YOPS   D2A12524  10.197   8.989   6.877  0.1641 -0.1076  0.1672
  836YOPS   C3A12525   9.845   8.703   7.015  0.4471 -0.1180 -0.0217
  836YOPS   C4A12526   9.432   8.754   7.263  0.0450  0.0725 -0.1344
  836YOPS   C1B12527  10.705   9.071   6.760 -0.0798  0.3208  0.3807
  836YOPS   C2B12528  10.660   8.858   7.122 -0.0578 -0.0082  0.3229
  836YOPS   D3B12529  10.672   8.649   7.458  0.0758 -0.0515 -0.3222
  836YOPS   C4B12530  10.401   8.581   7.763 -0.0501 -0.1531 -0.0807
  837YOPS   CNO12531  17.284  12.420   5.807 -0.0639  0.0322 -0.0920
  837YOPS   PO412532  16.975  12.591   5.624 -0.1511 -0.1624  0.0092
  837YOPS   GL112533  16.918  12.599   6.084  0.3455 -0.2880  0.0303
  837YOPS   GL212534  16.821  12.907   6.198 -0.2086 -0.0336  0.0333
  837YOPS   C1A12535  16.716  12.340   6.398 -0.1137  0.0840 -0.0207
  837YOPS   D2A12536  16.603  12.168   6.829 -0.0428  0.3148 -0.0215
  837YOPS   C3A12537  16.658  11.932   7.244 -0.0676 -0.0063 -0.3065
  837YOPS   C4A12538  16.322  12.061   7.675  0.0344 -0.1328  0.0846
  837YOPS   C1B12539  16.687  13.093   6.629 -0.0833  0.1398  0.2977
  837YOPS   C2B12540  16.742  13.150   7.023 -0.0523  0.3430 -0.0157
  837YOPS   D3B12541  16.775  13.036   7.472 -0.1924  0.0475  0.1055
  837YOPS   C4B12542  16.619  12.707   7.772 -0.1199 -0.1529 -0.1100
  838YOPS   CNO12543  17.261  11.301   5.181  0.1409  0.0450 -0.2346
  838YOPS   PO412544  17.173  11.297   5.547  0.0959  0.1859  0.2433
  838YOPS   GL112545  17.268  11.379   5.986 -0.0380 -0.0872  0.0220
  838YOPS   GL212546  17.064  11.226   6.143  0.0567 -0.2065 -0.0248
  838YOPS   C1A12547  17.244  11.640   6.401 -0.0999  0.0638  0.1381
  838YOPS   D2A12548  17.143  11.585   6.822  0.2783  0.2178 -0.2559
  838YOPS   C3A12549  17.081  11.643   7.195 -0.1320 -0.1571 -0.0638
  838YOPS   C4A12550  17.259  11.889   7.418  0.0677 -0.1898 -0.0952
  838YOPS   C1B12551  17.031  11.184   6.527 -0.0889  0.1488 -0.0969
  838YOPS   C2B12552  17.005  11.136   7.019 -0.2735 -0.0241  0.0987
  838YOPS   D3B12553  17.107  11.012   7.359 -0.2461 -0.1441  0.3430
  838YOPS   C4B12554  17.070  11.227   7.724 -0.2769  0.2271 -0.1010
  839YOPS   CNO12555  11.047   6.998   5.373 -0.0503  0.1173 -0.1058
  839YOPS   PO412556  10.945   6.653   5.663  0.1100  0.0609 -0.0156
  839YOPS   GL112557  10.898   6.675   6.078 -0.0214 -0.1042 -0.2143
  839YOPS   GL212558  10.761   7.011   6.264 -0.0018  0.0892 -0.1980
  839YOPS   C1A12559  11.010   6.663   6.529 -0.2561 -0.1643  0.4590
  839YOPS   D2A12560  10.901   6.850   6.863 -0.0457 -0.2294 -0.0058
  839YOPS   C3A12561  10.947   7.109   7.127  0.3135 -0.1925  0.3035
  839YOPS   C4A12562  10.556   7.151   7.397 -0.1337 -0.2137 -0.1355
  839YOPS   C1B12563  10.575   7.209   6.640 -0.0152  0.0005 -0.3036
  839YOPS   C2B12564  10.306   7.309   6.954  0.0145 -0.0396 -0.1259
  839YOPS   D3B12565  10.015   7.069   7.246  0.0074  0.1273 -0.1842
  839YOPS   C4B12566   9.839   6.840   7.533  0.1695  0.0459 -0.2280
  840YOPS   CNO12567   9.571  11.755   5.386 -0.2382 -0.1385 -0.1420
  840YOPS   PO412568   9.335  11.681   5.777 -0.2079  0.0709  0.1534
  840YOPS   GL112569   9.274  11.632   6.165  0.2227 -0.0296  0.2011
  840YOPS   GL212570   9.564  11.884   6.234 -0.0444 -0.1326  0.1042
  840YOPS   C1A12571   9.093  11.716   6.526 -0.1402 -0.0681  0.1812
  840YOPS   D2A12572   8.913  12.008   6.825 -0.2643  0.0610  0.1111
  840YOPS   C3A12573   8.940  12.058   7.335  0.3026 -0.1338 -0.0119
  840YOPS   C4A12574   8.788  11.937   7.804  0.3860 -0.2786 -0.4457
  840YOPS   C1B12575   9.745  12.103   6.522 -0.1977 -0.1056 -0.1397
  840YOPS   C2B12576   9.930  12.401   6.885 -0.2180  0.1679  0.0427
  840YOPS   D3B12577   9.887  12.424   7.276  0.2417  0.2688 -0.0934
  840YOPS   C4B12578  10.064  12.743   7.599 -0.1769  0.1132  0.0431
  841POPE   NH312579  11.758  13.984   6.289 -0.2263  0.2900 -0.1556
  841POPE   PO412580  11.651  14.448   5.994 -0.0150  0.0187  0.0756
  841POPE   GL112581  11.622  14.624   6.364 -0.3806 -0.2614 -0.1286
  841POPE   GL212582  11.829  14.462   6.599  0.0945  0.0191  0.2431
  841POPE   C1A12583  11.828  14.984   6.676  0.3759 -0.0358  0.4786
  841POPE   D2A12584  11.997  15.205   7.080 -0.1330 -0.0215  0.0693
  841POPE   C3A12585  11.919  15.190   7.483 -0.0573 -0.3301 -0.0238
  841POPE   C4A12586  12.014  15.064   7.877 -0.1218  0.0395  0.3740
  841POPE   C1B12587  11.859  14.711   7.035 -0.0105  0.2428 -0.0478
  841POPE   C2B12588  11.902  14.614   7.489 -0.0718  0.0194  0.4858
  841POPE   C3B12589  11.800  14.435   7.905 -0.2740  0.1411  0.0044
  841POPE   C4B12590  11.981  14.289   8.323  0.2386  0.0484 -0.1465
  842POPE   NH312591   5.006  15.188   5.621 -0.2474  0.3085 -0.1155
  842POPE   PO412592   5.390  15.242   5.603 -0.0427  0.0011  0.3335
  842POPE   GL112593   5.298  14.958   6.027  0.3054 -0.0916 -0.3169
  842POPE   GL212594   5.029  15.012   6.112 -0.2098 -0.0990 -0.3080
  842POPE   C1A12595   5.319  14.786   6.464  0.0071 -0.2999  0.1063
  842POPE   D2A12596   5.407  14.478   6.771  0.0479 -0.2415  0.0736
  842POPE   C3A12597   5.126  14.446   7.055  0.2841 -0.0835  0.1785
  842POPE   C4A12598   4.933  14.220   7.349 -0.1004 -0.2096 -0.2139
  842POPE   C1B12599   5.134  15.283   6.460  0.0504  0.0283 -0.1009
  842POPE   C2B12600   5.096  15.353   6.919  0.0135 -0.3429 -0.0068
  842POPE   C3B12601   5.159  15.018   7.123 -0.3062 -0.0478 -0.1380
  842POPE   C4B12602   5.066  14.816   7.461 -0.0935  0.1041  0.1752
  843POPE   NH312603   8.678  13.958   5.760  0.0797  0.1604  0.0587
  843POPE   PO412604   8.213  13.978   5.775 -0.0569 -0.0009  0.4070
  843POPE   GL112605   7.957  13.855   6.157 -0.1831  0.0217  0.1033
  843POPE   GL212606   7.697  13.651   6.163 -0.1211  0.1613  0.0527
  843POPE   C1A12607   7.993  13.724   6.596  0.1042  0.0102  0.2517
  843POPE   D2A12608   7.781  13.519   6.940  0.1292 -0.3560  0.0969
  843POPE   C3A12609   7.570  13.573   7.278 -0.1812  0.3625 -0.0940
  843POPE   C4A12610   7.784  13.572   7.653  0.1820  0.0498 -0.1910
  843POPE   C1B12611   7.395  13.669   6.496  0.0621 -0.2204  0.0743
  843POPE   C2B12612   7.196  13.611   6.901 -0.1267  0.2173  0.1738
  843POPE   C3B12613   7.022  13.751   7.286 -0.2222  0.1625 -0.0472
  843POPE   C4B12614   6.669  13.779   7.580  0.1718  0.1227 -0.2315
  844POPE   NH312615   3.647  15.212   5.358 -0.1974 -0.2236 -0.0432
  844POPE   PO412616   3.439  15.073   5.709 -0.1114  0.1708 -0.3778
  844POPE   GL112617   3.555  15.055   6.051  0.2180  0.0054 -0.2623
  844POPE   GL212618   3.698  15.382   6.142 -0.2032 -0.0264  0.2043
  844POPE   C1A12619   3.642  15.078   6.491 -0.0730 -0.2105  0.2075
  844POPE   D2A12620   3.690  15.232   6.996  0.2962 -0.0641 -0.0036
  844POPE   C3A12621   3.879  14.881   7.151 -0.0917 -0.3724 -0.0643
  844POPE   C4A12622   3.896  14.545   7.476 -0.0873 -0.1201  0.1951
  844POPE   C1B12623   3.663  15.590   6.549  0.0205 -0.2340  0.2971
  844POPE   C2B12624   3.522  15.717   6.964  0.0138 -0.0017 -0.1273
  844POPE   C3B12625   3.496  15.689   7.360  0.1537  0.1852  0.1967
  844POPE   C4B12626   3.516  15.572   7.793  0.0999 -0.0678  0.2653
  845POPE   NH312627   6.495  15.786   5.162  0.0729 -0.2085  0.4228
  845POPE   PO412628   6.216  15.747   5.491  0.2487 -0.0299  0.2738
  845POPE   GL112629   6.083  15.588   5.845  0.1368 -0.1008 -0.0591
  845POPE   GL212630   6.255  15.356   5.892  0.0789  0.1379 -0.2449
  845POPE   C1A12631   5.821  15.705   6.272 -0.0224 -0.2781 -0.1028
  845POPE   D2A12632   5.904  15.579   6.678  0.0107  0.3993  0.0569
  845POPE   C3A12633   5.912  15.817   7.094  0.2032  0.0671 -0.0523
  845POPE   C4A12634   5.770  16.073   7.544 -0.1981  0.2252 -0.2708
  845POPE   C1B12635   6.281  15.437   6.333  0.1884  0.1955 -0.2486
  845POPE   C2B12636   6.316  15.443   6.862 -0.3950 -0.1061  0.0210
  845POPE   C3B12637   6.526  15.369   7.302 -0.0809 -0.0034  0.0135
  845POPE   C4B12638   6.409  14.971   7.452  0.1826  0.0105 -0.0796
  846POPE   NH312639   5.472   7.864   5.865 -0.0683 -0.0030 -0.3753
  846POPE   PO412640   5.176   8.242   5.994  0.0203  0.0368  0.1012
  846POPE   GL112641   4.970   8.626   6.230  0.0976 -0.2280 -0.1122
  846POPE   GL212642   5.162   8.408   6.491  0.2003 -0.3039 -0.1261
  846POPE   C1A12643   4.878   8.783   6.629 -0.4580  0.0579  0.1995
  846POPE   D2A12644   5.057   9.023   6.906 -0.0052  0.3166  0.0088
  846POPE   C3A12645   5.239   8.865   7.238  0.0503 -0.2329 -0.0601
  846POPE   C4A12646   5.385   8.675   7.557 -0.0239 -0.0075 -0.0006
  846POPE   C1B12647   5.194   8.463   6.917 -0.3118  0.2127 -0.0231
  846POPE   C2B12648   5.097   8.326   7.306 -0.3002 -0.2204  0.3151
  846POPE   C3B12649   5.072   8.269   7.759  0.4564 -0.1091 -0.2199
  846POPE   C4B12650   5.089   8.202   8.099  0.1836 -0.0087 -0.0877
  847POPE   NH312651  13.382   3.996   5.591 -0.0743  0.1521  0.1110
  847POPE   PO412652  13.583   4.309   5.658 -0.0087  0.2640  0.3286
  847POPE   GL112653  13.394   4.213   6.027 -0.2487 -0.0378 -0.0884
  847POPE   GL212654  13.507   3.948   6.080 -0.0237  0.2486  0.0884
  847POPE   C1A12655  13.474   4.326   6.505  0.1055  0.0562 -0.1653
  847POPE   D2A12656  13.315   4.390   6.940 -0.0503  0.1574 -0.1046
  847POPE   C3A12657  13.305   4.109   7.253  0.0592  0.0461  0.1506
  847POPE   C4A12658  13.020   3.886   7.498 -0.1660 -0.0942 -0.0381
  847POPE   C1B12659  13.751   3.931   6.431  0.1992 -0.2481 -0.1799
  847POPE   C2B12660  13.969   3.630   6.459  0.0242 -0.0127 -0.2278
  847POPE   C3B12661  14.284   3.489   6.615  0.1142  0.2114 -0.0441
  847POPE   C4B12662  14.486   3.689   6.885 -0.0112  0.0018  0.1627
  848POPE   NH312663   1.468  10.513   5.736 -0.1376  0.1118 -0.1361
  848POPE   PO412664   1.110  10.437   5.745 -0.2506 -0.0599  0.0997
  848POPE   GL112665   1.317  10.222   6.102 -0.1085  0.0815  0.2988
  848POPE   GL212666   1.210  10.556   6.210 -0.0987 -0.1680 -0.1502
  848POPE   C1A12667   1.370  10.136   6.527  0.1991  0.2604 -0.0347
  848POPE   D2A12668   1.224   9.919   6.781  0.0734 -0.0297  0.0395
  848POPE   C3A12669   1.084   9.878   7.157  0.2386  0.0331  0.0229
  848POPE   C4A12670   0.685   9.872   7.388  0.4043  0.1230 -0.2319
  848POPE   C1B12671   0.803  10.410   6.460 -0.2033 -0.0549 -0.0051
  848POPE   C2B12672   0.920  10.255   6.930  0.3234  0.0134 -0.1152
  848POPE   C3B12673   1.044  10.348   7.345  0.2301  0.0975 -0.0768
  848POPE   C4B12674   1.294  10.634   7.438 -0.1664  0.1523 -0.1758
  849POPE   NH312675  17.842   9.589   6.060 -0.0122 -0.2469  0.1796
  849POPE   PO412676  18.238   9.667   5.831 -0.0861 -0.0824  0.2510
  849POPE   GL112677  18.426   9.885   6.229 -0.1910  0.3861 -0.0262
  849POPE   GL212678  18.179   9.871   6.395 -0.1359 -0.0747  0.1538
  849POPE   C1A12679  18.502   9.794   6.695  0.4476  0.0269 -0.0496
  849POPE   D2A12680  18.687   9.876   7.081  0.3690 -0.4082  0.0952
  849POPE   C3A12681  18.643   9.662   7.388 -0.1720 -0.1070 -0.0919
  849POPE   C4A12682  18.791   9.601   7.788 -0.0360  0.0517  0.0243
  849POPE   C1B12683  18.034   9.867   6.785 -0.3713 -0.0938  0.2163
  849POPE   C2B12684  18.160   9.871   7.201 -0.2477  0.0217  0.1570
  849POPE   C3B12685  18.109   9.555   7.516  0.3576 -0.0943  0.0044
  849POPE   C4B12686  18.285   9.519   7.928  0.4034 -0.1602  0.0938
  850POPE   NH312687   3.050   7.094   5.374  0.1384  0.2368  0.2247
  850POPE   PO412688   3.299   7.447   5.405 -0.1001 -0.1800 -0.0080
  850POPE   GL112689   2.872   7.482   5.729 -0.0315 -0.0086  0.0191
  850POPE   GL212690   2.662   7.741   5.851  0.2131  0.2054 -0.0106
  850POPE   C1A12691   2.817   7.381   6.201 -0.0783 -0.0436  0.0519
  850POPE   D2A12692   2.655   7.301   6.592 -0.4102  0.0124 -0.3565
  850POPE   C3A12693   2.575   7.384   7.065  0.1026  0.0608  0.1509
  850POPE   C4A12694   2.456   7.402   7.413 -0.1853 -0.3549 -0.2637
  850POPE   C1B12695   2.560   7.768   6.267 -0.3107 -0.1875  0.2883
  850POPE   C2B12696   2.400   7.746   6.721 -0.4776  0.2105  0.4645
  850POPE   C3B12697   2.400   7.998   7.080 -0.2310  0.0245  0.1160
  850POPE   C4B12698   2.141   8.189   7.378  0.1768 -0.0840 -0.0043
  851POPE   NH312699  16.099   2.006   5.781 -0.2266  0.1356 -0.1462
  851POPE   PO412700  16.273   2.388   5.917 -0.0777 -0.2387  0.2199
  851POPE   GL112701  16.047   2.313   6.341  0.3513  0.0068  0.3787
  851POPE   GL212702  16.201   2.002   6.311 -0.0256 -0.2909  0.1566
  851POPE   C1A12703  16.031   2.442   6.782  0.2875 -0.0571 -0.0126
  851POPE   D2A12704  16.066   2.228   7.193  0.1030 -0.0790 -0.1530
  851POPE   C3A12705  15.731   2.501   7.343 -0.0649  0.2072  0.1239
  851POPE   C4A12706  15.440   2.869   7.305  0.1951 -0.0551  0.2611
  851POPE   C1B12707  16.210   1.922   6.705  0.1382 -0.2576 -0.2431
  851POPE   C2B12708  16.311   1.745   7.118  0.0414 -0.4017  0.2811
  851POPE   C3B12709  16.206   1.826   7.563  0.1751  0.0919 -0.3858
  851POPE   C4B12710  15.919   1.618   7.803  0.2897  0.0899 -0.1228
  852POPE   NH312711  10.049   4.356   5.654 -0.0514  0.1273  0.1791
  852POPE   PO412712  10.289   4.024   5.780 -0.0663  0.1619 -0.3686
  852POPE   GL112713   9.994   4.073   6.093 -0.0656  0.3106 -0.1268
  852POPE   GL212714   9.819   3.939   6.153  0.0452  0.4723  0.2590
  852POPE   C1A12715   9.842   4.300   6.452  0.0022 -0.3487  0.1856
  852POPE   D2A12716   9.840   4.467   6.857  0.0903  0.2741 -0.0969
  852POPE   C3A12717  10.187   4.541   7.127 -0.1060 -0.3979 -0.0399
  852POPE   C4A12718  10.580   4.861   7.371 -0.0074  0.2219  0.2413
  852POPE   C1B12719   9.980   3.758   6.504 -0.2226 -0.4765 -0.0598
  852POPE   C2B12720  10.123   3.639   6.947  0.2514  0.0703  0.2343
  852POPE   C3B12721  10.346   3.408   7.194 -0.0625 -0.4999  0.0536
  852POPE   C4B12722  10.447   3.079   7.450 -0.1288  0.0827  0.4280
  853POPE   NH312723   9.281   1.286   5.603  0.2698  0.0941  0.0536
  853POPE   PO412724   8.941   0.913   5.665 -0.0481 -0.0008  0.1471
  853POPE   GL112725   9.307   0.778   5.907 -0.4132  0.1176  0.0223
  853POPE   GL212726   9.295   1.040   6.020 -0.1257 -0.0512  0.2123
  853POPE   C1A12727   9.328   0.639   6.307 -0.1503 -0.0189  0.1972
  853POPE   D2A12728   9.633   0.757   6.633 -0.1586  0.1880  0.0393
  853POPE   C3A12729   9.666   0.574   7.053 -0.0950 -0.1412 -0.0704
  853POPE   C4A12730   9.693   0.689   7.473 -0.1345 -0.2010  0.0096
  853POPE   C1B12731   9.560   1.088   6.267 -0.2657 -0.1937 -0.1393
  853POPE   C2B12732   9.736   1.226   6.594 -0.1374 -0.1888  0.1161
  853POPE   C3B12733   9.965   1.047   6.930  0.1755 -0.3906  0.0189
  853POPE   C4B12734   9.924   1.283   7.332 -0.2535 -0.0471  0.0906
  854POPE   NH312735   4.398  12.362   5.633  0.1590 -0.2914  0.0343
  854POPE   PO412736   4.348  11.927   5.495  0.0270  0.0695 -0.2375
  854POPE   GL112737   4.698  12.003   5.892 -0.0376 -0.0864  0.1802
  854POPE   GL212738   4.582  12.370   6.088 -0.2322 -0.1503 -0.2179
  854POPE   C1A12739   4.943  12.077   6.342 -0.0346 -0.3157  0.0738
  854POPE   D2A12740   5.157  12.510   6.512  0.2230  0.0644 -0.5634
  854POPE   C3A12741   5.521  12.488   6.774  0.0951  0.1312 -0.2759
  854POPE   C4A12742   5.781  12.145   6.902 -0.0582  0.1216 -0.2563
  854POPE   C1B12743   4.514  12.229   6.518  0.0524 -0.0981  0.1245
  854POPE   C2B12744   4.808  12.228   6.819  0.3122  0.0927 -0.0389
  854POPE   C3B12745   5.034  12.489   7.103 -0.1943 -0.1725  0.0799
  854POPE   C4B12746   5.504  12.507   7.276  0.0183  0.0621  0.0510
  855POPE   NH312747  15.333  12.808   5.996 -0.0817 -0.2626 -0.3167
  855POPE   PO412748  15.514  12.511   5.844  0.0431  0.0891 -0.0192
  855POPE   GL112749  15.210  12.339   6.197  0.1527  0.0538  0.2616
  855POPE   GL212750  15.225  12.497   6.389  0.2173  0.1921  0.0096
  855POPE   C1A12751  15.143  12.026   6.491 -0.4815  0.3230  0.0714
  855POPE   D2A12752  15.114  11.792   6.886 -0.3334 -0.1142 -0.2772
  855POPE   C3A12753  15.362  11.924   7.191  0.0870  0.1225 -0.3680
  855POPE   C4A12754  15.552  12.011   7.651  0.1677 -0.1098  0.0178
  855POPE   C1B12755  15.247  12.679   6.823  0.2110  0.1121 -0.1196
  855POPE   C2B12756  15.129  12.494   7.236  0.1594 -0.1578  0.0315
  855POPE   C3B12757  15.009  12.241   7.560  0.1271  0.3537 -0.1113
  855POPE   C4B12758  15.074  11.761   7.494  0.0053 -0.0671  0.1616
  856POPE   NH312759  10.363  16.678   6.014  0.1145  0.1594  0.1233
  856POPE   PO412760   9.975  16.787   5.943 -0.2615  0.5522  0.1164
  856POPE   GL112761   9.907  16.558   6.240 -0.1834 -0.5093 -0.1055
  856POPE   GL212762   9.764  16.885   6.453 -0.2157  0.1783  0.1190
  856POPE   C1A12763   9.562  16.357   6.559  0.1347 -0.1974  0.1565
  856POPE   D2A12764   9.482  16.447   6.912  0.1258 -0.0076  0.1626
  856POPE   C3A12765   9.317  16.121   7.167 -0.1884  0.0423  0.2924
  856POPE   C4A12766   9.393  16.010   7.536  0.0216 -0.2030  0.0804
  856POPE   C1B12767   9.682  16.909   6.823  0.2046  0.3036 -0.0470
  856POPE   C2B12768   9.647  17.053   7.196  0.3540  0.0384  0.2377
  856POPE   C3B12769   9.564  17.014   7.613 -0.0261  0.0651 -0.0617
  856POPE   C4B12770   9.427  16.667   7.887 -0.2286  0.3837 -0.1984
  857POPE   NH312771  11.238   2.033   5.357  0.1018 -0.0872  0.2131
  857POPE   PO412772  10.743   2.128   5.395 -0.1812 -0.1812  0.0355
  857POPE   GL112773  10.782   1.928   5.697  0.2341 -0.0065  0.0623
  857POPE   GL212774  10.946   1.676   5.724  0.1110 -0.1868 -0.3171
  857POPE   C1A12775  10.968   2.081   6.098 -0.0195 -0.0702 -0.0591
  857POPE   D2A12776  11.170   2.127   6.538 -0.1213 -0.3021  0.2344
  857POPE   C3A12777  11.510   1.919   6.766 -0.1532 -0.2780  0.0222
  857POPE   C4A12778  11.586   1.938   7.255 -0.2105  0.1248 -0.2127
  857POPE   C1B12779  11.042   1.381   6.169  0.0231 -0.2094  0.0392
  857POPE   C2B12780  11.258   0.982   6.287  0.0951  0.0412 -0.1921
  857POPE   C3B12781  11.410   0.774   6.053  0.0273 -0.1440 -0.0927
  857POPE   C4B12782  11.554   0.520   5.859  0.1669  0.0422 -0.1304
  858POPE   NH312783  17.138   9.986   5.787 -0.0266  0.0182 -0.0227
  858POPE   PO412784  16.805  10.102   5.724  0.3420 -0.1920  0.1320
  858POPE   GL112785  16.751   9.914   6.204  0.0170  0.1059 -0.1484
  858POPE   GL212786  16.424   9.973   6.345  0.0915  0.1740  0.2520
  858POPE   C1A12787  16.697   9.915   6.728 -0.1815 -0.1187 -0.0931
  858POPE   D2A12788  16.759   9.951   7.285  0.1374  0.1642 -0.1021
  858POPE   C3A12789  16.602   9.677   7.596 -0.0670 -0.1914  0.1261
  858POPE   C4A12790  16.687   9.682   8.072  0.0503  0.2658 -0.1100
  858POPE   C1B12791  16.278  10.190   6.677 -0.3912 -0.1449  0.1042
  858POPE   C2B12792  16.345  10.096   7.109 -0.4401  0.0933 -0.4053
  858POPE   C3B12793  16.391  10.101   7.633 -0.1041 -0.0526  0.0346
  858POPE   C4B12794  16.251   9.939   8.082 -0.1074  0.1364 -0.0754
  859POPE   NH312795   0.514   3.645   4.606  0.2428 -0.1370 -0.1477
  859POPE   PO412796   0.534   3.689   5.153 -0.1124 -0.2301  0.5010
  859POPE   GL112797   0.492   3.818   5.667  0.2514 -0.1977 -0.5108
  859POPE   GL212798   0.604   3.460   5.762 -0.1138 -0.2439  0.1613
  859POPE   C1A12799   0.580   4.079   6.017 -0.0099  0.2793 -0.1682
  859POPE   D2A12800   0.526   4.350   6.306  0.1517 -0.0844  0.0447
  859POPE   C3A12801   0.494   4.495   6.859  0.2001 -0.1071  0.3204
  859POPE   C4A12802   0.603   4.397   7.281  0.0312 -0.3327 -0.5337
  859POPE   C1B12803   0.634   3.603   6.141  0.0753 -0.2287  0.2703
  859POPE   C2B12804   0.833   3.571   6.529 -0.1543 -0.2673 -0.3516
  859POPE   C3B12805   0.836   3.628   7.049 -0.1435  0.0607 -0.1210
  859POPE   C4B12806   0.757   3.446   7.431 -0.0143 -0.0002 -0.0358
  860POPE   NH312807  13.274  14.708   5.540 -0.0028 -0.0271 -0.2102
  860POPE   PO412808  13.389  14.612   5.873  0.2450  0.1201  0.0950
  860POPE   GL112809  13.473  14.452   6.235  0.2322 -0.2123 -0.2928
  860POPE   GL212810  13.260  14.730   6.363  0.3264 -0.3680 -0.2758
  860POPE   C1A12811  13.303  14.290   6.594  0.0032 -0.0002  0.3020
  860POPE   D2A12812  13.348  14.354   7.075 -0.0005  0.0833 -0.0279
  860POPE   C3A12813  13.708  14.513   7.425 -0.0141 -0.0950 -0.0605
  860POPE   C4A12814  13.730  14.387   7.853 -0.1299 -0.1993 -0.0633
  860POPE   C1B12815  13.436  14.870   6.738  0.0522 -0.2783  0.0215
  860POPE   C2B12816  13.428  14.851   7.182 -0.0838 -0.0881 -0.1462
  860POPE   C3B12817  13.264  14.992   7.614 -0.1676  0.1587 -0.0358
  860POPE   C4B12818  13.017  15.324   7.855 -0.1737  0.0227  0.0758
  861POPE   NH312819   6.754  12.888   5.663 -0.2246  0.2991  0.2760
  861POPE   PO412820   6.905  13.367   5.568  0.1447 -0.2434  0.1196
  861POPE   GL112821   6.761  13.344   5.990  0.0677 -0.0573  0.1030
  861POPE   GL212822   6.370  13.342   6.067  0.2093  0.2646  0.1513
  861POPE   C1A12823   6.639  13.090   6.421 -0.1297 -0.0081 -0.1404
  861POPE   D2A12824   6.421  12.743   6.534  0.2771  0.1322 -0.1387
  861POPE   C3A12825   6.481  12.423   6.840  0.0964 -0.3474 -0.0460
  861POPE   C4A12826   6.360  12.230   7.281  0.1499  0.3726 -0.1251
  861POPE   C1B12827   6.264  13.325   6.473  0.0509 -0.0891  0.1245
  861POPE   C2B12828   6.181  13.464   6.963 -0.1019  0.0877 -0.0856
  861POPE   C3B12829   6.278  13.633   7.290  0.2977  0.0328 -0.0857
  861POPE   C4B12830   6.148  13.634   7.685 -0.0534 -0.0462 -0.3109
  862POPE   NH312831  14.868  15.905   6.124 -0.2483  0.1212 -0.1007
  862POPE   PO412832  15.230  15.998   5.971 -0.2372 -0.0617 -0.1706
  862POPE   GL112833  15.361  15.899   6.454  0.0944  0.2308  0.3239
  862POPE   GL212834  15.703  15.967   6.536  0.3458  0.1415 -0.2222
  862POPE   C1A12835  15.555  15.523   6.633 -0.0047  0.0223 -0.4488
  862POPE   D2A12836  15.674  15.205   6.981  0.0399  0.1167  0.2255
  862POPE   C3A12837  15.484  15.134   7.361  0.1882  0.3733 -0.0428
  862POPE   C4A12838  15.557  14.716   7.625 -0.2128 -0.0211 -0.0786
  862POPE   C1B12839  15.581  15.889   6.944 -0.2795 -0.1083  0.2509
  862POPE   C2B12840  15.656  15.827   7.359  0.1695  0.0226 -0.2060
  862POPE   C3B12841  15.763  15.519   7.615  0.1010  0.1223 -0.0706
  862POPE   C4B12842  15.651  15.218   7.829 -0.1330  0.1788 -0.2558
  863POPE   NH312843   5.069  12.435   5.265  0.0993 -0.1282 -0.1014
  863POPE   PO412844   4.903  12.118   5.439 -0.0942 -0.1589 -0.3693
  863POPE   GL112845   5.154  11.929   5.760 -0.2873  0.0939 -0.4130
  863POPE   GL212846   4.997  11.614   5.837 -0.1385 -0.1771  0.1083
  863POPE   C1A12847   5.354  11.892   6.142  0.1676  0.0089 -0.0261
  863POPE   D2A12848   5.407  11.931   6.523  0.1869  0.1807 -0.1110
  863POPE   C3A12849   5.206  11.960   6.883  0.0860 -0.0825  0.1039
  863POPE   C4A12850   4.762  11.870   7.144 -0.1998 -0.0663  0.1834
  863POPE   C1B12851   5.024  11.493   6.268  0.0298  0.0663  0.1469
  863POPE   C2B12852   5.226  11.484   6.675 -0.0174  0.2557 -0.0987
  863POPE   C3B12853   5.438  11.528   7.038 -0.1862  0.0931 -0.1458
  863POPE   C4B12854   5.460  11.323   7.432 -0.0318  0.0121  0.1401
  864POPE   NH312855  16.351   9.868   5.841 -0.0164  0.0339 -0.0367
  864POPE   PO412856  16.119  10.089   5.950  0.1350 -0.1084  0.0648
  864POPE   GL112857  15.811  10.094   6.325  0.0620  0.0983 -0.0489
  864POPE   GL212858  15.937   9.870   6.473  0.0890 -0.2173  0.2284
  864POPE   C1A12859  15.773  10.363   6.656 -0.1428  0.2071 -0.1816
  864POPE   D2A12860  15.805  10.451   7.128  0.2270 -0.3544  0.0174
  864POPE   C3A12861  15.755  10.567   7.562  0.0934 -0.2801  0.3395
  864POPE   C4A12862  15.911  10.327   7.783  0.0335 -0.1602  0.0156
  864POPE   C1B12863  15.894   9.961   7.045  0.2610 -0.0646 -0.1119
  864POPE   C2B12864  15.959   9.890   7.410  0.1403  0.0763  0.3776
  864POPE   C3B12865  16.090   9.631   7.668 -0.1059  0.2172 -0.1438
  864POPE   C4B12866  16.323   9.302   7.848 -0.3196 -0.1139  0.1992
  865POPE   NH312867   8.845   5.818   6.109  0.0893 -0.0687  0.0230
  865POPE   PO412868   8.550   5.501   6.318  0.0742 -0.0541 -0.1780
  865POPE   GL112869   8.759   5.719   6.564  0.0879  0.0874  0.2412
  865POPE   GL212870   9.035   5.571   6.543 -0.0250 -0.1332 -0.2095
  865POPE   C1A12871   8.670   5.917   6.962 -0.2159 -0.3310  0.1484
  865POPE   D2A12872   8.659   6.191   7.300  0.1476  0.0793  0.1689
  865POPE   C3A12873   9.023   6.219   7.529 -0.5535  0.1570 -0.1345
  865POPE   C4A12874   9.280   6.566   7.682 -0.1503 -0.0560 -0.0312
  865POPE   C1B12875   9.034   5.367   6.910  0.1063 -0.0146 -0.0517
  865POPE   C2B12876   9.045   5.164   7.313 -0.0310  0.2644  0.1155
  865POPE   C3B12877   8.896   4.768   7.647  0.2755  0.1553 -0.3576
  865POPE   C4B12878   8.741   4.641   8.036  0.0693  0.3857  0.1513
  866POPE   NH312879  10.721  10.302   6.129  0.0148 -0.3038  0.2679
  866POPE   PO412880  10.400  10.084   5.975 -0.0866  0.2050 -0.1410
  866POPE   GL112881  10.320  10.185   6.365 -0.0743  0.0435  0.2539
  866POPE   GL212882   9.970  10.053   6.340  0.2592  0.0066  0.1672
  866POPE   C1A12883  10.275  10.102   6.908  0.0363 -0.0245 -0.2049
  866POPE   D2A12884  10.219  10.060   7.295  0.2467 -0.1112  0.0927
  866POPE   C3A12885  10.305   9.778   7.568  0.1425 -0.1440  0.4736
  866POPE   C4A12886  10.084   9.529   7.869  0.1041 -0.0424  0.1347
  866POPE   C1B12887   9.777  10.058   6.710 -0.0652 -0.3329  0.0142
  866POPE   C2B12888   9.745   9.998   7.193  0.0087  0.2649 -0.0713
  866POPE   C3B12889   9.825  10.041   7.661 -0.0719 -0.0388 -0.1665
  866POPE   C4B12890  10.168  10.221   7.827  0.0179  0.0910  0.1908
  867POPE   NH312891   8.905   9.137   5.899 -0.2511  0.0987 -0.0411
  867POPE   PO412892   8.940   9.575   6.014 -0.1030 -0.1430  0.0093
  867POPE   GL112893   9.009   9.591   6.483  0.1589 -0.1902  0.0193
  867POPE   GL212894   9.286   9.430   6.579 -0.0264 -0.0641 -0.1926
  867POPE   C1A12895   8.930   9.606   6.992 -0.0922  0.2145 -0.1076
  867POPE   D2A12896   8.893   9.428   7.359  0.0799  0.2323  0.0133
  867POPE   C3A12897   8.628   9.529   7.631  0.0817 -0.0378 -0.0352
  867POPE   C4A12898   8.630   9.843   7.915 -0.2572  0.0713 -0.0098
  867POPE   C1B12899   9.416   9.469   6.952  0.3167  0.0132  0.1382
  867POPE   C2B12900   9.335   9.304   7.290  0.2236  0.0246  0.0115
  867POPE   C3B12901   9.257   9.065   7.563  0.0479 -0.2201 -0.0221
  867POPE   C4B12902   9.072   8.742   7.748  0.0213 -0.0163  0.1167
  868POPE   NH312903  15.521   9.812   5.988 -0.1583 -0.1145  0.1034
  868POPE   PO412904  15.891   9.596   5.996 -0.1870 -0.2078 -0.0803
  868POPE   GL112905  16.223   9.497   6.222  0.2041 -0.1920  0.0175
  868POPE   GL212906  16.087   9.396   6.400 -0.2010  0.1710  0.1223
  868POPE   C1A12907  16.566   9.510   6.453 -0.3760  0.0212 -0.1373
  868POPE   D2A12908  16.673   9.373   6.868 -0.0012 -0.1410  0.0083
  868POPE   C3A12909  17.032   9.128   7.003 -0.1490  0.0805  0.1197
  868POPE   C4A12910  17.155   9.068   7.377 -0.2713  0.1733  0.0229
  868POPE   C1B12911  16.181   9.585   6.816 -0.3031 -0.2251  0.1913
  868POPE   C2B12912  16.338   9.629   7.196  0.3581  0.1679 -0.1858
  868POPE   C3B12913  16.604   9.265   7.342  0.0087 -0.1599  0.0651
  868POPE   C4B12914  16.399   8.902   7.590 -0.1301  0.1867  0.1505
  869POPE   NH312915  11.828   8.926   6.041  0.2672  0.5465  0.1462
  869POPE   PO412916  11.759   8.612   5.740  0.0202 -0.1542  0.2130
  869POPE   GL112917  11.712   8.219   6.139 -0.0924 -0.0638  0.3018
  869POPE   GL212918  11.510   8.308   6.424  0.0172 -0.2738 -0.0162
  869POPE   C1A12919  11.708   7.874   6.582 -0.0954  0.0853  0.0338
  869POPE   D2A12920  11.693   7.749   7.024  0.0169  0.1827  0.1384
  869POPE   C3A12921  12.058   7.858   7.131  0.0823 -0.1755  0.0999
  869POPE   C4A12922  12.349   7.616   7.147 -0.2103 -0.2415  0.3204
  869POPE   C1B12923  11.220   8.384   6.705 -0.2614  0.2286  0.2565
  869POPE   C2B12924  11.102   8.539   7.083  0.1094 -0.0124  0.0947
  869POPE   C3B12925  11.137   8.459   7.452 -0.2870 -0.2009 -0.0388
  869POPE   C4B12926  11.038   8.578   7.756  0.0857 -0.0202 -0.1492
  870POPE   NH312927  11.831  16.492   6.009 -0.2114 -0.1682  0.3193
  870POPE   PO412928  11.403  16.490   5.977 -0.0903 -0.0703 -0.2441
  870POPE   GL112929  11.418  16.432   6.356  0.0832  0.3581  0.2334
  870POPE   GL212930  11.678  16.629   6.478  0.2996 -0.0169 -0.1166
  870POPE   C1A12931  11.372  16.232   6.798 -0.0900 -0.0356  0.1488
  870POPE   D2A12932  11.468  16.455   7.183 -0.2344 -0.2646  0.1189
  870POPE   C3A12933  11.462  16.147   7.467 -0.1137  0.2377  0.0146
  870POPE   C4A12934  11.579  16.189   7.811 -0.0106  0.0197  0.1717
  870POPE   C1B12935  11.924  16.691   6.841 -0.2226  0.3031  0.1297
  870POPE   C2B12936  11.881  16.850   7.113 -0.1169 -0.2346  0.0357
  870POPE   C3B12937  11.827  17.214   7.334 -0.1592 -0.1168 -0.0269
  870POPE   C4B12938  11.604  17.281   7.612  0.0228  0.0624 -0.0267
  871YOPE   NH312939  17.337  17.812   5.924 -0.2250 -0.0569  0.1704
  871YOPE   PO412940  17.402  18.121   5.533  0.1142 -0.0371  0.0208
  871YOPE   GL112941  17.440  18.346   5.901  0.0493 -0.0160 -0.1835
  871YOPE   GL212942  17.712  18.515   5.998  0.2540  0.0543  0.2201
  871YOPE   C1A12943  17.357  18.425   6.361 -0.0615  0.3647 -0.1375
  871YOPE   D2A12944  17.016  18.774   6.415  0.1351  0.1444  0.0342
  871YOPE   C3A12945  16.984  19.071   6.817 -0.0403  0.1232  0.0910
  871YOPE   C4A12946  16.742  19.331   7.084  0.1753  0.0514 -0.0228
  871YOPE   C1B12947  17.800  18.598   6.445  0.1900  0.1426 -0.0325
  871YOPE   C2B12948  17.760  18.689   6.959 -0.3380  0.0150 -0.0382
  871YOPE   D3B12949  17.899  18.785   7.294  0.1268  0.1526 -0.3931
  871YOPE   C4B12950  17.745  19.014   7.604 -0.5230  0.0965  0.0399
  872YOPE   NH312951  11.112   7.462   5.182  0.0296 -0.0685 -0.0089
  872YOPE   PO412952  11.412   7.426   5.530  0.2359  0.0062 -0.2858
  872YOPE   GL112953  11.564   7.484   5.988  0.0039  0.1614  0.0321
  872YOPE   GL212954  11.936   7.609   6.029 -0.0113 -0.0356  0.2698
  872YOPE   C1A12955  11.430   7.503   6.428  0.0690 -0.0939  0.1488
  872YOPE   D2A12956  11.102   7.314   6.703  0.0371 -0.3030  0.2374
  872YOPE   C3A12957  11.182   7.500   7.017  0.0073 -0.2233 -0.0268
  872YOPE   C4A12958  11.513   7.387   7.277 -0.3173  0.0304 -0.1855
  872YOPE   C1B12959  12.137   7.911   6.306  0.0557  0.4045 -0.0206
  872YOPE   C2B12960  11.985   8.269   6.522 -0.4535  0.0018 -0.0259
  872YOPE   D3B12961  11.617   8.211   6.912  0.0632 -0.1225 -0.3087
  872YOPE   C4B12962  11.597   8.137   7.374  0.1159 -0.0826  0.1302
  873YOPE   NH312963   6.297  16.604   5.579 -0.1731 -0.1578 -0.1141
  873YOPE   PO412964   6.800  16.577   5.578  0.0268  0.1759  0.3748
  873YOPE   GL112965   6.539  16.753   5.984  0.0522  0.0239 -0.0126
  873YOPE   GL212966   6.637  16.981   6.089  0.0413  0.2208  0.1109
  873YOPE   C1A12967   6.451  16.580   6.347  0.3735 -0.3645  0.0084
  873YOPE   D2A12968   6.479  16.542   6.838  0.2170 -0.1815 -0.1672
  873YOPE   C3A12969   6.642  16.694   7.206  0.0500  0.0405 -0.0713
  873YOPE   C4A12970   6.553  16.643   7.548  0.1271  0.0616  0.0412
  873YOPE   C1B12971   6.575  17.084   6.452 -0.3137 -0.0293 -0.2643
  873YOPE   C2B12972   6.744  17.066   6.935 -0.1031  0.1000 -0.0261
  873YOPE   D3B12973   6.940  17.066   7.321  0.0947 -0.2761  0.3180
  873YOPE   C4B12974   7.134  16.882   7.714  0.2083 -0.0084 -0.1154
  874YOPE   NH312975  13.376   4.649   5.357  0.1360  0.4984  0.0921
  874YOPE   PO412976  13.292   4.967   5.112  0.0222 -0.4301  0.2032
  874YOPE   GL112977  13.113   5.278   5.511  0.0590  0.0118  0.2806
  874YOPE   GL212978  12.947   5.185   5.767  0.3189  0.0132 -0.1206
  874YOPE   C1A12979  13.438   5.291   5.819  0.2997  0.1866 -0.0884
  874YOPE   D2A12980  13.821   5.407   6.117 -0.2567 -0.0140 -0.1391
  874YOPE   C3A12981  14.087   5.758   6.229  0.0817 -0.0683 -0.1974
  874YOPE   C4A12982  14.123   6.104   5.966 -0.0008  0.0728 -0.3515
  874YOPE   C1B12983  12.970   5.066   6.196 -0.1819  0.1586 -0.0921
  874YOPE   C2B12984  13.065   5.205   6.592 -0.0672  0.2650 -0.2088
  874YOPE   D3B12985  13.270   5.317   6.956  0.0864  0.1044 -0.1620
  874YOPE   C4B12986  13.291   5.451   7.341  0.3386 -0.1017  0.0127
  875YOPE   NH312987   2.406   8.413   5.191 -0.1832 -0.2040 -0.0286
  875YOPE   PO412988   2.130   8.842   5.115  0.0825 -0.0978  0.2155
  875YOPE   GL112989   2.033   8.949   5.613 -0.0696 -0.1404  0.0201
  875YOPE   GL212990   2.185   8.969   5.856 -0.0073  0.2809  0.1648
  875YOPE   C1A12991   1.660   8.863   5.946 -0.0382  0.0917  0.2067
  875YOPE   D2A12992   1.464   8.612   6.225  0.3093 -0.3506  0.1543
  875YOPE   C3A12993   1.610   8.219   6.318 -0.0416 -0.2024  0.0758
  875YOPE   C4A12994   1.590   7.791   6.289  0.0846 -0.0939  0.2928
  875YOPE   C1B12995   2.129   8.928   6.236 -0.2565 -0.0285 -0.2013
  875YOPE   C2B12996   1.916   8.609   6.487  0.3372 -0.1814 -0.0649
  875YOPE   D3B12997   1.704   8.645   6.872  0.2590 -0.2432 -0.4233
  875YOPE   C4B12998   1.614   8.438   7.310 -0.0183 -0.0451  0.0173
  876YOPE   NH312999   7.334  18.043   5.432 -0.1631  0.1172  0.0291
  876YOPE   PO413000   7.466  18.306   5.675 -0.1903  0.0395 -0.0717
  876YOPE   GL113001   7.522  18.232   6.039 -0.2481  0.1224  0.1210
  876YOPE   GL213002   7.429  18.463   6.255  0.1510  0.1000 -0.0062
  876YOPE   C1A13003   7.566  18.001   6.432 -0.0123  0.1763 -0.0906
  876YOPE   D2A13004   7.941  17.946   6.636 -0.3539 -0.0378 -0.1251
  876YOPE   C3A13005   8.119  18.097   7.024  0.1075 -0.2132 -0.2482
  876YOPE   C4A13006   8.386  17.895   7.334  0.1274 -0.2841  0.2224
  876YOPE   C1B13007   7.854  18.426   6.386  0.1845  0.0783  0.0604
  876YOPE   C2B13008   8.177  18.442   6.658  0.1584  0.1957 -0.3336
  876YOPE   D3B13009   8.387  18.610   6.982 -0.1906 -0.1463  0.2325
  876YOPE   C4B13010   8.626  18.814   7.354  0.1651  0.2570  0.2762
  877YOPE   NH313011  10.341  15.812   5.965 -0.0429 -0.2641  0.1513
  877YOPE   PO413012  10.816  15.726   6.205 -0.1022 -0.2038  0.0731
  877YOPE   GL113013  10.844  15.971   6.471  0.1258  0.0534  0.0816
  877YOPE   GL213014  10.945  16.258   6.520  0.2828 -0.2832  0.2291
  877YOPE   C1A13015  10.637  15.980   6.923  0.4070 -0.2152 -0.1148
  877YOPE   D2A13016  10.583  16.066   7.361  0.0692  0.1133  0.0673
  877YOPE   C3A13017  10.883  16.073   7.679 -0.3483  0.0184 -0.1451
  877YOPE   C4A13018  11.133  16.060   7.913 -0.0289  0.1199 -0.0909
  877YOPE   C1B13019  10.958  16.367   7.004  0.0693  0.2435 -0.1970
  877YOPE   C2B13020  10.965  16.444   7.363  0.0889 -0.2206  0.0877
  877YOPE   D3B13021  11.233  16.592   7.711  0.0133  0.0533 -0.1523
  877YOPE   C4B13022  11.249  16.486   8.146 -0.0282  0.2321 -0.0633
  878YOPE   NH313023  14.439   7.534   5.676 -0.0261  0.3009 -0.1179
  878YOPE   PO413024  14.157   7.137   5.657 -0.1552  0.2256 -0.1306
  878YOPE   GL113025  14.118   6.932   6.020  0.3030  0.0043  0.3119
  878YOPE   GL213026  13.976   6.616   5.997  0.1318 -0.1656 -0.0534
  878YOPE   C1A13027  14.036   6.861   6.439 -0.1606  0.1135  0.1310
  878YOPE   D2A13028  14.124   7.002   6.844 -0.0929  0.0367 -0.2258
  878YOPE   C3A13029  14.107   7.024   7.269  0.0896  0.0013  0.1578
  878YOPE   C4A13030  14.068   6.781   7.648  0.2130 -0.0452 -0.1411
  878YOPE   C1B13031  14.013   6.334   6.418 -0.3087 -0.0329 -0.3987
  878YOPE   C2B13032  14.211   6.061   6.642 -0.0699 -0.2346  0.0665
  878YOPE   D3B13033  14.085   5.676   6.922  0.3692 -0.3770  0.1973
  878YOPE   C4B13034  13.738   5.364   7.055 -0.0345 -0.0172 -0.0147
  879YOPE   NH313035   6.607   0.682   5.798 -0.0809 -0.1983 -0.0610
  879YOPE   PO413036   6.472   0.257   5.932  0.1919 -0.1880 -0.1890
  879YOPE   GL113037   6.706   0.288   6.343 -0.1985 -0.2357  0.0842
  879YOPE   GL213038   6.895   0.607   6.251 -0.0691 -0.2479  0.0920
  879YOPE   C1A13039   6.955   0.230   6.735 -0.1915  0.0300 -0.0207
  879YOPE   D2A13040   7.001   0.109   7.073  0.1230  0.3053  0.4485
  879YOPE   C3A13041   7.156  -0.257   7.247  0.0326 -0.1588  0.0358
  879YOPE   C4A13042   7.218  -0.624   7.483  0.0908  0.1519  0.1831
  879YOPE   C1B13043   7.120   0.782   6.640  0.1272  0.1612 -0.0911
  879YOPE   C2B13044   7.155   0.784   7.065  0.0944  0.1599 -0.0287
  879YOPE   D3B13045   7.255   1.123   7.368  0.0790  0.0256 -0.0799
  879YOPE   C4B13046   7.316   1.184   7.746  0.2324  0.1235  0.0111
  880YOPE   NH313047   0.704  15.901   5.608 -0.0166 -0.0480  0.1984
  880YOPE   PO413048   0.796  16.204   5.927  0.0472 -0.2513 -0.0305
  880YOPE   GL113049   0.937  15.992   6.167 -0.1624 -0.0849  0.0067
  880YOPE   GL213050   1.183  16.024   6.262 -0.2877  0.2249  0.0208
  880YOPE   C1A13051   1.047  15.670   6.566  0.3155  0.2661  0.3872
  880YOPE   D2A13052   1.403  15.648   6.825  0.0038  0.2163 -0.1676
  880YOPE   C3A13053   1.505  15.822   7.223  0.1088  0.0856 -0.1092
  880YOPE   C4A13054   1.660  15.970   7.619 -0.1032 -0.1284  0.1282
  880YOPE   C1B13055   1.414  16.105   6.579  0.0924 -0.0974 -0.1802
  880YOPE   C2B13056   1.326  16.255   7.020  0.2286 -0.0082 -0.3457
  880YOPE   D3B13057   1.372  16.367   7.432 -0.2274 -0.4269 -0.0657
  880YOPE   C4B13058   1.483  16.284   7.925 -0.0505 -0.1095  0.6364
  881YOPE   NH313059  15.056   6.161   5.430 -0.0511  0.1318 -0.0450
  881YOPE   PO413060  14.809   6.447   5.516  0.1181  0.1316  0.4137
  881YOPE   GL113061  15.004   6.242   5.905  0.0477  0.0839 -0.1399
  881YOPE   GL213062  14.938   6.445   6.073 -0.3911 -0.0196 -0.0613
  881YOPE   C1A13063  14.993   5.865   6.065 -0.2615 -0.1730  0.1914
  881YOPE   D2A13064  14.947   5.469   6.432  0.0874 -0.0093  0.1406
  881YOPE   C3A13065  15.296   5.381   6.672  0.1437 -0.0418 -0.0522
  881YOPE   C4A13066  15.384   5.021   6.945 -0.1749 -0.0967  0.0061
  881YOPE   C1B13067  14.942   6.305   6.488  0.2045 -0.1322 -0.0933
  881YOPE   C2B13068  14.950   6.261   6.961 -0.1059 -0.1935 -0.0138
  881YOPE   D3B13069  14.866   6.253   7.341  0.2139  0.0493 -0.0941
  881YOPE   C4B13070  14.882   6.097   7.721 -0.0229 -0.0471  0.2567
  882YOPE   NH313071   4.376   6.062   5.758 -0.1070 -0.1379 -0.0028
  882YOPE   PO413072   3.966   6.281   5.877  0.2057  0.0909 -0.1316
  882YOPE   GL113073   3.912   6.535   6.132 -0.2540 -0.2502  0.0279
  882YOPE   GL213074   3.803   6.833   6.010 -0.2021 -0.1823  0.1707
  882YOPE   C1A13075   3.956   6.773   6.500  0.1056 -0.0766  0.0082
  882YOPE   D2A13076   4.085   6.975   6.841 -0.0876  0.0998 -0.1038
  882YOPE   C3A13077   3.904   6.847   7.258  0.2133  0.2485  0.1941
  882YOPE   C4A13078   3.755   6.640   7.606 -0.0180 -0.1401  0.1685
  882YOPE   C1B13079   4.213   6.992   6.154  0.0392 -0.0360  0.0378
  882YOPE   C2B13080   4.283   7.298   6.411 -0.1127  0.1016 -0.1772
  882YOPE   D3B13081   4.000   7.736   6.383  0.1148 -0.1915  0.3410
  882YOPE   C4B13082   3.768   8.063   6.109 -0.1845  0.7730 -0.2283
  883YOPE   NH313083   2.716   3.450   5.665  0.2753 -0.2019  0.1417
  883YOPE   PO413084   2.284   3.587   5.963  0.0950  0.2162 -0.0667
  883YOPE   GL113085   2.336   3.824   6.335 -0.1457 -0.2981 -0.1394
  883YOPE   GL213086   2.666   3.946   6.429 -0.0292  0.1831 -0.1062
  883YOPE   C1A13087   2.276   4.165   6.605 -0.2860  0.2092 -0.1906
  883YOPE   D2A13088   2.249   4.122   6.991 -0.1566  0.0597  0.4871
  883YOPE   C3A13089   2.425   4.389   7.240  0.0506  0.1864 -0.0091
  883YOPE   C4A13090   2.618   4.473   7.586  0.0395  0.1863 -0.1571
  883YOPE   C1B13091   2.612   3.824   6.827 -0.0455  0.0090 -0.2106
  883YOPE   C2B13092   2.791   3.735   7.207 -0.1528  0.2972 -0.0464
  883YOPE   D3B13093   3.099   3.733   7.477  0.1825  0.3862 -0.0654
  883YOPE   C4B13094   3.385   3.343   7.468 -0.1522  0.0459 -0.1897
  884YOPE   NH313095  11.038  14.490   5.931  0.0292  0.1941  0.1498
  884YOPE   PO413096  11.263  14.084   5.943  0.2580  0.2069  0.0525
  884YOPE   GL113097  11.246  14.250   6.313 -0.1168  0.1543  0.3631
  884YOPE   GL213098  11.087  13.955   6.555 -0.3996  0.3336  0.0880
  884YOPE   C1A13099  11.264  14.458   6.673  0.0530  0.2901  0.0434
  884YOPE   D2A13100  11.323  14.747   6.827 -0.0844 -0.1105  0.3072
  884YOPE   C3A13101  11.300  14.720   7.218  0.0909 -0.3970 -0.1638
  884YOPE   C4A13102  11.419  14.748   7.628  0.0435  0.0992 -0.1451
  884YOPE   C1B13103  11.121  13.979   6.980  0.0201  0.1081 -0.0502
  884YOPE   C2B13104  11.028  13.974   7.374  0.2068 -0.0247 -0.1197
  884YOPE   D3B13105  10.791  13.975   7.730  0.2434 -0.2452 -0.2169
  884YOPE   C4B13106  10.453  14.024   8.075 -0.0853  0.0326  0.5713
  885YOPE   NH313107   2.355   1.796   5.695 -0.0545 -0.0001  0.3121
  885YOPE   PO413108   2.276   2.232   5.594  0.0459  0.3404 -0.0524
  885YOPE   GL113109   2.516   2.258   5.932  0.2287 -0.1751  0.0288
  885YOPE   GL213110   2.542   2.593   6.030 -0.0526 -0.0449 -0.2576
  885YOPE   C1A13111   2.754   2.068   6.104 -0.1023 -0.0298  0.1707
  885YOPE   D2A13112   2.996   1.956   6.506  0.2837 -0.0067  0.0433
  885YOPE   C3A13113   2.931   1.991   6.941  0.0621 -0.2717  0.1277
  885YOPE   C4A13114   2.896   1.668   7.215 -0.2009 -0.0250 -0.1723
  885YOPE   C1B13115   2.604   2.427   6.434  0.1739  0.0459 -0.0122
  885YOPE   C2B13116   2.635   2.442   6.888  0.0042  0.0160 -0.0883
  885YOPE   D3B13117   2.473   2.571   7.290 -0.2113  0.0000 -0.0447
  885YOPE   C4B13118   2.471   2.399   7.671  0.2704 -0.1332  0.0141
  886YOPE   NH313119  14.433  12.704   5.604 -0.0053  0.0662 -0.1376
  886YOPE   PO413120  14.368  12.321   5.903 -0.0714  0.1113  0.1659
  886YOPE   GL113121  14.392  12.272   6.423  0.1238 -0.1057  0.0233
  886YOPE   GL213122  14.685  12.207   6.412  0.0313  0.4258  0.0660
  886YOPE   C1A13123  14.325  12.072   6.788 -0.2715 -0.1924  0.0568
  886YOPE   D2A13124  14.204  12.206   7.186 -0.0621  0.0328  0.3996
  886YOPE   C3A13125  14.514  12.311   7.502  0.2391  0.1022  0.0067
  886YOPE   C4A13126  14.627  12.539   7.777  0.3741  0.0559  0.1203
  886YOPE   C1B13127  14.887  12.264   6.802  0.1314 -0.1992 -0.0790
  886YOPE   C2B13128  14.816  12.027   7.179 -0.2691  0.0384 -0.0721
  886YOPE   D3B13129  14.475  11.793   7.256 -0.0134  0.0948 -0.1826
  886YOPE   C4B13130  14.134  11.856   7.522 -0.1923 -0.0601  0.1356
  887YOPE   NH313131  10.410   3.521   5.522  0.1128 -0.2774 -0.1085
  887YOPE   PO413132  10.675   3.841   5.517 -0.1367 -0.1213  0.2366
  887YOPE   GL113133  10.777   3.835   5.957  0.2506 -0.1217 -0.0225
  887YOPE   GL213134  10.854   4.166   6.130 -0.2869  0.1075 -0.1105
  887YOPE   C1A13135  10.691   3.655   6.357  0.3588 -0.0405 -0.1903
  887YOPE   D2A13136  10.608   3.571   6.721 -0.3627 -0.0169 -0.1743
  887YOPE   C3A13137  10.845   3.559   7.137  0.3710 -0.3119 -0.2154
  887YOPE   C4A13138  11.253   3.706   7.157 -0.1477  0.1632 -0.1935
  887YOPE   C1B13139  11.180   3.879   6.217  0.3359  0.0705 -0.0798
  887YOPE   C2B13140  11.468   4.022   6.555 -0.0321 -0.1786  0.0569
  887YOPE   D3B13141  11.614   3.996   6.975 -0.0673  0.0111 -0.1579
  887YOPE   C4B13142  11.714   3.736   7.333  0.1104  0.2057 -0.2302
  888YOPE   NH313143  17.028   4.402   5.867  0.0086 -0.1098 -0.1600
  888YOPE   PO413144  17.011   4.804   5.705  0.0469 -0.3237 -0.2209
  888YOPE   GL113145  17.206   4.821   6.064  0.1150  0.0931 -0.0575
  888YOPE   GL213146  17.128   5.046   6.205  0.0595  0.3494  0.0049
  888YOPE   C1A13147  17.315   4.646   6.387 -0.2144  0.3149  0.0117
  888YOPE   D2A13148  17.557   4.343   6.665 -0.1321  0.1819  0.2268
  888YOPE   C3A13149  17.599   4.581   7.054 -0.0777  0.0291 -0.1299
  888YOPE   C4A13150  17.752   4.507   7.457 -0.0320 -0.0290 -0.0409
  888YOPE   C1B13151  16.909   5.230   6.415  0.2975  0.3480 -0.0026
  888YOPE   C2B13152  16.649   5.382   6.573 -0.1853  0.0368 -0.2011
  888YOPE   D3B13153  16.257   5.293   6.705  0.1162  0.1875 -0.0745
  888YOPE   C4B13154  15.890   5.128   6.964 -0.1015 -0.1225  0.0216
  889YOPE   NH313155   9.334   3.702   5.743 -0.3414 -0.2603  0.0099
  889YOPE   PO413156   9.595   4.047   5.672 -0.3935  0.2280  0.0444
  889YOPE   GL113157   9.384   4.067   6.020 -0.0161 -0.1136 -0.1713
  889YOPE   GL213158   9.134   4.153   6.043 -0.2438  0.2006  0.1363
  889YOPE   C1A13159   9.384   3.922   6.426 -0.0729  0.0202 -0.0720
  889YOPE   D2A13160   9.258   3.733   6.886 -0.0488 -0.1760 -0.0952
  889YOPE   C3A13161   9.298   3.935   7.262  0.2223 -0.1968 -0.3170
  889YOPE   C4A13162   9.595   3.945   7.638 -0.0781 -0.2561  0.2150
  889YOPE   C1B13163   8.921   4.129   6.456 -0.0122  0.0710  0.4044
  889YOPE   C2B13164   8.905   4.087   6.894  0.1634 -0.1072  0.3490
  889YOPE   D3B13165   8.774   3.904   7.235 -0.1933 -0.1508  0.1895
  889YOPE   C4B13166   8.699   3.761   7.599 -0.0987  0.1288 -0.1830
  890YOPE   NH313167  14.840   3.634   5.320 -0.0072 -0.0860 -0.0317
  890YOPE   PO413168  14.465   3.866   5.334  0.0305 -0.1365  0.0488
  890YOPE   GL113169  14.471   3.717   5.771  0.0229  0.1394 -0.2224
  890YOPE   GL213170  14.710   3.464   5.768 -0.2449 -0.3755  0.0320
  890YOPE   C1A13171  14.437   3.772   6.227 -0.2079  0.0818  0.1650
  890YOPE   D2A13172  14.288   4.067   6.459 -0.1659 -0.3714 -0.1522
  890YOPE   C3A13173  14.045   3.948   6.840 -0.3503 -0.0200 -0.1647
  890YOPE   C4A13174  13.647   3.828   6.959  0.0075 -0.1468 -0.0951
  890YOPE   C1B13175  14.746   3.411   6.318  0.0123  0.1289 -0.0139
  890YOPE   C2B13176  14.754   3.149   6.662 -0.1435 -0.0119  0.0173
  890YOPE   D3B13177  14.470   3.116   6.912 -0.1787 -0.1383 -0.1372
  890YOPE   C4B13178  14.201   3.220   7.241  0.1351 -0.0206  0.1881
  891YOPE   NH313179   3.875   0.808   5.507 -0.1271  0.0671  0.3850
  891YOPE   PO413180   4.321   0.900   5.577  0.0341  0.3986  0.1373
  891YOPE   GL113181   4.433   0.872   5.961 -0.2596  0.0924  0.1605
  891YOPE   GL213182   4.427   0.593   6.005 -0.0555 -0.2492  0.1118
  891YOPE   C1A13183   4.318   1.105   6.245  0.2042  0.4045 -0.0017
  891YOPE   D2A13184   4.525   1.201   6.661  0.1040  0.1676 -0.2236
  891YOPE   C3A13185   4.489   1.075   7.076 -0.0216 -0.1474 -0.0130
  891YOPE   C4A13186   4.410   0.980   7.508  0.0787 -0.0915 -0.1161
  891YOPE   C1B13187   4.204   0.656   6.381 -0.3525 -0.1363 -0.1528
  891YOPE   C2B13188   4.097   0.902   6.767  0.0807 -0.0199  0.1561
  891YOPE   D3B13189   4.082   1.340   6.984  0.2671 -0.0598  0.0265
  891YOPE   C4B13190   4.255   1.667   6.918  0.0318 -0.0691  0.0783
  892YOPE   NH313191   6.168  11.008   5.491 -0.2003 -0.1055 -0.0365
  892YOPE   PO413192   5.840  10.748   5.431 -0.1214  0.0792 -0.1161
  892YOPE   GL113193   5.994  10.735   5.899 -0.0170 -0.1932 -0.1208
  892YOPE   GL213194   5.759  10.566   6.124 -0.2130  0.2457  0.0277
  892YOPE   C1A13195   6.298  10.787   6.288 -0.2338  0.2057  0.3852
  892YOPE   D2A13196   6.540  10.641   6.475  0.1208 -0.0397  0.0340
  892YOPE   C3A13197   6.413  10.333   6.719 -0.1579 -0.0748 -0.5888
  892YOPE   C4A13198   6.456   9.957   6.629 -0.0041  0.0364 -0.1096
  892YOPE   C1B13199   5.902  10.535   6.492  0.1105 -0.1782 -0.0344
  892YOPE   C2B13200   6.070  10.694   6.812 -0.2832  0.1264  0.2144
  892YOPE   D3B13201   6.366  10.514   7.179  0.1295  0.0886  0.2266
  892YOPE   C4B13202   6.485  10.255   7.516 -0.0379  0.1876  0.2343
  893YOPE   NH313203  14.237  11.338   5.919 -0.0130 -0.0956 -0.2199
  893YOPE   PO413204  14.556  10.991   5.792  0.0960  0.0529  0.2789
  893YOPE   GL113205  14.517  10.924   6.298  0.1597 -0.1266 -0.2867
  893YOPE   GL213206  14.507  11.188   6.312  0.2332  0.1483  0.0196
  893YOPE   C1A13207  14.408  10.811   6.714  0.0876 -0.0247 -0.2995
  893YOPE   D2A13208  14.444  10.628   7.059  0.4913 -0.1027 -0.1862
  893YOPE   C3A13209  14.158  10.741   7.366 -0.3822 -0.2348  0.0623
  893YOPE   C4A13210  14.150  10.664   7.712 -0.0952 -0.0118  0.1898
  893YOPE   C1B13211  14.486  11.292   6.704 -0.0480  0.1372  0.5981
  893YOPE   C2B13212  14.445  11.139   7.148  0.1603 -0.2783  0.1504
  893YOPE   D3B13213  14.549  10.964   7.565 -0.0693  0.0578 -0.0812
  893YOPE   C4B13214  14.509  10.974   8.023 -0.0603 -0.2148  0.0018
  894YOPE   NH313215   6.774  11.628   5.286 -0.3650 -0.2104 -0.1226
  894YOPE   PO413216   6.820  11.224   5.258 -0.0603 -0.1143  0.0392
  894YOPE   GL113217   6.608  11.210   5.561 -0.2672  0.0197 -0.2330
  894YOPE   GL213218   6.597  10.853   5.770  0.2681  0.0016 -0.0043
  894YOPE   C1A13219   6.424  11.312   6.036  0.2506 -0.0396  0.1087
  894YOPE   D2A13220   6.055  11.238   6.281  0.0853 -0.5571  0.0232
  894YOPE   C3A13221   6.101  11.171   6.663  0.0686 -0.2567 -0.1255
  894YOPE   C4A13222   6.300  11.327   7.050 -0.5016 -0.0097  0.0706
  894YOPE   C1B13223   6.728  10.900   6.100 -0.3704 -0.0790  0.0719
  894YOPE   C2B13224   7.035  10.719   6.361 -0.1122 -0.1332 -0.1449
  894YOPE   D3B13225   7.165  10.607   6.818 -0.0671 -0.0486 -0.1405
  894YOPE   C4B13226   6.889  10.481   7.104  0.0206  0.2134 -0.1508
  895YOPE   NH313227   4.167  16.504   5.742  0.0414 -0.2954 -0.0048
  895YOPE   PO413228   4.274  16.156   5.517  0.1396 -0.3571  0.1309
  895YOPE   GL113229   4.071  15.908   5.956 -0.2023 -0.0869 -0.0785
  895YOPE   GL213230   3.997  16.256   6.189 -0.0736 -0.1019 -0.1625
  895YOPE   C1A13231   4.067  15.779   6.322  0.1988  0.1510 -0.0326
  895YOPE   D2A13232   4.243  15.864   6.594 -0.5054  0.2762  0.0184
  895YOPE   C3A13233   4.052  15.773   6.998  0.0882  0.0682  0.1569
  895YOPE   C4A13234   3.947  15.851   7.521  0.3635 -0.1435  0.0670
  895YOPE   C1B13235   3.820  16.083   6.639  0.0400 -0.0324 -0.0292
  895YOPE   C2B13236   3.734  16.163   7.158 -0.1783  0.3924  0.2045
  895YOPE   D3B13237   3.984  16.344   7.374 -0.3949  0.3719 -0.1436
  895YOPE   C4B13238   3.955  16.641   7.633  0.0568  0.1341 -0.1512
  896YOPE   NH313239  15.616   3.861   5.518 -0.1652 -0.0070  0.1054
  896YOPE   PO413240  15.909   3.656   5.846  0.0019  0.0642 -0.0191
  896YOPE   GL113241  16.040   3.818   6.247  0.1480 -0.0020 -0.2438
  896YOPE   GL213242  16.353   3.738   6.339  0.0382 -0.1367 -0.0600
  896YOPE   C1A13243  15.940   3.663   6.713  0.0682  0.2152 -0.2664
  896YOPE   D2A13244  15.587   3.522   6.891 -0.0156  0.1186  0.1034
  896YOPE   C3A13245  15.597   3.410   7.324  0.2585  0.0708 -0.0267
  896YOPE   C4A13246  15.444   3.259   7.660  0.1965  0.0028  0.0133
  896YOPE   C1B13247  16.345   3.942   6.803 -0.0326 -0.1684 -0.0736
  896YOPE   C2B13248  16.326   4.079   7.259  0.0831 -0.1302  0.2712
  896YOPE   D3B13249  16.153   3.980   7.600  0.0759 -0.1598 -0.0409
  896YOPE   C4B13250  16.046   3.552   7.771  0.0559 -0.1533  0.2388
  897YOPE   NH313251   1.809   0.394   5.459  0.1869  0.1281  0.0213
  897YOPE   PO413252   1.778   0.765   5.692  0.4298 -0.2476 -0.0141
  897YOPE   GL113253   1.785   0.785   6.072 -0.0908 -0.0318  0.0364
  897YOPE   GL213254   1.718   0.983   6.239  0.0903  0.0049 -0.1059
  897YOPE   C1A13255   1.809   0.459   6.368 -0.1964  0.1213  0.3168
  897YOPE   D2A13256   2.083   0.053   6.387 -0.0290  0.1818 -0.3929
  897YOPE   C3A13257   2.217  -0.223   6.774 -0.1624  0.0795 -0.0033
  897YOPE   C4A13258   2.091  -0.473   7.060  0.1370  0.0738  0.2165
  897YOPE   C1B13259   1.429   1.160   6.552  0.0093  0.2050  0.0269
  897YOPE   C2B13260   1.054   1.178   6.722 -0.0135 -0.0162  0.0610
  897YOPE   D3B13261   1.012   1.275   7.206 -0.2046 -0.0594  0.2003
  897YOPE   C4B13262   0.920   1.423   7.628 -0.1434  0.1133  0.1348
  898YOPE   NH313263   7.180   2.644   5.577 -0.1923 -0.2507  0.0642
  898YOPE   PO413264   7.510   2.828   5.537  0.1323 -0.1137  0.2202
  898YOPE   GL113265   7.375   3.021   5.932 -0.1483 -0.0386 -0.3432
  898YOPE   GL213266   7.008   3.027   5.957  0.1672 -0.2766  0.0112
  898YOPE   C1A13267   7.541   3.354   6.193  0.2040  0.1638  0.1809
  898YOPE   D2A13268   7.570   3.476   6.544  0.2932 -0.0792  0.0116
  898YOPE   C3A13269   7.914   3.461   6.853 -0.1056  0.1132 -0.0582
  898YOPE   C4A13270   8.174   3.224   7.084  0.1432  0.3074  0.2569
  898YOPE   C1B13271   7.067   3.388   6.287 -0.2899  0.1596  0.0092
  898YOPE   C2B13272   7.083   3.703   6.685  0.0873  0.0831 -0.0537
  898YOPE   D3B13273   7.097   3.953   7.054 -0.0835  0.5731 -0.0461
  898YOPE   C4B13274   7.475   3.953   7.400 -0.0150 -0.0166 -0.1532
  899YOPE   NH313275   4.926   6.809   5.377  0.0767  0.1868 -0.3312
  899YOPE   PO413276   5.375   6.804   5.606  0.0995 -0.2935  0.0544
  899YOPE   GL113277   5.365   6.942   6.020  0.0612  0.1743 -0.0360
  899YOPE   GL213278   5.136   6.698   6.042  0.0580 -0.0717  0.3722
  899YOPE   C1A13279   5.638   6.912   6.372  0.0123  0.2045 -0.4598
  899YOPE   D2A13280   5.773   7.039   6.701 -0.2171 -0.0674  0.0630
  899YOPE   C3A13281   5.796   6.760   7.003  0.1680  0.0792  0.0250
  899YOPE   C4A13282   5.846   6.317   7.287 -0.1663 -0.1104 -0.1393
  899YOPE   C1B13283   5.068   6.773   6.416  0.2405 -0.2613  0.1135
  899YOPE   C2B13284   5.240   6.942   6.837  0.1445  0.0921 -0.3596
  899YOPE   D3B13285   4.996   6.879   7.165  0.0468 -0.2718 -0.1507
  899YOPE   C4B13286   4.875   6.620   7.550 -0.1555 -0.0493  0.4853
  900YOPE   NH313287  10.813   5.154   5.565 -0.0198 -0.2477 -0.1964
  900YOPE   PO413288  10.873   4.692   5.444 -0.0388  0.2827  0.2415
  900YOPE   GL113289  11.088   4.491   5.775  0.2484  0.1614 -0.0800
  900YOPE   GL213290  10.821   4.762   5.932  0.4617 -0.4368 -0.3219
  900YOPE   C1A13291  11.276   4.479   6.178 -0.0178 -0.1675 -0.0099
  900YOPE   D2A13292  11.400   4.481   6.608 -0.2054  0.2724  0.4232
  900YOPE   C3A13293  11.193   4.257   7.004  0.0306  0.2171 -0.2112
  900YOPE   C4A13294  10.911   4.113   7.362  0.2109  0.2898 -0.0149
  900YOPE   C1B13295  10.745   4.727   6.419 -0.0814 -0.0682  0.1854
  900YOPE   C2B13296  10.879   4.417   6.573  0.1888 -0.2446  0.2656
  900YOPE   D3B13297  10.904   4.042   6.635 -0.0704 -0.0530  0.3386
  900YOPE   C4B13298  11.090   3.715   6.660  0.1435  0.0969  0.0188
  901YOPE   NH313299   9.629  16.041   5.506 -0.0083 -0.0989 -0.2887
  901YOPE   PO413300   9.852  15.842   5.855 -0.2200 -0.0691  0.1790
  901YOPE   GL113301   9.561  16.034   6.204 -0.2267 -0.1690  0.0016
  901YOPE   GL213302   9.181  16.067   6.331 -0.0763  0.0561  0.2515
  901YOPE   C1A13303   9.542  15.880   6.666 -0.0801  0.0313  0.1580
  901YOPE   D2A13304   9.646  15.627   7.001  0.0055  0.0517 -0.0649
  901YOPE   C3A13305   9.500  15.572   7.386 -0.1070 -0.1209 -0.0329
  901YOPE   C4A13306   9.598  15.471   7.785 -0.0468 -0.1126  0.0314
  901YOPE   C1B13307   9.059  16.146   6.707  0.0201 -0.3677 -0.0519
  901YOPE   C2B13308   8.701  16.001   7.071 -0.0111 -0.0877 -0.0545
  901YOPE   D3B13309   8.341  16.151   7.112  0.0458  0.1525 -0.0181
  901YOPE   C4B13310   8.117  16.457   6.875  0.3394 -0.0958  0.0441
  902YOPE   NH313311  14.814   2.643   5.686 -0.2815 -0.0768  0.0946
  902YOPE   PO413312  14.479   2.387   5.623 -0.3364  0.2102  0.1784
  902YOPE   GL113313  14.097   2.284   5.963 -0.1526 -0.2571 -0.1282
  902YOPE   GL213314  13.811   2.187   5.810  0.1921  0.2651  0.2945
  902YOPE   C1A13315  14.054   2.143   6.326  0.2684 -0.2162 -0.1028
  902YOPE   D2A13316  13.961   2.037   6.774 -0.1506  0.0625  0.1810
  902YOPE   C3A13317  14.242   1.743   7.021  0.0950  0.2455 -0.1412
  902YOPE   C4A13318  14.279   1.932   7.278 -0.0579  0.0414  0.2351
  902YOPE   C1B13319  13.517   2.218   6.240  0.1408  0.1993 -0.0856
  902YOPE   C2B13320  13.542   2.238   6.661 -0.0845  0.0103 -0.1508
  902YOPE   D3B13321  13.551   2.238   7.156  0.0523 -0.0863 -0.4069
  902YOPE   C4B13322  13.394   2.178   7.587 -0.1602 -0.1880  0.0160
  903YOPE   NH313323   4.489  10.401   5.869 -0.3278  0.0204 -0.2674
  903YOPE   PO413324   4.748  10.719   6.048  0.0976  0.1652  0.0456
  903YOPE   GL113325   4.460  10.587   6.348  0.1321 -0.1604 -0.2071
  903YOPE   GL213326   4.192  10.826   6.345 -0.0781  0.1855 -0.0987
  903YOPE   C1A13327   4.432  10.545   6.859 -0.0960 -0.0562 -0.3721
  903YOPE   D2A13328   4.306  10.356   7.254 -0.0045  0.0307  0.2205
  903YOPE   C3A13329   4.156  10.586   7.581  0.1854  0.2306 -0.0684
  903YOPE   C4A13330   4.203  11.007   7.956  0.0035  0.3847  0.0498
  903YOPE   C1B13331   4.165  10.973   6.745 -0.0391 -0.1413  0.1311
  903YOPE   C2B13332   4.314  11.163   7.111 -0.0658  0.0301  0.0301
  903YOPE   D3B13333   4.520  11.509   7.400  0.1861 -0.4213 -0.0328
  903YOPE   C4B13334   4.602  11.639   7.754  0.0736  0.0805 -0.1176
  904YOPE   NH313335   8.659   6.796   6.136  0.0440 -0.1215  0.1997
  904YOPE   PO413336   8.878   6.476   6.121  0.1138 -0.2873 -0.0505
  904YOPE   GL113337   8.845   6.325   6.521  0.1760  0.1688 -0.0108
  904YOPE   GL213338   8.461   6.140   6.579  0.0593 -0.0336 -0.0915
  904YOPE   C1A13339   9.071   6.268   6.966 -0.1567 -0.0572  0.1066
  904YOPE   D2A13340   9.435   6.357   7.236 -0.4364 -0.2587  0.1410
  904YOPE   C3A13341   9.507   6.074   7.631 -0.2167 -0.1151  0.0685
  904YOPE   C4A13342   9.549   6.116   8.105  0.2951 -0.0877  0.2843
  904YOPE   C1B13343   8.372   6.322   6.923 -0.0751 -0.0117  0.0508
  904YOPE   C2B13344   8.226   6.346   7.347 -0.1225 -0.0329  0.2056
  904YOPE   D3B13345   8.426   6.357   7.746 -0.2585 -0.0232  0.0442
  904YOPE   C4B13346   8.760   6.537   7.821  0.0819 -0.0387 -0.2288
  905YOPE   NH313347   6.402  13.515   5.519 -0.0605 -0.1037  0.1364
  905YOPE   PO413348   6.249  13.080   5.586 -0.0935 -0.3995 -0.0667
  905YOPE   GL113349   5.949  13.413   5.748  0.3072  0.0103  0.0301
  905YOPE   GL213350   6.021  13.618   5.838 -0.0234  0.1663 -0.1293
  905YOPE   C1A13351   5.532  13.474   5.874  0.1459 -0.0881  0.0044
  905YOPE   D2A13352   5.334  13.633   6.333  0.2306 -0.2289  0.1255
  905YOPE   C3A13353   5.209  13.370   6.681  0.0533  0.3253 -0.3219
  905YOPE   C4A13354   4.986  12.976   6.866  0.1594  0.1725 -0.1739
  905YOPE   C1B13355   5.840  13.586   6.251 -0.0538  0.1102 -0.4459
  905YOPE   C2B13356   5.745  13.453   6.678 -0.0611 -0.0427 -0.2560
  905YOPE   D3B13357   5.733  13.633   7.060  0.0745 -0.4032  0.1678
  905YOPE   C4B13358   5.611  13.412   7.578 -0.2074 -0.1255 -0.3008
  906YOPE   NH313359   8.480   0.897   5.557  0.1225 -0.1740 -0.2463
  906YOPE   PO413360   8.351   1.321   5.648  0.3653 -0.0255 -0.2448
  906YOPE   GL113361   8.397   1.471   6.062  0.0829 -0.0243 -0.3095
  906YOPE   GL213362   8.165   1.669   6.086 -0.1246  0.3348  0.1850
  906YOPE   C1A13363   8.548   1.435   6.421  0.1167  0.2211  0.2698
  906YOPE   D2A13364   8.801   1.436   6.826  0.2469 -0.0782  0.3117
  906YOPE   C3A13365   8.839   1.150   7.213 -0.0305 -0.2410  0.0701
  906YOPE   C4A13366   8.726   1.152   7.558 -0.2158 -0.1670  0.3413
  906YOPE   C1B13367   8.098   1.730   6.549 -0.0908  0.0456  0.0096
  906YOPE   C2B13368   8.200   1.662   6.915  0.0358 -0.1356  0.0420
  906YOPE   D3B13369   8.486   1.553   7.319 -0.1633 -0.3807 -0.2034
  906YOPE   C4B13370   8.604   1.641   7.729 -0.2525  0.3239  0.1745
  907YOPE   NH313371  17.340  17.144   5.745 -0.0041  0.0012 -0.0563
  907YOPE   PO413372  17.313  17.350   6.117  0.0899 -0.1779 -0.2154
  907YOPE   GL113373  17.145  17.482   6.406 -0.1573 -0.1560 -0.4395
  907YOPE   GL213374  16.736  17.452   6.370  0.1226  0.2269  0.3335
  907YOPE   C1A13375  16.995  17.580   6.902 -0.1513 -0.0107  0.0191
  907YOPE   D2A13376  16.845  17.797   7.270 -0.0214 -0.2944 -0.0183
  907YOPE   C3A13377  16.609  17.867   7.675  0.2242 -0.3202  0.0348
  907YOPE   C4A13378  16.160  17.921   7.838 -0.0449  0.0232 -0.3712
  907YOPE   C1B13379  16.455  17.502   6.738 -0.1068 -0.2295  0.1909
  907YOPE   C2B13380  16.309  17.446   7.158 -0.5758 -0.0559  0.3945
  907YOPE   D3B13381  16.207  17.509   7.568 -0.2453  0.0589  0.2415
  907YOPE   C4B13382  15.914  17.402   8.007  0.0297  0.1442  0.0391
  908YOPE   NH313383   9.800  15.452   5.533 -0.4596 -0.0235  0.3680
  908YOPE   PO413384   9.404  15.544   5.675  0.1045 -0.2054  0.2686
  908YOPE   GL113385   9.018  15.490   5.866  0.0623 -0.0118 -0.1384
  908YOPE   GL213386   9.103  15.330   6.189  0.2344 -0.0133  0.1370
  908YOPE   C1A13387   8.566  15.439   6.167 -0.2708 -0.1426  0.0491
  908YOPE   D2A13388   8.273  15.539   6.559  0.3212  0.4830 -0.0224
  908YOPE   C3A13389   8.419  15.611   6.934  0.1025 -0.2729 -0.0568
  908YOPE   C4A13390   8.377  15.674   7.344 -0.0156  0.2234 -0.1073
  908YOPE   C1B13391   9.110  15.562   6.551  0.1682  0.1321  0.2354
  908YOPE   C2B13392   9.032  15.595   6.981 -0.1498 -0.0003 -0.0429
  908YOPE   D3B13393   9.011  15.726   7.424 -0.3151 -0.0031  0.0170
  908YOPE   C4B13394   8.767  16.043   7.523 -0.0457  0.1525  0.1398
  909YOPE   NH313395  12.792   7.189   5.538 -0.1062 -0.0585 -0.0125
  909YOPE   PO413396  12.836   6.778   5.434 -0.1812  0.0716 -0.0734
  909YOPE   GL113397  12.923   6.748   5.869 -0.0866 -0.2072  0.1189
  909YOPE   GL213398  12.753   6.778   6.102 -0.0182  0.2581  0.0210
  909YOPE   C1A13399  13.197   6.652   6.247 -0.2716  0.2540  0.1974
  909YOPE   D2A13400  13.578   6.570   6.377  0.1512  0.0384 -0.1408
  909YOPE   C3A13401  13.740   6.514   6.786 -0.1597  0.1333 -0.0898
  909YOPE   C4A13402  14.006   6.558   7.120  0.2330 -0.2574  0.2212
  909YOPE   C1B13403  12.841   6.721   6.548 -0.0936 -0.1176  0.1490
  909YOPE   C2B13404  12.824   6.847   6.979  0.1921 -0.2594 -0.0194
  909YOPE   D3B13405  13.202   6.862   7.310 -0.0375  0.3634  0.1219
  909YOPE   C4B13406  13.590   7.056   7.461  0.1059  0.0443 -0.0193
  910YOPE   NH313407  14.610   6.919   5.510  0.3507  0.2017 -0.2880
  910YOPE   PO413408  14.892   7.322   5.645  0.2267 -0.2799  0.1951
  910YOPE   GL113409  14.995   6.876   5.802  0.0828  0.0173  0.3387
  910YOPE   GL213410  15.286   6.862   6.032  0.3377 -0.2628 -0.3651
  910YOPE   C1A13411  14.859   6.887   6.289 -0.1403  0.0183 -0.0627
  910YOPE   D2A13412  14.857   6.790   6.783 -0.1000 -0.0801  0.3483
  910YOPE   C3A13413  15.205   6.782   7.020 -0.0221  0.3513  0.2751
  910YOPE   C4A13414  15.727   6.781   6.984  0.1092 -0.1403 -0.2769
  910YOPE   C1B13415  15.314   6.745   6.420  0.0722  0.0860 -0.3097
  910YOPE   C2B13416  15.401   6.434   6.765 -0.0518  0.0063  0.0875
  910YOPE   D3B13417  15.377   6.359   7.189 -0.2050 -0.0098  0.2590
  910YOPE   C4B13418  15.325   6.321   7.651 -0.2384 -0.3804  0.0966
  911YOPE   NH313419   7.047   0.138   5.992  0.0914 -0.0091  0.3473
  911YOPE   PO413420   7.034  -0.271   6.055 -0.1376  0.1770 -0.0242
  911YOPE   GL113421   6.966  -0.194   6.388  0.1660 -0.2880  0.2791
  911YOPE   GL213422   6.657  -0.228   6.635  0.2552 -0.2596  0.0018
  911YOPE   C1A13423   7.208  -0.249   6.761  0.1599  0.3642  0.1288
  911YOPE   D2A13424   7.710  -0.136   6.865 -0.0601  0.0807  0.1384
  911YOPE   C3A13425   7.819  -0.104   7.298  0.1341  0.2527 -0.1568
  911YOPE   C4A13426   8.276  -0.026   7.446 -0.1815 -0.0821  0.1729
  911YOPE   C1B13427   6.521   0.113   6.908 -0.1827 -0.4278  0.1919
  911YOPE   C2B13428   6.353   0.226   7.248 -0.0432 -0.0808 -0.0354
  911YOPE   D3B13429   6.505   0.079   7.632 -0.3986 -0.1358 -0.0145
  911YOPE   C4B13430   6.244  -0.138   7.949  0.1427  0.1184 -0.1956
  912YOPE   NH313431  10.778   5.731   5.735  0.3877  0.0789 -0.4241
  912YOPE   PO413432  11.131   5.348   5.887  0.4611 -0.1496 -0.0830
  912YOPE   GL113433  11.400   5.496   6.161  0.1222  0.1462 -0.2336
  912YOPE   GL213434  11.632   5.674   6.213  0.0297  0.0044  0.3345
  912YOPE   C1A13435  11.487   5.395   6.636  0.1079  0.1742  0.2457
  912YOPE   D2A13436  11.567   5.324   7.027 -0.0035  0.0163 -0.0807
  912YOPE   C3A13437  11.615   4.939   7.302 -0.0020 -0.0855  0.2125
  912YOPE   C4A13438  11.484   4.559   7.559 -0.1146  0.2179  0.0633
  912YOPE   C1B13439  11.749   5.781   6.575  0.1981 -0.0674  0.1633
  912YOPE   C2B13440  11.699   6.033   7.036  0.1635 -0.2113 -0.1405
  912YOPE   D3B13441  11.886   6.061   7.470  0.2377 -0.0959  0.2153
  912YOPE   C4B13442  11.656   6.188   7.797  0.0454  0.3952  0.1774
  913YOPE   NH313443   7.370   5.437   5.630 -0.1189  0.3359  0.2080
  913YOPE   PO413444   7.651   5.309   5.980  0.3508  0.0268  0.0501
  913YOPE   GL113445   7.616   5.421   6.366 -0.0807  0.1255  0.4008
  913YOPE   GL213446   7.375   5.667   6.393 -0.1553 -0.3760  0.1740
  913YOPE   C1A13447   7.851   5.267   6.672  0.0981  0.3530  0.0550
  913YOPE   D2A13448   7.977   5.237   7.073 -0.0869  0.2080 -0.0046
  913YOPE   C3A13449   8.009   4.989   7.407  0.0943  0.2137  0.1536
  913YOPE   C4A13450   8.325   4.787   7.735  0.3486 -0.1949 -0.0791
  913YOPE   C1B13451   7.565   5.568   6.852 -0.2573 -0.3903  0.1696
  913YOPE   C2B13452   7.618   5.450   7.344 -0.1493 -0.1089  0.1508
  913YOPE   D3B13453   8.026   5.440   7.699  0.1054 -0.3120 -0.0950
  913YOPE   C4B13454   8.045   5.115   8.017  0.1333  0.1612 -0.1150
  914YOPE   NH313455  16.500   5.304   5.663 -0.2524  0.1423  0.1382
  914YOPE   PO413456  16.216   4.969   5.683 -0.1076 -0.1373 -0.0737
  914YOPE   GL113457  16.119   5.141   6.076 -0.1146  0.2205  0.1705
  914YOPE   GL213458  16.166   4.956   6.278 -0.1152 -0.0082 -0.0338
  914YOPE   C1A13459  15.802   5.238   6.438  0.2068 -0.0572 -0.2077
  914YOPE   D2A13460  15.716   5.643   6.724 -0.2401 -0.1476 -0.0657
  914YOPE   C3A13461  15.764   5.585   7.143  0.2285 -0.0394  0.0002
  914YOPE   C4A13462  15.487   5.425   7.273  0.0550 -0.1427  0.1737
  914YOPE   C1B13463  16.222   4.830   6.736  0.0745 -0.1384 -0.1999
  914YOPE   C2B13464  16.232   4.682   7.078  0.3293 -0.0105 -0.0399
  914YOPE   D3B13465  16.139   4.858   7.491  0.0029  0.0347  0.1940
  914YOPE   C4B13466  16.201   4.844   7.886  0.1031  0.0115  0.1711
  915YOPE   NH313467   3.668  15.642   5.716  0.2532 -0.0577 -0.2993
  915YOPE   PO413468   3.943  15.390   5.738 -0.0069  0.1445  0.2367
  915YOPE   GL113469   4.201  15.264   6.129 -0.2587  0.0088 -0.2895
  915YOPE   GL213470   4.047  14.999   6.137  0.0056 -0.0693 -0.0753
  915YOPE   C1A13471   4.099  15.364   6.627 -0.2950 -0.1079  0.0344
  915YOPE   D2A13472   4.211  15.300   7.078 -0.0374  0.3587  0.0607
  915YOPE   C3A13473   3.928  15.391   7.433 -0.1586 -0.0819 -0.2618
  915YOPE   C4A13474   3.690  15.080   7.575  0.0589  0.0929 -0.0009
  915YOPE   C1B13475   4.218  14.901   6.469 -0.1828  0.1413 -0.1697
  915YOPE   C2B13476   4.385  14.646   6.833 -0.0195  0.2086  0.1935
  915YOPE   D3B13477   4.331  14.705   7.254  0.1883 -0.4286  0.1823
  915YOPE   C4B13478   4.499  14.569   7.655  0.0545  0.1893  0.3880
  916YOPE   NH313479   6.056   7.890   5.683  0.1772  0.0349  0.2104
  916YOPE   PO413480   5.680   7.582   5.496 -0.3576 -0.1170  0.0342
  916YOPE   GL113481   5.825   7.430   5.902 -0.1260  0.2749  0.1624
  916YOPE   GL213482   5.549   7.436   6.156 -0.1915 -0.2238 -0.2455
  916YOPE   C1A13483   6.037   7.291   6.235 -0.1638  0.4179  0.2374
  916YOPE   D2A13484   6.278   7.154   6.689 -0.1568 -0.0444 -0.0447
  916YOPE   C3A13485   6.178   7.213   7.097  0.3237  0.0972  0.0875
  916YOPE   C4A13486   6.071   7.283   7.463 -0.2122  0.0090 -0.3034
  916YOPE   C1B13487   5.242   7.311   6.450  0.2702  0.0289 -0.1989
  916YOPE   C2B13488   5.107   7.530   6.806 -0.0378 -0.0221  0.2751
  916YOPE   D3B13489   4.764   7.387   7.142  0.3703 -0.0018  0.0323
  916YOPE   C4B13490   4.520   7.103   7.353 -0.2668  0.2937  0.0985
  917YOPE   NH313491   3.672  13.614   5.493  0.0837  0.0649 -0.3400
  917YOPE   PO413492   4.151  13.421   5.442 -0.0161  0.4313  0.1522
  917YOPE   GL113493   4.195  13.565   5.804  0.0648 -0.1475 -0.3745
  917YOPE   GL213494   4.459  13.343   5.951  0.1564 -0.1756 -0.0528
  917YOPE   C1A13495   3.957  13.949   6.086  0.0487  0.0449  0.1035
  917YOPE   D2A13496   3.858  14.004   6.426 -0.1126 -0.0702 -0.0536
  917YOPE   C3A13497   3.765  13.882   6.757  0.3873 -0.0801 -0.1452
  917YOPE   C4A13498   3.360  13.701   6.946  0.0090 -0.3618 -0.0357
  917YOPE   C1B13499   4.318  13.470   6.432  0.0617 -0.2968  0.1863
  917YOPE   C2B13500   4.255  13.680   6.750 -0.1019  0.0910  0.3255
  917YOPE   D3B13501   4.105  13.789   7.132 -0.4328 -0.1655 -0.2693
  917YOPE   C4B13502   3.798  13.941   7.381 -0.0030 -0.1784  0.1394
  918YOPE   NH313503  10.164  11.640   6.089 -0.0094  0.0699  0.2034
  918YOPE   PO413504   9.930  11.209   6.109 -0.1266 -0.0316  0.1749
  918YOPE   GL113505   9.746  11.426   6.350 -0.1814 -0.1399  0.0440
  918YOPE   GL213506   9.888  11.290   6.657 -0.1011 -0.4031  0.2571
  918YOPE   C1A13507   9.537  11.692   6.680  0.1676  0.0285  0.0288
  918YOPE   D2A13508   9.417  12.012   6.874 -0.2961  0.2495 -0.2235
  918YOPE   C3A13509   9.444  12.157   7.318  0.1579  0.0921  0.1775
  918YOPE   C4A13510   9.827  12.038   7.616 -0.3061  0.1072 -0.1280
  918YOPE   C1B13511  10.042  11.409   7.057  0.3604 -0.0595 -0.0219
  918YOPE   C2B13512   9.973  11.495   7.452 -0.0091  0.0977  0.1771
  918YOPE   D3B13513  10.090  11.668   7.877  0.1674  0.1202 -0.2460
  918YOPE   C4B13514  10.414  11.861   8.101 -0.1006 -0.0387  0.0275
  919YOPE   NH313515  17.990   5.962   5.890 -0.1278 -0.2825  0.1933
  919YOPE   PO413516  18.163   6.310   5.666 -0.1682 -0.2021 -0.2626
  919YOPE   GL113517  18.427   6.343   6.049  0.0713  0.2212 -0.3219
  919YOPE   GL213518  18.221   6.577   6.211 -0.0923 -0.0141 -0.3857
  919YOPE   C1A13519  18.567   6.189   6.406 -0.2847  0.0267  0.0116
  919YOPE   D2A13520  18.778   6.247   6.843  0.2037  0.2249 -0.0468
  919YOPE   C3A13521  18.719   5.889   6.999  0.0090  0.0432  0.1662
  919YOPE   C4A13522  18.795   5.767   7.358  0.0941 -0.0717 -0.0150
  919YOPE   C1B13523  18.343   6.566   6.681  0.1904 -0.1177 -0.0475
  919YOPE   C2B13524  18.507   6.757   7.073  0.1489 -0.0141  0.2646
  919YOPE   D3B13525  18.274   7.091   7.255  0.5194 -0.0341 -0.0269
  919YOPE   C4B13526  18.454   7.172   7.713 -0.1559  0.1061  0.1393
  920YOPE   NH313527  16.630   7.235   5.823 -0.2821  0.1149 -0.2224
  920YOPE   PO413528  16.207   7.127   5.755 -0.1588  0.2119 -0.1331
  920YOPE   GL113529  16.023   7.037   6.108  0.1769 -0.3252  0.1321
  920YOPE   GL213530  15.912   7.324   6.133  0.0632 -0.2095 -0.1455
  920YOPE   C1A13531  16.247   6.610   6.275  0.0432  0.3355  0.3864
  920YOPE   D2A13532  16.389   6.305   6.533 -0.1148  0.0660  0.1586
  920YOPE   C3A13533  16.456   6.354   6.968 -0.0155  0.2739  0.1160
  920YOPE   C4A13534  16.796   6.464   7.330  0.0453  0.2203 -0.4279
  920YOPE   C1B13535  15.597   7.212   6.397  0.0646  0.1414 -0.0677
  920YOPE   C2B13536  15.542   7.074   6.708  0.3197 -0.1752 -0.2799
  920YOPE   D3B13537  15.509   7.226   7.072  0.0289  0.0646 -0.3199
  920YOPE   C4B13538  15.592   7.594   7.327  0.2761 -0.1525  0.1866
  921YOPE   NH313539   7.852  15.375   5.232  0.2976  0.0366 -0.1371
  921YOPE   PO413540   7.853  14.921   5.500 -0.0473 -0.2346  0.1471
  921YOPE   GL113541   7.673  14.732   5.828 -0.1853  0.0138 -0.2634
  921YOPE   GL213542   7.478  14.467   5.840  0.2484 -0.1419  0.1275
  921YOPE   C1A13543   7.819  14.593   6.338 -0.3320 -0.1025  0.1595
  921YOPE   D2A13544   7.947  14.606   6.748 -0.1025  0.1691  0.0120
  921YOPE   C3A13545   7.911  14.925   6.990 -0.0549  0.0173 -0.2427
  921YOPE   C4A13546   7.978  15.333   7.144 -0.1882 -0.1726  0.0551
  921YOPE   C1B13547   7.464  14.220   6.178  0.3381 -0.0311  0.0961
  921YOPE   C2B13548   7.206  14.168   6.555 -0.1839 -0.1163 -0.1637
  921YOPE   D3B13549   7.185  14.132   7.018  0.0767 -0.1958 -0.0107
  921YOPE   C4B13550   7.051  14.229   7.502  0.3101  0.2478 -0.1722
  922YOPE   NH313551   8.321   4.234   5.583  0.1614 -0.0974 -0.0088
  922YOPE   PO413552   8.602   4.486   5.778  0.3078 -0.0157 -0.1661
  922YOPE   GL113553   8.361   4.602   6.199 -0.0826 -0.0997 -0.1711
  922YOPE   GL213554   8.098   4.600   6.138  0.0096 -0.0449 -0.5949
  922YOPE   C1A13555   8.404   4.389   6.626 -0.4359 -0.0483 -0.0001
  922YOPE   D2A13556   8.483   4.291   7.082  0.1091 -0.1256 -0.3119
  922YOPE   C3A13557   8.155   4.488   7.368  0.0274  0.1795 -0.1415
  922YOPE   C4A13558   7.839   4.542   7.726 -0.3696  0.0866  0.0488
  922YOPE   C1B13559   7.906   4.577   6.590 -0.1405 -0.0077 -0.1633
  922YOPE   C2B13560   7.676   4.806   6.828  0.1367  0.1382 -0.0617
  922YOPE   D3B13561   7.468   5.079   7.054  0.0449 -0.1344 -0.1977
  922YOPE   C4B13562   7.153   5.360   7.120  0.0459 -0.0636 -0.0707
  923YOPE   NH313563   1.018  12.547   5.992  0.0037 -0.2689  0.2871
  923YOPE   PO413564   1.360  12.608   6.201 -0.0787 -0.0650 -0.0647
  923YOPE   GL113565   1.407  12.886   6.555  0.3317 -0.4560  0.0066
  923YOPE   GL213566   1.117  12.829   6.712 -0.1824 -0.0594  0.1150
  923YOPE   C1A13567   1.474  12.926   7.018 -0.1342 -0.1010  0.0030
  923YOPE   D2A13568   1.356  12.976   7.550 -0.1182 -0.0643 -0.0335
  923YOPE   C3A13569   1.443  13.027   7.985  0.1757 -0.0190  0.0061
  923YOPE   C4A13570   1.237  12.912   8.400 -0.2239  0.1403 -0.0423
  923YOPE   C1B13571   0.987  12.859   7.179 -0.2018 -0.3939 -0.0553
  923YOPE   C2B13572   0.722  13.095   7.387  0.4559  0.0049  0.1327
  923YOPE   D3B13573   0.334  13.129   7.334  0.0963 -0.0176 -0.4283
  923YOPE   C4B13574   0.146  13.087   6.913 -0.0930 -0.0857 -0.1127
  924YOPE   NH313575   0.036   6.640   5.674 -0.0195 -0.2114 -0.0626
  924YOPE   PO413576   0.585   6.579   5.576 -0.2358 -0.0263  0.1507
  924YOPE   GL113577   0.462   6.475   5.942 -0.2991  0.0355 -0.0692
  924YOPE   GL213578   0.298   6.725   6.115 -0.1417  0.0600  0.1087
  924YOPE   C1A13579   0.575   6.312   6.355  0.1772  0.2296  0.2200
  924YOPE   D2A13580   0.704   6.058   6.604 -0.2830  0.1461  0.5338
  924YOPE   C3A13581   0.760   6.129   7.035  0.1330  0.0025 -0.2148
  924YOPE   C4A13582   0.974   5.978   7.243  0.0913 -0.1296 -0.0897
  924YOPE   C1B13583   0.383   6.762   6.591 -0.1961 -0.3118 -0.2853
  924YOPE   C2B13584   0.515   6.709   7.044  0.0843  0.0832  0.1480
  924YOPE   D3B13585   0.697   6.853   7.383  0.0579  0.1206  0.2607
  924YOPE   C4B13586   0.762   7.154   7.734 -0.0151 -0.2599 -0.1636
  925YOPE   NH313587  10.965  13.636   6.035  0.1516  0.3515 -0.0789
  925YOPE   PO413588  11.386  13.618   6.177  0.1570 -0.2868 -0.2816
  925YOPE   GL113589  11.439  13.530   6.610  0.0971  0.1293  0.6803
  925YOPE   GL213590  11.324  13.189   6.733 -0.1630  0.1958  0.1008
  925YOPE   C1A13591  11.474  13.639   7.010  0.2283 -0.0553 -0.2136
  925YOPE   D2A13592  11.397  13.587   7.503  0.0121  0.1281 -0.1975
  925YOPE   C3A13593  11.103  13.630   7.830 -0.0566 -0.0638  0.1004
  925YOPE   C4A13594  10.693  13.578   8.027 -0.2958  0.0061  0.0326
  925YOPE   C1B13595  11.304  13.155   7.224  0.2917 -0.2820  0.1088
  925YOPE   C2B13596  11.089  13.185   7.611  0.1488 -0.2411 -0.2275
  925YOPE   D3B13597  10.797  13.106   8.028  0.1971 -0.0531 -0.0006
  925YOPE   C4B13598  10.935  13.117   8.524  0.0219  0.1270 -0.0522
  926YOPE   NH313599  12.538  14.203   6.008 -0.0004  0.3794 -0.0514
  926YOPE   PO413600  12.215  14.212   6.372 -0.1419 -0.2678  0.1987
  926YOPE   GL113601  12.103  14.067   6.795  0.1113  0.0414  0.0954
  926YOPE   GL213602  11.986  13.747   6.723  0.1780  0.2394  0.0625
  926YOPE   C1A13603  12.041  14.230   7.232 -0.0261  0.0366 -0.0031
  926YOPE   D2A13604  12.216  14.237   7.643  0.2533 -0.0755 -0.0578
  926YOPE   C3A13605  12.303  13.985   7.933  0.0763 -0.0248  0.2864
  926YOPE   C4A13606  12.395  13.964   8.399  0.0795  0.2333  0.0400
  926YOPE   C1B13607  11.942  13.713   7.147 -0.2335 -0.0468  0.3874
  926YOPE   C2B13608  11.961  13.765   7.529 -0.1737 -0.0310  0.3506
  926YOPE   D3B13609  11.790  13.804   7.933 -0.1401  0.3419  0.0719
  926YOPE   C4B13610  11.815  13.732   8.409  0.1778 -0.0448 -0.3492
  927YOPE   NH313611  17.065   6.561   5.330  0.1044 -0.0768  0.0983
  927YOPE   PO413612  16.805   6.339   5.540  0.1233 -0.0250 -0.0915
  927YOPE   GL113613  16.805   6.338   6.092  0.3214  0.0300  0.0938
  927YOPE   GL213614  16.784   6.551   6.326 -0.0701  0.0501 -0.2641
  927YOPE   C1A13615  16.840   6.077   6.454 -0.2009 -0.1025 -0.2411
  927YOPE   D2A13616  16.681   5.907   6.766  0.3561 -0.2317 -0.1413
  927YOPE   C3A13617  16.842   5.496   7.002  0.3060 -0.0078  0.2109
  927YOPE   C4A13618  16.846   5.284   7.426  0.1849 -0.0984 -0.1666
  927YOPE   C1B13619  16.900   6.458   6.765 -0.1630  0.0619 -0.0792
  927YOPE   C2B13620  17.253   6.425   7.106 -0.1248 -0.0680  0.0459
  927YOPE   D3B13621  17.681   6.375   7.375  0.0316 -0.0179  0.0811
  927YOPE   C4B13622  18.007   6.151   7.497 -0.0090 -0.0102 -0.0666
  928YOPE   NH313623  18.070  12.188   5.956 -0.0892  0.0033  0.2652
  928YOPE   PO413624  18.484  12.330   5.991  0.1195 -0.1941  0.1253
  928YOPE   GL113625  18.441  12.083   6.283 -0.2253  0.3728  0.1380
  928YOPE   GL213626  18.226  11.841   6.261 -0.0226 -0.2348 -0.0802
  928YOPE   C1A13627  18.501  12.006   6.710  0.0650  0.0108  0.1885
  928YOPE   D2A13628  18.520  12.160   7.141  0.1019  0.0220  0.2924
  928YOPE   C3A13629  18.375  11.910   7.412  0.1025 -0.0102 -0.1894
  928YOPE   C4A13630  18.192  11.513   7.676  0.0590 -0.0369 -0.0813
  928YOPE   C1B13631  18.084  11.728   6.647 -0.0123  0.1366  0.0670
  928YOPE   C2B13632  18.156  11.316   6.858 -0.2698  0.1795  0.0252
  928YOPE   D3B13633  18.445  10.994   7.037  0.0556 -0.1053 -0.0615
  928YOPE   C4B13634  18.685  10.714   7.173  0.1220 -0.2812  0.2300
  929YOPE   NH313635  12.890   4.807   5.502  0.1338 -0.1089 -0.0735
  929YOPE   PO413636  13.022   4.335   5.522 -0.1145  0.2182 -0.0940
  929YOPE   GL113637  12.869   4.098   5.920 -0.0519  0.0754 -0.1678
  929YOPE   GL213638  13.086   3.791   5.998  0.1020 -0.0244 -0.0709
  929YOPE   C1A13639  12.651   3.950   6.214  0.0080 -0.1960 -0.1710
  929YOPE   D2A13640  12.176   3.845   6.232  0.1039 -0.1177 -0.1729
  929YOPE   C3A13641  11.952   3.910   6.677  0.1010  0.0514  0.1297
  929YOPE   C4A13642  12.163   3.722   7.113 -0.5037  0.1426  0.0708
  929YOPE   C1B13643  13.123   3.880   6.370 -0.0488  0.0542  0.0397
  929YOPE   C2B13644  12.889   3.929   6.736  0.1302 -0.0204  0.0155
  929YOPE   D3B13645  12.590   3.942   7.084 -0.0691 -0.2157 -0.1810
  929YOPE   C4B13646  12.493   3.936   7.505 -0.0856 -0.3587 -0.2198
  930YOPE   NH313647  16.830  15.559   5.384 -0.1165  0.1529  0.0409
  930YOPE   PO413648  16.502  15.542   5.848 -0.1221 -0.1158  0.0761
  930YOPE   GL113649  16.255  15.783   6.213 -0.1192  0.0620 -0.1594
  930YOPE   GL213650  16.315  16.095   6.382  0.1220 -0.0116  0.2052
  930YOPE   C1A13651  16.111  15.664   6.592  0.1108  0.0266  0.0229
  930YOPE   D2A13652  16.002  15.624   6.965 -0.2162 -0.1906  0.0995
  930YOPE   C3A13653  16.226  15.623   7.325  0.5539 -0.1914 -0.0503
  930YOPE   C4A13654  16.521  15.600   7.669  0.0399 -0.4593 -0.1082
  930YOPE   C1B13655  16.285  16.108   6.825 -0.0409 -0.3099  0.3151
  930YOPE   C2B13656  16.063  16.060   7.149 -0.1283 -0.2191  0.3447
  930YOPE   D3B13657  15.707  16.266   7.509 -0.2546 -0.1631 -0.2119
  930YOPE   C4B13658  15.597  16.444   7.968 -0.0598 -0.0225  0.2593
  931YOPE   NH313659   2.511  10.862   5.852  0.1797  0.0516 -0.0831
  931YOPE   PO413660   2.884  11.037   5.885 -0.0432 -0.3964  0.2044
  931YOPE   GL113661   2.546  11.220   6.195  0.0915 -0.2542 -0.1024
  931YOPE   GL213662   2.657  11.588   6.151 -0.3543  0.2416 -0.0717
  931YOPE   C1A13663   2.554  11.130   6.625 -0.1636 -0.2468 -0.0660
  931YOPE   D2A13664   2.495  11.068   7.055  0.1794  0.0253  0.0029
  931YOPE   C3A13665   2.706  11.418   7.328  0.0414  0.2159 -0.1952
  931YOPE   C4A13666   3.045  11.596   7.479 -0.1063 -0.1488 -0.0707
  931YOPE   C1B13667   2.971  11.462   6.451 -0.1885 -0.1081  0.1195
  931YOPE   C2B13668   3.058  11.775   6.721 -0.0611 -0.2020  0.3689
  931YOPE   D3B13669   2.831  11.924   7.147 -0.2488  0.1274  0.2358
  931YOPE   C4B13670   2.706  11.971   7.597 -0.0491 -0.0614  0.4262
  932YOPE   NH313671  10.208   2.910   5.098  0.0374  0.3703 -0.0830
  932YOPE   PO413672  10.509   3.069   5.360  0.0617  0.2460  0.0665
  932YOPE   GL113673  10.589   2.976   5.741 -0.1951 -0.1556 -0.1828
  932YOPE   GL213674  10.579   3.199   5.917  0.2257 -0.3340  0.0861
  932YOPE   C1A13675  10.330   2.871   6.157 -0.1924 -0.5545  0.0632
  932YOPE   D2A13676  10.426   2.673   6.574 -0.1728 -0.1045 -0.0652
  932YOPE   C3A13677  10.343   2.722   7.008  0.1822 -0.0979  0.0160
  932YOPE   C4A13678  10.245   2.565   7.438  0.0618  0.0586 -0.0502
  932YOPE   C1B13679  10.754   3.206   6.288  0.2642  0.2478 -0.1352
  932YOPE   C2B13680  10.781   3.016   6.720  0.0250  0.3084  0.0610
  932YOPE   D3B13681  10.856   2.606   6.979 -0.5988  0.2464  0.1117
  932YOPE   C4B13682  11.156   2.553   7.401 -0.0674  0.0080  0.1084
  933YOPE   NH313683   0.919   6.921   5.522  0.0173 -0.1284  0.1539
  933YOPE   PO413684   1.194   6.587   5.356 -0.1326 -0.0735  0.0543
  933YOPE   GL113685   1.472   6.752   5.649 -0.2078  0.0319 -0.0353
  933YOPE   GL213686   1.271   6.956   5.907 -0.3032  0.0934  0.2666
  933YOPE   C1A13687   1.785   6.770   5.987 -0.2706  0.0658 -0.2049
  933YOPE   D2A13688   2.021   6.463   6.266 -0.3703  0.1171  0.3752
  933YOPE   C3A13689   1.879   6.319   6.578  0.2183 -0.1590 -0.3998
  933YOPE   C4A13690   1.838   6.200   6.979 -0.1044  0.1926 -0.2153
  933YOPE   C1B13691   1.188   7.060   6.334 -0.0146  0.2256 -0.2063
  933YOPE   C2B13692   1.261   7.050   6.700  0.0156 -0.1984  0.1145
  933YOPE   D3B13693   1.178   7.121   7.076  0.0140  0.0823  0.4125
  933YOPE   C4B13694   1.255   7.089   7.600  0.1192  0.0850  0.0185
  934YOPE   NH313695  16.366   3.622   5.746 -0.1204 -0.1240  0.0669
  934YOPE   PO413696  16.218   3.247   6.030 -0.2698  0.0976 -0.1087
  934YOPE   GL113697  16.240   3.305   6.444 -0.2761  0.0712  0.1601
  934YOPE   GL213698  16.544   3.092   6.451  0.0561 -0.2580 -0.2958
  934YOPE   C1A13699  16.424   3.413   6.797 -0.1389  0.0586  0.0073
  934YOPE   D2A13700  16.584   3.603   7.211  0.0017 -0.0496  0.2382
  934YOPE   C3A13701  16.562   3.637   7.638  0.0672 -0.1941  0.0122
  934YOPE   C4A13702  16.715   3.965   7.786 -0.0444  0.2338  0.1589
  934YOPE   C1B13703  16.836   3.154   6.826  0.0137 -0.7303  0.0400
  934YOPE   C2B13704  16.880   2.938   7.140  0.0134 -0.1601 -0.2954
  934YOPE   D3B13705  16.806   3.209   7.546 -0.1783 -0.0558  0.0676
  934YOPE   C4B13706  16.736   3.226   7.930  0.1058 -0.2278 -0.0190
  935YOPE   NH313707  10.496  13.661   5.796  0.1864 -0.1866 -0.2838
  935YOPE   PO413708  10.724  14.051   6.111  0.5542 -0.0039  0.4030
  935YOPE   GL113709  10.561  13.980   6.538 -0.0047  0.4746  0.0959
  935YOPE   GL213710  10.678  13.612   6.463  0.2052  0.1117 -0.0569
  935YOPE   C1A13711  10.563  13.841   6.941 -0.1822  0.2276  0.1579
  935YOPE   D2A13712  10.523  13.821   7.339  0.4730 -0.2644  0.1493
  935YOPE   C3A13713  10.377  14.149   7.549 -0.3574 -0.0092 -0.1628
  935YOPE   C4A13714  10.094  14.150   7.749 -0.1327  0.2408  0.2163
  935YOPE   C1B13715  10.964  13.544   6.822 -0.1264  0.0834 -0.0911
  935YOPE   C2B13716  10.890  13.517   7.252 -0.0307  0.0888 -0.0897
  935YOPE   D3B13717  10.614  13.394   7.609 -0.0342  0.0212  0.0772
  935YOPE   C4B13718  10.341  13.209   7.845  0.3975 -0.1402 -0.1693
  936YOPE   NH313719  17.224  16.210   5.916  0.0720  0.1088 -0.1868
  936YOPE   PO413720  16.918  15.895   5.812 -0.2719 -0.0423  0.4220
  936YOPE   GL113721  16.843  15.651   6.232  0.0951  0.1495  0.0089
  936YOPE   GL213722  17.114  15.631   6.271  0.1368  0.0045  0.1283
  936YOPE   C1A13723  16.603  15.690   6.574  0.2184 -0.1494  0.2030
  936YOPE   D2A13724  16.490  15.575   6.905  0.1184 -0.0992  0.0612
  936YOPE   C3A13725  16.781  15.619   7.290 -0.1008 -0.0555 -0.0496
  936YOPE   C4A13726  16.997  15.768   7.592  0.1471 -0.1067  0.0668
  936YOPE   C1B13727  17.114  15.568   6.683 -0.1072  0.0506 -0.1143
  936YOPE   C2B13728  17.187  15.662   7.006  0.1522 -0.0425 -0.1711
  936YOPE   D3B13729  17.399  15.730   7.365 -0.0895  0.0688 -0.0479
  936YOPE   C4B13730  17.523  15.725   7.840 -0.0361  0.1237 -0.0864
  937YOPE   NH313731  13.747   4.822   5.052  0.0708 -0.1259  0.1564
  937YOPE   PO413732  13.878   4.691   5.474 -0.1126  0.1527  0.2367
  937YOPE   GL113733  13.535   4.810   5.775  0.1532 -0.2221  0.1492
  937YOPE   GL213734  13.211   4.749   5.865  0.0027  0.0628  0.2164
  937YOPE   C1A13735  13.558   4.943   6.160  0.0846 -0.0406 -0.2349
  937YOPE   D2A13736  13.395   4.788   6.599 -0.1589 -0.1390  0.0627
  937YOPE   C3A13737  13.623   4.932   6.931  0.0981  0.1742  0.1067
  937YOPE   C4A13738  13.907   4.850   7.299 -0.0257  0.2887 -0.0175
  937YOPE   C1B13739  13.140   4.560   6.193  0.0081  0.0556 -0.1200
  937YOPE   C2B13740  12.905   4.392   6.582 -0.0616 -0.2748 -0.1371
  937YOPE   D3B13741  12.806   4.392   7.030  0.2177  0.1096 -0.0547
  937YOPE   C4B13742  12.913   4.416   7.496 -0.0428 -0.1475  0.0805
  938YOPE   NH313743   0.226   7.604   5.573  0.1463  0.0543  0.1023
  938YOPE   PO413744   0.478   7.930   5.515 -0.0014 -0.1564  0.0569
  938YOPE   GL113745   0.619   7.829   5.876  0.2370 -0.0168  0.0865
  938YOPE   GL213746   0.820   8.100   6.023  0.0538  0.2492 -0.1182
  938YOPE   C1A13747   0.588   7.729   6.308 -0.3410 -0.0757  0.1138
  938YOPE   D2A13748   0.283   7.757   6.659  0.0530 -0.1460 -0.0602
  938YOPE   C3A13749   0.294   7.585   7.066  0.0675 -0.1455 -0.0208
  938YOPE   C4A13750   0.401   7.550   7.588 -0.0026 -0.0361  0.0755
  938YOPE   C1B13751   1.126   8.107   6.406 -0.0902 -0.1042 -0.0307
  938YOPE   C2B13752   1.492   8.010   6.809 -0.4167 -0.1031 -0.3886
  938YOPE   D3B13753   1.691   7.911   7.251 -0.2441  0.2127  0.0101
  938YOPE   C4B13754   1.469   7.619   7.632  0.4303  0.0456  0.0712
  939YOPE   NH313755  13.511   1.927   5.369 -0.0152  0.0752  0.2008
  939YOPE   PO413756  13.791   1.763   5.595  0.0943  0.2649 -0.0331
  939YOPE   GL113757  13.689   1.743   6.033 -0.0709  0.0023  0.0248
  939YOPE   GL213758  13.396   1.902   5.909 -0.0547 -0.0518  0.0977
  939YOPE   C1A13759  13.705   1.766   6.396 -0.2243 -0.1175  0.0235
  939YOPE   D2A13760  13.505   1.752   6.780 -0.0155  0.0764  0.0799
  939YOPE   C3A13761  13.796   1.699   7.165  0.1878  0.0842  0.1141
  939YOPE   C4A13762  13.700   1.749   7.622 -0.2087 -0.0318 -0.3032
  939YOPE   C1B13763  13.173   1.860   6.312  0.0129 -0.0542  0.0730
  939YOPE   C2B13764  12.951   1.634   6.604  0.1466 -0.1058  0.0317
  939YOPE   D3B13765  12.997   1.533   7.020 -0.1252 -0.2003  0.1121
  939YOPE   C4B13766  12.817   1.784   7.359  0.1033 -0.0206 -0.3151
  940YOPE   NH313767   0.264  12.824   5.957 -0.1501  0.1781 -0.2336
  940YOPE   PO413768   0.508  12.517   5.899 -0.2121  0.3039 -0.2302
  940YOPE   GL113769   0.348  12.430   6.315  0.1964  0.0807 -0.0949
  940YOPE   GL213770   0.412  12.144   6.486  0.2049 -0.0620 -0.1763
  940YOPE   C1A13771   0.044  12.494   6.730  0.1309  0.1411  0.0147
  940YOPE   D2A13772  -0.166  12.691   7.168  0.3972  0.0298 -0.0523
  940YOPE   C3A13773  -0.196  12.488   7.495 -0.1435  0.1737  0.2207
  940YOPE   C4A13774  -0.401  12.193   7.733 -0.1432 -0.1487 -0.1977
  940YOPE   C1B13775   0.467  12.025   6.929 -0.1166  0.2299 -0.0514
  940YOPE   C2B13776   0.442  11.738   7.260  0.0225 -0.0285 -0.0794
  940YOPE   D3B13777   0.283  11.570   7.676  0.2838 -0.0166  0.0599
  940YOPE   C4B13778   0.167  11.252   8.077  0.2966 -0.2059 -0.2465
  941POPC   NC313779  17.940   8.713   6.010  0.0452 -0.2851  0.0087
  941POPC   PO413780  17.505   8.578   5.817  0.1463 -0.1803  0.1192
  941POPC   GL113781  17.336   8.463   6.280 -0.2482  0.1521  0.0143
  941POPC   GL213782  17.550   8.723   6.367 -0.0381 -0.2340  0.2277
  941POPC   C1A13783  17.320   8.218   6.621  0.0889  0.1321 -0.2924
  941POPC   D2A13784  17.460   8.239   7.074  0.0928  0.3240  0.1292
  941POPC   C3A13785  17.176   8.192   7.478 -0.0298  0.2312  0.1621
  941POPC   C4A13786  17.000   8.145   7.889 -0.1531 -0.1273 -0.1499
  941POPC   C1B13787  17.623   8.574   6.779 -0.2105 -0.0785  0.1296
  941POPC   C2B13788  17.829   8.575   7.198  0.0143  0.1838 -0.0982
  941POPC   C3B13789  18.102   8.579   7.640  0.1059 -0.1956 -0.1121
  941POPC   C4B13790  18.417   8.895   7.998  0.0040 -0.0597 -0.1249
  942POPC   NC313791   7.459  13.962   4.835 -0.0372 -0.0561 -0.2028
  942POPC   PO413792   7.280  14.168   5.239  0.0454  0.0734  0.0858
  942POPC   GL113793   7.088  14.179   5.575 -0.0708 -0.0662 -0.1088
  942POPC   GL213794   7.031  13.952   5.736  0.1804  0.0501 -0.3314
  942POPC   C1A13795   6.984  14.396   5.970  0.2394 -0.0492  0.0295
  942POPC   D2A13796   6.693  14.242   6.305 -0.2227  0.0447 -0.0576
  942POPC   C3A13797   6.739  14.162   6.737  0.1431  0.1073  0.1104
  942POPC   C4A13798   6.625  14.109   7.174 -0.0656 -0.0476  0.4181
  942POPC   C1B13799   7.128  13.878   6.164  0.3542 -0.3129  0.0901
  942POPC   C2B13800   6.907  13.724   6.540  0.0225 -0.0115  0.0847
  942POPC   C3B13801   6.686  13.442   6.838  0.0374  0.0233  0.1373
  942POPC   C4B13802   6.856  13.300   7.208 -0.1758  0.1816 -0.0732
  943POPC   NC313803   6.840   8.206   5.658  0.0404 -0.0280 -0.1242
  943POPC   PO413804   7.106   8.551   5.638  0.2052 -0.1132 -0.1642
  943POPC   GL113805   7.045   8.500   6.052 -0.1479  0.0480  0.2740
  943POPC   GL213806   6.781   8.319   6.142  0.2180 -0.0214 -0.0861
  943POPC   C1A13807   7.315   8.620   6.309 -0.3972 -0.3242  0.0987
  943POPC   D2A13808   7.298   8.691   6.864  0.0167  0.1488  0.0905
  943POPC   C3A13809   6.974   8.615   7.173  0.0879 -0.0006  0.0172
  943POPC   C4A13810   6.540   8.477   7.486 -0.2528 -0.4822 -0.2930
  943POPC   C1B13811   6.599   8.342   6.546  0.1735 -0.1554  0.1501
  943POPC   C2B13812   6.368   8.523   6.822  0.1131  0.1781 -0.0638
  943POPC   C3B13813   6.173   8.202   7.182 -0.1608  0.0515 -0.1360
  943POPC   C4B13814   6.195   8.134   7.657  0.2413 -0.0105  0.1319
  944POPC   NC313815   7.797   7.285   5.941 -0.4312 -0.2332 -0.0061
  944POPC   PO413816   7.571   6.979   5.959 -0.0327 -0.1340 -0.0238
  944POPC   GL113817   7.542   7.118   6.370  0.0945  0.0856  0.0949
  944POPC   GL213818   7.785   6.846   6.494  0.1194  0.0782 -0.2905
  944POPC   C1A13819   7.447   7.445   6.650 -0.0786 -0.0265 -0.0643
  944POPC   D2A13820   7.226   7.735   6.825 -0.1137  0.0593 -0.0346
  944POPC   C3A13821   7.223   7.759   7.233 -0.2304 -0.2655 -0.1337
  944POPC   C4A13822   7.115   7.707   7.649 -0.1827  0.3480  0.3510
  944POPC   C1B13823   7.595   6.886   6.902  0.1390 -0.0218 -0.0451
  944POPC   C2B13824   7.366   6.869   7.333  0.0152 -0.0449  0.0751
  944POPC   C3B13825   7.214   6.509   7.425  0.1279  0.1762  0.4337
  944POPC   C4B13826   6.993   6.312   7.761  0.1619  0.2591 -0.3215
  945POPC   NC313827   7.946  10.686   5.682 -0.2001 -0.1292 -0.0835
  945POPC   PO413828   7.780  10.388   5.429  0.0873 -0.0066  0.2712
  945POPC   GL113829   7.519  10.332   5.827 -0.1723 -0.1630  0.1381
  945POPC   GL213830   7.820  10.260   5.945  0.1463  0.0206 -0.1354
  945POPC   C1A13831   7.236  10.235   6.188 -0.0276  0.0272  0.1255
  945POPC   D2A13832   7.078   9.799   6.305 -0.1777  0.0274 -0.0613
  945POPC   C3A13833   6.882   9.605   6.669  0.1079 -0.0923 -0.0458
  945POPC   C4A13834   6.905   9.545   7.086 -0.1542 -0.3820 -0.1600
  945POPC   C1B13835   7.716  10.332   6.370  0.0573 -0.1246  0.0644
  945POPC   C2B13836   7.714  10.380   6.855 -0.0334  0.1275  0.1420
  945POPC   C3B13837   7.903  10.433   7.233 -0.1268 -0.2457  0.2254
  945POPC   C4B13838   7.752  10.441   7.636 -0.1074  0.0829  0.0041
  946POPC   NC313839  10.587  17.880   5.729  0.2246 -0.1065  0.0083
  946POPC   PO413840  10.222  17.678   5.849  0.2666  0.2491 -0.0623
  946POPC   GL113841  10.004  17.555   6.265 -0.0304  0.0365 -0.1626
  946POPC   GL213842   9.874  17.837   6.391 -0.3086  0.0310  0.0360
  946POPC   C1A13843   9.919  17.445   6.672  0.2108 -0.0694 -0.1256
  946POPC   D2A13844   9.945  17.630   7.039 -0.0153 -0.0129 -0.1629
  946POPC   C3A13845   9.823  17.472   7.361 -0.1205  0.1007 -0.0897
  946POPC   C4A13846   9.685  17.496   7.731 -0.2445 -0.0183  0.3897
  946POPC   C1B13847  10.002  18.000   6.681 -0.4077  0.1102  0.0151
  946POPC   C2B13848   9.839  18.243   6.907  0.0092  0.6764  0.0925
  946POPC   C3B13849   9.563  18.581   6.819 -0.1489 -0.1577 -0.0467
  946POPC   C4B13850   9.229  18.611   6.431  0.0271 -0.0048 -0.0101
  947POPC   NC313851  13.565   0.172   4.686  0.3582 -0.0173 -0.3722
  947POPC   PO413852  13.378   0.155   5.185 -0.3178 -0.0223  0.1887
  947POPC   GL113853  13.534   0.332   5.555 -0.1018  0.1740 -0.1229
  947POPC   GL213854  13.781   0.079   5.657  0.2872 -0.1295 -0.0141
  947POPC   C1A13855  13.488   0.464   5.920 -0.1984  0.0768 -0.1996
  947POPC   D2A13856  13.678   0.431   6.379 -0.0103 -0.2297 -0.2278
  947POPC   C3A13857  13.515   0.438   6.754  0.2912  0.1144  0.0909
  947POPC   C4A13858  13.318   0.360   7.214 -0.1287  0.0430 -0.2052
  947POPC   C1B13859  13.801   0.114   6.013 -0.1307 -0.0240 -0.3295
  947POPC   C2B13860  13.832  -0.041   6.384 -0.2584 -0.1890 -0.3471
  947POPC   C3B13861  13.984   0.144   6.835 -0.4866  0.0083  0.1109
  947POPC   C4B13862  13.865   0.336   7.154 -0.1025 -0.2798  0.3300
  948POPC   NC313863  16.042   0.496   5.502  0.3802 -0.2354 -0.1186
  948POPC   PO413864  16.335   0.247   5.286  0.1345  0.0636 -0.0085
  948POPC   GL113865  16.371   0.280   5.773 -0.2326 -0.0647  0.1470
  948POPC   GL213866  16.150   0.393   5.960 -0.0905 -0.0096  0.1502
  948POPC   C1A13867  16.423  -0.026   6.156 -0.0101  0.3385 -0.0949
  948POPC   D2A13868  16.416  -0.177   6.593  0.0262  0.3405  0.2183
  948POPC   C3A13869  16.761   0.047   6.761  0.0925 -0.0994  0.0966
  948POPC   C4A13870  16.930   0.246   7.177  0.0138 -0.1101 -0.1171
  948POPC   C1B13871  15.985   0.269   6.314 -0.0887  0.0404 -0.0704
  948POPC   C2B13872  15.909   0.269   6.791  0.1211  0.1153 -0.0492
  948POPC   C3B13873  15.876   0.179   7.306  0.0367  0.1971 -0.1178
  948POPC   C4B13874  16.034   0.345   7.695  0.1550 -0.0217 -0.2309
  949POPC   NC313875   2.579  18.207   5.375 -0.1542  0.2455 -0.0392
  949POPC   PO413876   3.049  18.120   5.504 -0.2382  0.0386  0.0481
  949POPC   GL113877   2.836  18.264   5.885  0.1394 -0.1724 -0.0123
  949POPC   GL213878   3.048  18.443   6.043  0.0320  0.1222 -0.3464
  949POPC   C1A13879   2.508  18.009   6.173  0.0713  0.2439 -0.1297
  949POPC   D2A13880   2.576  17.970   6.555  0.0891  0.2199  0.0016
  949POPC   C3A13881   2.600  18.141   7.019  0.1369  0.2026 -0.1863
  949POPC   C4A13882   2.780  18.288   7.396  0.0893  0.0665  0.2468
  949POPC   C1B13883   2.995  18.286   6.440  0.0518 -0.2954  0.1730
  949POPC   C2B13884   3.077  18.254   6.878  0.0126  0.1931  0.2217
  949POPC   C3B13885   3.089  17.968   7.217 -0.1017  0.1922  0.0822
  949POPC   C4B13886   3.282  17.866   7.613  0.1941 -0.3338  0.0053
  950POPC   NC313887  14.508   8.876   5.477  0.0028  0.4501 -0.0879
  950POPC   PO413888  14.077   8.702   5.368  0.2173  0.0263 -0.0462
  950POPC   GL113889  14.170   8.653   5.794 -0.1265  0.4077 -0.4420
  950POPC   GL213890  14.363   8.458   5.873  0.3467  0.2324 -0.1740
  950POPC   C1A13891  14.250   8.899   6.150  0.5125 -0.4098  0.0899
  950POPC   D2A13892  14.320   9.286   6.400  0.0483  0.1621  0.0546
  950POPC   C3A13893  14.274   9.306   6.908 -0.0742  0.1940 -0.1636
  950POPC   C4A13894  14.306   9.254   7.286  0.0680 -0.2262  0.1146
  950POPC   C1B13895  14.243   8.336   6.244  0.1835 -0.3893 -0.0661
  950POPC   C2B13896  13.972   8.271   6.611 -0.0057 -0.2039  0.0549
  950POPC   C3B13897  13.900   8.018   7.028  0.0990 -0.0243  0.2629
  950POPC   C4B13898  13.938   7.826   7.441  0.2652 -0.1644  0.1027
  951POPC   NC313899  17.657  11.343   5.617  0.1311  0.0660  0.2028
  951POPC   PO413900  17.744  11.819   5.686 -0.0539  0.0850 -0.1986
  951POPC   GL113901  17.480  11.905   6.046 -0.2673  0.1452  0.2244
  951POPC   GL213902  17.713  11.883   6.343 -0.0366  0.1455 -0.2250
  951POPC   C1A13903  17.193  12.104   6.333 -0.3653  0.0624 -0.2824
  951POPC   D2A13904  17.071  12.063   6.723 -0.0733 -0.0940 -0.1021
  951POPC   C3A13905  17.371  12.148   7.024  0.2102 -0.0879 -0.0481
  951POPC   C4A13906  17.490  12.527   7.159 -0.1059 -0.1141 -0.2766
  951POPC   C1B13907  17.574  11.907   6.660  0.0447 -0.3205 -0.3107
  951POPC   C2B13908  17.618  11.732   7.020 -0.2066 -0.0158 -0.1567
  951POPC   C3B13909  17.890  11.510   7.247 -0.1909 -0.3814  0.0562
  951POPC   C4B13910  17.944  11.173   7.353 -0.0815 -0.1580  0.3188
  952POPC   NC313911  10.686  14.920   5.710 -0.1429 -0.0762 -0.1728
  952POPC   PO413912  10.616  14.880   6.152  0.2602 -0.0957 -0.0762
  952POPC   GL113913  10.390  14.866   6.568  0.2563  0.1118 -0.0815
  952POPC   GL213914  10.294  15.150   6.636  0.2933 -0.0380  0.2667
  952POPC   C1A13915  10.352  14.743   7.015 -0.1277  0.1554 -0.2498
  952POPC   D2A13916  10.334  14.607   7.461  0.0684 -0.1581  0.1943
  952POPC   C3A13917  10.579  14.627   7.837 -0.0284 -0.0121 -0.2677
  952POPC   C4A13918  10.760  14.562   8.249  0.1405  0.0152 -0.1744
  952POPC   C1B13919  10.237  15.189   7.072  0.0249 -0.3364 -0.0774
  952POPC   C2B13920  10.216  15.075   7.418 -0.2366 -0.0353 -0.1555
  952POPC   C3B13921  10.152  14.906   7.847 -0.0577 -0.0296  0.2702
  952POPC   C4B13922  10.260  14.755   8.237  0.0520 -0.3855  0.0684
  953POPC   NC313923   3.665   5.672   5.863 -0.0078 -0.2494 -0.0358
  953POPC   PO413924   3.206   5.563   5.841 -0.1702 -0.2963 -0.4366
  953POPC   GL113925   3.308   5.836   6.188 -0.0028 -0.1850  0.0161
  953POPC   GL213926   3.539   6.093   6.098  0.1211  0.1056 -0.1116
  953POPC   C1A13927   3.365   5.966   6.562  0.0461  0.2356 -0.1414
  953POPC   D2A13928   3.105   5.949   6.952  0.0161  0.0115 -0.0509
  953POPC   C3A13929   3.053   5.610   7.261  0.0379  0.0374  0.3552
  953POPC   C4A13930   2.920   5.223   7.167  0.1865 -0.1109  0.3513
  953POPC   C1B13931   3.613   6.377   6.491  0.2035  0.0348 -0.2053
  953POPC   C2B13932   3.569   6.734   6.835  0.3341  0.2056  0.2637
  953POPC   C3B13933   3.427   6.938   7.174 -0.0555 -0.3254  0.2527
  953POPC   C4B13934   3.426   7.152   7.504 -0.1886  0.0508  0.1342
  954POPC   NC313935  17.518   0.528   5.954  0.2558  0.0866  0.0454
  954POPC   PO413936  17.210   0.740   5.692  0.0802  0.0568  0.1208
  954POPC   GL113937  17.107   0.878   6.158 -0.0383  0.5124  0.3488
  954POPC   GL213938  16.887   1.106   6.212 -0.1517  0.0149  0.0070
  954POPC   C1A13939  17.380   1.048   6.529  0.0900 -0.0909 -0.0754
  954POPC   D2A13940  17.750   1.058   6.672 -0.2910  0.3063 -0.2451
  954POPC   C3A13941  17.793   0.893   6.986  0.2348  0.0893  0.0624
  954POPC   C4A13942  17.934   1.028   7.487  0.1725  0.2719  0.0925
  954POPC   C1B13943  16.857   0.995   6.613  0.0471  0.2376 -0.2618
  954POPC   C2B13944  17.206   1.005   6.954 -0.3091 -0.0342 -0.2364
  954POPC   C3B13945  17.462   0.994   7.322 -0.0224 -0.2579  0.0394
  954POPC   C4B13946  17.470   1.018   7.727 -0.2513  0.0411 -0.4484
  955POPC   NC313947  11.737  17.452   5.877 -0.0819 -0.1548  0.0203
  955POPC   PO413948  11.655  17.005   5.944 -0.0647 -0.1814  0.0348
  955POPC   GL113949  11.620  17.197   6.285  0.1246  0.1215  0.2583
  955POPC   GL213950  11.855  17.113   6.480  0.1057 -0.1297  0.1186
  955POPC   C1A13951  11.426  17.319   6.651 -0.1963 -0.3822 -0.2714
  955POPC   D2A13952  11.400  17.479   7.133 -0.1191 -0.0829  0.2279
  955POPC   C3A13953  11.177  17.530   7.578  0.2740  0.0195 -0.1144
  955POPC   C4A13954  11.293  17.587   7.957  0.0377  0.0047 -0.1569
  955POPC   C1B13955  11.853  17.234   6.874 -0.0685  0.0256  0.4208
  955POPC   C2B13956  12.070  17.536   7.064 -0.2483  0.1511 -0.0386
  955POPC   C3B13957  12.030  17.590   7.609  0.0713  0.1224 -0.1488
  955POPC   C4B13958  11.779  17.500   8.046 -0.2950 -0.0044  0.1536
  956POPC   NC313959   9.332  16.687   5.550  0.1588 -0.0263 -0.0941
  956POPC   PO413960   8.875  16.737   5.588 -0.1601  0.0557  0.2107
  956POPC   GL113961   8.606  16.770   5.974 -0.2480 -0.1569  0.2590
  956POPC   GL213962   8.548  16.519   6.049  0.3601 -0.2943  0.2205
  956POPC   C1A13963   8.724  16.887   6.402 -0.1880 -0.0200 -0.0160
  956POPC   D2A13964   8.821  17.263   6.674 -0.2605 -0.0152  0.1144
  956POPC   C3A13965   8.740  17.420   7.083  0.0398  0.1662 -0.0357
  956POPC   C4A13966   8.608  17.450   7.471  0.2071 -0.0995  0.0600
  956POPC   C1B13967   8.694  16.401   6.420 -0.2813 -0.0109  0.0562
  956POPC   C2B13968   8.704  16.458   6.871 -0.1466 -0.0556 -0.1217
  956POPC   C3B13969   8.562  16.557   7.198  0.1088 -0.1432  0.1453
  956POPC   C4B13970   8.690  16.575   7.541  0.0313 -0.2521 -0.2577
  957POPC   NC313971  11.935   2.580   4.801  0.0421 -0.1500  0.2053
  957POPC   PO413972  11.717   2.318   5.180 -0.0547 -0.1174  0.2910
  957POPC   GL113973  11.574   2.405   5.616 -0.0678 -0.0668 -0.2623
  957POPC   GL213974  11.580   2.713   5.555 -0.1234  0.0114  0.2224
  957POPC   C1A13975  11.426   2.387   6.083  0.1894 -0.3728 -0.2009
  957POPC   D2A13976  11.580   2.539   6.523 -0.3577 -0.1486  0.0230
  957POPC   C3A13977  11.434   2.384   6.889  0.0947  0.1345 -0.2572
  957POPC   C4A13978  11.084   2.108   7.038 -0.1455 -0.1649  0.0241
  957POPC   C1B13979  11.842   2.694   5.977  0.2260  0.2444  0.1184
  957POPC   C2B13980  11.984   2.699   6.352  0.0323  0.0205 -0.0009
  957POPC   C3B13981  12.226   2.506   6.727  0.0943 -0.0663  0.0344
  957POPC   C4B13982  12.315   2.525   7.119 -0.1219 -0.1180 -0.2246
  958POPC   NC313983  13.950  12.031   5.706 -0.2738 -0.1724 -0.2313
  958POPC   PO413984  14.306  11.817   5.900  0.2791  0.2539 -0.3961
  958POPC   GL113985  14.493  11.684   6.341  0.1103  0.0859 -0.2073
  958POPC   GL213986  14.839  11.541   6.340  0.0950  0.1148 -0.0752
  958POPC   C1A13987  14.661  11.740   6.791  0.3303  0.2426  0.1196
  958POPC   D2A13988  14.822  11.501   7.080  0.0220  0.2793 -0.0085
  958POPC   C3A13989  14.690  11.418   7.482  0.1218  0.1064 -0.2264
  958POPC   C4A13990  14.939  11.414   7.822 -0.2931  0.0419 -0.1669
  958POPC   C1B13991  15.076  11.352   6.712  0.0555  0.1694 -0.0098
  958POPC   C2B13992  15.301  11.373   7.232  0.1962 -0.1955  0.0013
  958POPC   C3B13993  15.458  11.473   7.687 -0.0506 -0.0750 -0.2269
  958POPC   C4B13994  15.407  11.294   8.066 -0.0135 -0.0075  0.1225
  959POPC   NC313995   9.277   6.672   5.685  0.2107  0.1143 -0.0980
  959POPC   PO413996   9.568   6.351   5.869 -0.1135  0.2589 -0.1032
  959POPC   GL113997   9.347   6.278   6.335 -0.1208  0.3490 -0.1891
  959POPC   GL213998   9.271   5.993   6.417  0.1926  0.0970 -0.3052
  959POPC   C1A13999   9.416   6.518   6.636 -0.1488  0.0187 -0.4157
  959POPC   D2A14000   9.504   6.868   6.879  0.1007  0.0576  0.0348
  959POPC   C3A14001   9.349   6.837   7.253  0.1225 -0.1275 -0.1890
  959POPC   C4A14002   9.230   7.126   7.541  0.1876 -0.1226  0.0809
  959POPC   C1B14003   9.282   5.863   6.821 -0.1776 -0.0960 -0.0850
  959POPC   C2B14004   9.109   5.787   7.206  0.1645  0.2270  0.0689
  959POPC   C3B14005   9.040   5.728   7.611 -0.0740 -0.0331 -0.0647
  959POPC   C4B14006   9.078   6.004   7.980 -0.3083 -0.0176 -0.1613
  960POPC   NC314007  13.015   8.191   5.788  0.0755  0.1229 -0.0925
  960POPC   PO414008  13.379   8.302   6.059  0.1378 -0.0496  0.0431
  960POPC   GL114009  13.592   8.489   6.380 -0.1269 -0.1624 -0.1483
  960POPC   GL214010  13.729   8.737   6.196 -0.1727  0.0983  0.0327
  960POPC   C1A14011  13.550   8.311   6.837  0.1684  0.2025  0.0871
  960POPC   D2A14012  13.699   8.429   7.176  0.0151  0.1150 -0.4203
  960POPC   C3A14013  13.628   8.204   7.590  0.1941  0.0213 -0.0061
  960POPC   C4A14014  13.708   8.055   7.964  0.1040  0.0026 -0.3693
  960POPC   C1B14015  13.901   8.917   6.570 -0.3413 -0.1035  0.0695
  960POPC   C2B14016  13.925   8.921   6.983 -0.2044  0.3735  0.0179
  960POPC   C3B14017  14.019   8.843   7.372  0.2630  0.0435  0.1353
  960POPC   C4B14018  13.918   8.607   7.801  0.1247 -0.1232  0.1521
  961POPC   NC314019  13.050  12.350   5.908  0.2230 -0.0372  0.2244
  961POPC   PO414020  12.632  12.410   6.096  0.1097  0.0593  0.1374
  961POPC   GL114021  12.502  12.202   6.472  0.0973 -0.0048 -0.2708
  961POPC   GL214022  12.553  11.839   6.450  0.0912  0.0608 -0.0188
  961POPC   C1A14023  12.443  12.164   6.848  0.0734 -0.1241  0.1356
  961POPC   D2A14024  12.245  12.235   7.209  0.0977 -0.0455 -0.2609
  961POPC   C3A14025  12.430  11.993   7.493  0.1547 -0.0988  0.2042
  961POPC   C4A14026  12.514  11.961   7.903 -0.4660 -0.0135  0.0437
  961POPC   C1B14027  12.706  11.694   6.826 -0.2100 -0.1407  0.1166
  961POPC   C2B14028  12.665  11.603   7.246  0.2289 -0.1318  0.3488
  961POPC   C3B14029  12.685  11.582   7.546 -0.2386 -0.0658 -0.0510
  961POPC   C4B14030  12.602  11.452   7.967 -0.0446  0.0063 -0.2521
  962POPC   NC314031   2.253  13.733   5.756  0.0361  0.1489  0.0675
  962POPC   PO414032   2.374  13.343   5.842 -0.4436  0.1940  0.1494
  962POPC   GL114033   2.136  13.236   6.103  0.1769  0.3528 -0.1208
  962POPC   GL214034   2.242  13.043   6.249  0.0806 -0.0038  0.2781
  962POPC   C1A14035   1.889  13.146   6.579 -0.0113  0.0080  0.2678
  962POPC   D2A14036   1.913  13.184   6.961 -0.0872  0.0173 -0.0859
  962POPC   C3A14037   2.314  13.188   7.363  0.1353 -0.3109 -0.0590
  962POPC   C4A14038   2.530  13.403   7.707  0.0273 -0.3501  0.0865
  962POPC   C1B14039   2.407  12.914   6.694  0.0660  0.2857 -0.1074
  962POPC   C2B14040   2.711  13.120   6.908  0.1377 -0.1292 -0.1083
  962POPC   C3B14041   2.998  13.347   7.062 -0.5782  0.0431  0.0902
  962POPC   C4B14042   2.986  13.469   7.408  0.0445  0.0801  0.1931
  963POPC   NC314043   3.852   4.852   5.605 -0.2890  0.0427 -0.2770
  963POPC   PO414044   3.793   4.378   5.686  0.1161  0.2609  0.0017
  963POPC   GL114045   3.867   4.637   6.058 -0.2897  0.3115  0.3705
  963POPC   GL214046   4.171   4.736   5.987 -0.1857 -0.1422 -0.1675
  963POPC   C1A14047   3.910   4.599   6.525 -0.2164 -0.0203 -0.0443
  963POPC   D2A14048   4.002   4.552   6.928 -0.1051 -0.2075  0.0579
  963POPC   C3A14049   3.972   4.677   7.324 -0.1225  0.1092 -0.1965
  963POPC   C4A14050   4.204   4.428   7.600 -0.2518 -0.1152 -0.0468
  963POPC   C1B14051   4.369   4.666   6.319 -0.0230  0.4493 -0.3537
  963POPC   C2B14052   4.430   4.634   6.693  0.0429 -0.1050  0.1953
  963POPC   C3B14053   4.492   4.675   7.126 -0.1277 -0.0211  0.1115
  963POPC   C4B14054   4.425   4.933   7.485 -0.1459 -0.1317  0.0270
  964POPC   NC314055   1.320   3.556   5.609 -0.3666 -0.0951  0.2563
  964POPC   PO414056   1.141   3.071   5.722  0.2388 -0.0595 -0.0880
  964POPC   GL114057   1.198   3.333   6.150  0.1856 -0.1661  0.2184
  964POPC   GL214058   1.463   3.495   6.063 -0.2972  0.2731  0.1210
  964POPC   C1A14059   1.295   3.164   6.557  0.3839  0.1936 -0.0801
  964POPC   D2A14060   1.339   2.930   6.834 -0.0123 -0.1381 -0.2184
  964POPC   C3A14061   1.190   2.756   7.149 -0.0362 -0.1388  0.0761
  964POPC   C4A14062   0.920   2.570   7.590  0.1488  0.0488 -0.0649
  964POPC   C1B14063   1.384   3.650   6.525 -0.1745  0.0732  0.1006
  964POPC   C2B14064   1.337   3.759   6.968 -0.2935 -0.1527 -0.0695
  964POPC   C3B14065   1.447   3.795   7.318 -0.1972  0.1233  0.1185
  964POPC   C4B14066   1.646   3.953   7.650 -0.1020  0.4483 -0.2841
  965POPC   NC314067  16.602  17.128   4.963  0.0722 -0.0476 -0.0958
  965POPC   PO414068  16.426  17.193   5.471  0.0838  0.0524  0.0349
  965POPC   GL114069  16.337  17.313   5.845 -0.1419  0.1224 -0.3758
  965POPC   GL214070  16.201  17.053   5.974 -0.0082  0.1033  0.3827
  965POPC   C1A14071  16.262  17.445   6.306 -0.0579 -0.1130  0.1159
  965POPC   D2A14072  16.141  17.884   6.584  0.1609  0.1712 -0.1741
  965POPC   C3A14073  15.938  17.826   6.906  0.2022  0.0038 -0.0077
  965POPC   C4A14074  16.124  17.933   7.338 -0.2568 -0.0892  0.1709
  965POPC   C1B14075  16.647  16.987   6.164 -0.1861 -0.1914  0.0222
  965POPC   C2B14076  16.873  17.077   6.596 -0.1333  0.0465 -0.1557
  965POPC   C3B14077  16.745  17.083   7.012 -0.0425  0.2005 -0.1398
  965POPC   C4B14078  16.757  17.309   7.278  0.1899  0.1470  0.1446
  966POPC   NC314079   5.040   9.974   5.640 -0.1954 -0.1101  0.0451
  966POPC   PO414080   4.666   9.849   5.871  0.1014  0.0749 -0.1879
  966POPC   GL114081   4.868   9.628   6.220 -0.1066  0.0170 -0.2008
  966POPC   GL214082   4.843   9.746   6.569 -0.0597  0.0454 -0.1370
  966POPC   C1A14083   5.059   9.293   6.443 -0.3020 -0.1359 -0.2842
  966POPC   D2A14084   5.318   8.927   6.369 -0.2405  0.0276  0.1448
  966POPC   C3A14085   5.575   8.745   6.717  0.0050 -0.1861  0.0736
  966POPC   C4A14086   5.695   8.675   7.086 -0.0822  0.0332  0.0873
  966POPC   C1B14087   5.165   9.566   6.866 -0.1857 -0.1710  0.0225
  966POPC   C2B14088   5.290   9.588   7.185  0.3885  0.3251 -0.0290
  966POPC   C3B14089   5.352   9.294   7.451 -0.1140 -0.3919 -0.3426
  966POPC   C4B14090   5.338   9.128   7.797 -0.0738 -0.1250 -0.2358
  967POPC   NC314091  15.953  17.305   5.568 -0.2231 -0.1968  0.2167
  967POPC   PO414092  15.478  17.557   5.636 -0.0582 -0.2270 -0.3440
  967POPC   GL114093  15.657  17.558   5.974  0.3221  0.0421 -0.0976
  967POPC   GL214094  15.986  17.648   5.952  0.0288  0.1208 -0.3221
  967POPC   C1A14095  15.780  17.523   6.467  0.2869 -0.3004  0.1704
  967POPC   D2A14096  15.936  17.359   6.790 -0.1534 -0.0902 -0.1704
  967POPC   C3A14097  15.765  17.059   7.082 -0.1952  0.1924 -0.3486
  967POPC   C4A14098  15.223  17.007   7.012 -0.1807  0.0012 -0.1213
  967POPC   C1B14099  16.313  17.958   6.086 -0.0623  0.1038  0.1027
  967POPC   C2B14100  16.660  17.904   6.384  0.0623  0.4204  0.0500
  967POPC   C3B14101  16.697  17.957   6.800  0.1199 -0.2180  0.0645
  967POPC   C4B14102  16.568  18.261   7.113 -0.1460 -0.3255 -0.1048
  968POPC   NC314103   0.171  14.648   5.823  0.1751  0.1683  0.0945
  968POPC   PO414104   0.315  15.007   5.770 -0.2531  0.1522  0.1467
  968POPC   GL114105   0.627  14.922   5.989  0.0864  0.3585  0.0297
  968POPC   GL214106   0.669  15.051   6.227 -0.1714 -0.0127 -0.0999
  968POPC   C1A14107   1.067  14.669   6.166  0.3135  0.0302  0.1438
  968POPC   D2A14108   0.977  14.287   6.334 -0.0921 -0.1404  0.1620
  968POPC   C3A14109   0.705  14.255   6.669 -0.1202 -0.1748 -0.1116
  968POPC   C4A14110   0.519  14.392   6.984  0.0821  0.0052 -0.0481
  968POPC   C1B14111   0.619  14.735   6.608  0.0736  0.2568 -0.0330
  968POPC   C2B14112   0.527  14.863   6.982  0.3712  0.1384 -0.1464
  968POPC   C3B14113   0.294  14.814   7.309 -0.0114  0.0203 -0.0021
  968POPC   C4B14114   0.338  14.428   7.496  0.1115 -0.0627 -0.0305
  969POPC   NC314115   8.828  10.382   5.749 -0.0175  0.1188  0.1842
  969POPC   PO414116   8.480  10.707   5.710 -0.0605  0.2241  0.3092
  969POPC   GL114117   8.352  10.417   6.038 -0.1812 -0.0395 -0.2133
  969POPC   GL214118   8.569  10.549   6.206 -0.1053  0.0797 -0.1294
  969POPC   C1A14119   8.209  10.207   6.404  0.0243 -0.1091  0.1956
  969POPC   D2A14120   8.184  10.227   6.794  0.1451  0.1585 -0.0459
  969POPC   C3A14121   7.878   9.895   6.999 -0.4355  0.1010 -0.1806
  969POPC   C4A14122   7.800   9.876   7.372  0.0052  0.0713 -0.1468
  969POPC   C1B14123   8.532  10.587   6.681  0.1236  0.1168  0.1189
  969POPC   C2B14124   8.454  10.558   7.082  0.0736 -0.0861  0.0864
  969POPC   C3B14125   8.447  10.600   7.571 -0.0889  0.1530 -0.2706
  969POPC   C4B14126   8.175  10.529   7.923 -0.0841  0.1642  0.0603
  970POPC   NC314127  12.712   5.542   5.455 -0.1050 -0.1867  0.0950
  970POPC   PO414128  12.508   5.110   5.588  0.0668 -0.2235  0.3647
  970POPC   GL114129  12.482   5.047   5.994  0.2280  0.0834 -0.0451
  970POPC   GL214130  12.563   5.364   6.084  0.0490 -0.2363 -0.0312
  970POPC   C1A14131  12.527   4.840   6.409  0.1071  0.0038  0.0506
  970POPC   D2A14132  12.489   4.746   6.759 -0.3403 -0.0313 -0.0963
  970POPC   C3A14133  12.648   4.858   7.200  0.2556 -0.1109 -0.1703
  970POPC   C4A14134  12.602   4.949   7.612 -0.0120  0.1216 -0.2504
  970POPC   C1B14135  12.583   5.327   6.486  0.0050  0.2672  0.1820
  970POPC   C2B14136  12.692   5.288   6.988 -0.0009 -0.0226 -0.0707
  970POPC   C3B14137  12.373   5.339   7.267  0.0088 -0.0876 -0.0224
  970POPC   C4B14138  11.943   5.559   7.264  0.0611  0.0470 -0.0612
  971POPC   NC314139  17.862   7.904   5.657 -0.3066 -0.0458  0.4032
  971POPC   PO414140  18.001   8.186   5.999  0.1033  0.0794 -0.1063
  971POPC   GL114141  17.833   8.254   6.344  0.1930  0.0776 -0.2718
  971POPC   GL214142  17.985   8.492   6.482 -0.1119 -0.1427  0.0078
  971POPC   C1A14143  17.708   7.985   6.750 -0.0732  0.1193  0.0373
  971POPC   D2A14144  17.513   7.729   7.030 -0.1159 -0.1554  0.1320
  971POPC   C3A14145  17.432   7.798   7.409 -0.0739 -0.0868  0.0025
  971POPC   C4A14146  17.157   7.717   7.695 -0.1358 -0.0939  0.1477
  971POPC   C1B14147  18.086   8.429   6.781 -0.1790 -0.0785 -0.0839
  971POPC   C2B14148  18.347   8.433   7.166 -0.1394  0.0185  0.0646
  971POPC   C3B14149  18.539   8.030   7.359 -0.2116  0.2385 -0.1678
  971POPC   C4B14150  18.373   7.584   7.378  0.2021 -0.2445  0.0079
  972POPC   NC314151  12.483  16.076   5.685 -0.0766  0.0849 -0.0875
  972POPC   PO414152  12.783  15.611   5.687 -0.1545 -0.3544  0.0547
  972POPC   GL114153  12.743  15.815   6.034  0.0056  0.4568 -0.1449
  972POPC   GL214154  12.766  16.103   6.133 -0.0037 -0.1730 -0.1795
  972POPC   C1A14155  12.787  15.646   6.425 -0.0736  0.1429 -0.1633
  972POPC   D2A14156  13.118  15.722   6.822  0.1819  0.0813 -0.0147
  972POPC   C3A14157  12.925  15.807   7.207  0.1707 -0.2448 -0.0258
  972POPC   C4A14158  12.772  15.721   7.624  0.1392  0.1969  0.2021
  972POPC   C1B14159  12.680  16.510   6.330 -0.0886 -0.0930  0.1218
  972POPC   C2B14160  12.830  16.673   6.710 -0.0226  0.3246  0.0413
  972POPC   C3B14161  12.857  16.936   7.130  0.3156  0.0099 -0.1188
  972POPC   C4B14162  13.184  16.685   7.364 -0.0444 -0.0378 -0.2321
  973POPC   NC314163   8.723  11.087   5.368  0.2434 -0.1632  0.0473
  973POPC   PO414164   9.012  10.851   5.628  0.1792  0.1722  0.2737
  973POPC   GL114165   8.920  10.880   6.065 -0.1764 -0.0263  0.0632
  973POPC   GL214166   8.971  11.200   6.262 -0.2491  0.0312 -0.1677
  973POPC   C1A14167   8.981  10.802   6.534 -0.0990  0.1490 -0.2178
  973POPC   D2A14168   8.892  10.864   6.957 -0.5276  0.0445 -0.3273
  973POPC   C3A14169   8.948  11.179   7.145  0.1523 -0.1411 -0.0307
  973POPC   C4A14170   8.942  11.555   7.533  0.3259  0.2605 -0.3714
  973POPC   C1B14171   9.267  11.173   6.638 -0.1033 -0.0596 -0.0003
  973POPC   C2B14172   9.484  11.285   6.936 -0.0982 -0.0286  0.2893
  973POPC   C3B14173   9.509  11.446   7.343  0.0288  0.4162 -0.0956
  973POPC   C4B14174   9.563  11.649   7.652  0.2088 -0.3182  0.0779
  974POPC   NC314175  14.009  16.050   5.887 -0.0093  0.0470 -0.0361
  974POPC   PO414176  14.374  16.006   6.031 -0.1457 -0.0545  0.2428
  974POPC   GL114177  14.553  16.151   6.415 -0.0521  0.5792 -0.0454
  974POPC   GL214178  14.878  16.080   6.603 -0.1004 -0.1971 -0.2319
  974POPC   C1A14179  14.499  16.467   6.715  0.2438 -0.0205 -0.2286
  974POPC   D2A14180  14.498  16.503   7.210  0.1695  0.0455 -0.1532
  974POPC   C3A14181  14.424  16.835   7.437  0.3235 -0.2369 -0.0743
  974POPC   C4A14182  14.645  16.962   7.722 -0.0339  0.0276 -0.1152
  974POPC   C1B14183  15.106  15.980   6.918  0.3220  0.2023 -0.0432
  974POPC   C2B14184  15.211  16.065   7.286  0.0133 -0.0233  0.0966
  974POPC   C3B14185  15.239  16.139   7.699 -0.0287  0.1518 -0.0748
  974POPC   C4B14186  15.649  15.896   7.915 -0.0842 -0.0405 -0.1735
  975POPC   NC314187   7.330   0.853   5.400 -0.1595 -0.0495  0.0321
  975POPC   PO414188   7.122   0.673   5.834 -0.1084  0.0366 -0.0820
  975POPC   GL114189   7.373   0.528   6.178 -0.2275 -0.2367  0.0273
  975POPC   GL214190   7.752   0.571   6.210 -0.0158  0.0054 -0.0427
  975POPC   C1A14191   7.429   0.431   6.610 -0.0903 -0.2440  0.3245
  975POPC   D2A14192   7.441   0.265   6.972 -0.1997 -0.0202  0.2459
  975POPC   C3A14193   7.502   0.346   7.306 -0.0179 -0.0085 -0.0104
  975POPC   C4A14194   7.299   0.547   7.604  0.1211  0.1183 -0.1269
  975POPC   C1B14195   7.908   0.380   6.635  0.0435 -0.0266 -0.1202
  975POPC   C2B14196   7.923   0.289   7.045 -0.2322  0.2864  0.1223
  975POPC   C3B14197   8.143   0.472   7.304 -0.0319 -0.2466  0.1593
  975POPC   C4B14198   8.401   0.732   7.560 -0.1150  0.2468 -0.1790
  976POPC   NC314199   0.998  10.001   4.941 -0.0081  0.0300  0.1105
  976POPC   PO414200   1.034   9.630   5.168  0.0398  0.0099  0.0667
  976POPC   GL114201   1.003   9.701   5.656 -0.1116 -0.1074  0.0881
  976POPC   GL214202   1.006   9.945   5.857  0.3223  0.1065 -0.0718
  976POPC   C1A14203   0.755   9.576   5.964  0.0448  0.1693 -0.1038
  976POPC   D2A14204   0.876   9.372   6.338 -0.2470 -0.2558  0.2211
  976POPC   C3A14205   0.720   9.184   6.624 -0.0690 -0.2146  0.0516
  976POPC   C4A14206   0.818   8.925   6.988 -0.2373 -0.2272  0.0879
  976POPC   C1B14207   0.950   9.951   6.350 -0.0235  0.3929 -0.0098
  976POPC   C2B14208   0.703   9.817   6.790 -0.0136  0.0248  0.1687
  976POPC   C3B14209   0.421   9.472   6.926 -0.0961  0.0793  0.1721
  976POPC   C4B14210   0.471   9.157   7.289  0.1075  0.1808 -0.2949
  977POPC   NC314211  15.073  14.996   5.911  0.1056 -0.0484 -0.0916
  977POPC   PO414212  15.506  15.202   5.903 -0.0377  0.2706  0.2099
  977POPC   GL114213  15.452  15.062   6.315 -0.3204 -0.0520  0.1367
  977POPC   GL214214  15.740  15.076   6.374 -0.1687 -0.0107 -0.2390
  977POPC   C1A14215  15.386  14.886   6.702 -0.3137  0.0290 -0.3579
  977POPC   D2A14216  15.363  14.767   7.036  0.1217 -0.0367  0.3182
  977POPC   C3A14217  15.381  14.416   7.189  0.0162 -0.0308 -0.0692
  977POPC   C4A14218  15.657  14.233   7.300 -0.2943  0.0211  0.1387
  977POPC   C1B14219  16.100  15.146   6.624  0.0940 -0.1689  0.1811
  977POPC   C2B14220  16.253  15.090   7.039  0.0466 -0.0894  0.1158
  977POPC   C3B14221  16.532  15.170   7.370  0.0756 -0.2613 -0.0808
  977POPC   C4B14222  16.863  15.218   7.693 -0.1470  0.0360 -0.1113
  978POPC   NC314223   7.121  12.904   5.093 -0.2939 -0.1392 -0.0347
  978POPC   PO414224   7.467  13.146   5.326 -0.3817 -0.0799  0.1930
  978POPC   GL114225   7.673  13.050   5.775  0.0192  0.1717 -0.2094
  978POPC   GL214226   7.662  12.667   5.832  0.1394 -0.0200  0.1073
  978POPC   C1A14227   7.679  13.163   6.108  0.1188  0.1278 -0.1419
  978POPC   D2A14228   7.831  13.261   6.539  0.0449 -0.0666  0.0350
  978POPC   C3A14229   7.850  12.909   6.776 -0.0484 -0.0652 -0.2379
  978POPC   C4A14230   7.997  12.630   7.070 -0.3179 -0.2183  0.2685
  978POPC   C1B14231   7.582  12.656   6.390 -0.0998 -0.0257 -0.0161
  978POPC   C2B14232   7.488  12.557   6.790 -0.0320 -0.0775  0.1705
  978POPC   C3B14233   7.232  12.662   7.136 -0.3037  0.0373 -0.0222
  978POPC   C4B14234   7.051  12.862   7.448  0.2095  0.2208 -0.1258
  979POPC   NC314235   2.881   5.170   5.824  0.2040  0.1409  0.0542
  979POPC   PO414236   2.934   4.864   6.068 -0.2025  0.2282 -0.0293
  979POPC   GL114237   3.175   4.729   6.407 -0.1477 -0.1356  0.0032
  979POPC   GL214238   3.480   4.755   6.278  0.0102 -0.1738 -0.0148
  979POPC   C1A14239   3.380   4.508   6.711 -0.1112  0.1395  0.2764
  979POPC   D2A14240   3.595   4.468   7.108 -0.3514 -0.0732 -0.0828
  979POPC   C3A14241   3.614   4.309   7.440 -0.2775  0.3793  0.1230
  979POPC   C4A14242   3.778   4.274   7.879  0.2755  0.1943 -0.2282
  979POPC   C1B14243   3.600   5.016   6.632 -0.1442  0.3532 -0.1725
  979POPC   C2B14244   3.800   5.028   6.989 -0.2319 -0.0495 -0.2696
  979POPC   C3B14245   3.964   5.273   7.350 -0.0639 -0.0718 -0.0330
  979POPC   C4B14246   4.089   5.348   7.773 -0.0199  0.0443 -0.0717
  980POPC   NC314247   2.990   9.065   5.552  0.2609  0.1785 -0.1500
  980POPC   PO414248   3.413   8.883   5.404 -0.2203 -0.0867 -0.0970
  980POPC   GL114249   3.408   8.808   5.836  0.3994  0.1816  0.1799
  980POPC   GL214250   3.230   9.028   5.969 -0.2293  0.0767  0.1018
  980POPC   C1A14251   3.581   8.508   6.232  0.1503 -0.1997  0.1566
  980POPC   D2A14252   3.750   8.243   6.603  0.0682 -0.0863 -0.0351
  980POPC   C3A14253   3.765   8.261   7.016 -0.0550  0.1316 -0.0579
  980POPC   C4A14254   3.841   8.185   7.404 -0.1233 -0.1106  0.1872
  980POPC   C1B14255   3.259   9.067   6.395  0.0228 -0.1445 -0.0216
  980POPC   C2B14256   3.228   9.086   6.732 -0.1940 -0.0499  0.3250
  980POPC   C3B14257   3.236   9.204   7.212 -0.0641 -0.2779 -0.1340
  980POPC   C4B14258   3.296   8.992   7.666  0.0610 -0.1754  0.0879
  981YOPC   NC314259  16.772   7.604   5.118  0.1926 -0.4407  0.1183
  981YOPC   PO414260  16.778   7.629   5.558  0.2633  0.1220 -0.1547
  981YOPC   GL114261  16.827   7.665   5.915 -0.0990  0.0079  0.0865
  981YOPC   GL214262  16.990   7.438   6.102  0.1841 -0.0355  0.0730
  981YOPC   C1A14263  16.734   7.872   6.281 -0.0093  0.1296 -0.0125
  981YOPC   D2A14264  17.067   7.779   6.650 -0.0668 -0.0171 -0.1147
  981YOPC   C3A14265  17.055   7.848   7.039 -0.1431 -0.1693 -0.1397
  981YOPC   C4A14266  16.764   7.857   7.403  0.1457  0.1787 -0.3417
  981YOPC   C1B14267  17.000   7.247   6.555  0.0452 -0.2932  0.1483
  981YOPC   C2B14268  17.117   7.329   6.913 -0.1125 -0.2235  0.1685
  981YOPC   D3B14269  16.879   7.373   7.292 -0.2495  0.1967 -0.3325
  981YOPC   C4B14270  16.715   7.491   7.735 -0.0202 -0.1142 -0.2989
  982YOPC   NC314271  17.578  16.144   5.588  0.0465  0.0714 -0.0338
  982YOPC   PO414272  17.856  16.092   5.967  0.0832  0.1720 -0.0645
  982YOPC   GL114273  18.020  16.150   6.369  0.1770  0.1201  0.2145
  982YOPC   GL214274  17.915  16.475   6.443 -0.1279  0.0174 -0.0611
  982YOPC   C1A14275  18.032  16.119   6.851  0.2314  0.0892  0.0256
  982YOPC   D2A14276  17.939  16.349   7.270  0.2386 -0.0458 -0.1135
  982YOPC   C3A14277  17.727  16.256   7.606  0.0238 -0.0951 -0.0992
  982YOPC   C4A14278  17.431  16.171   7.940  0.0842 -0.1071  0.0798
  982YOPC   C1B14279  17.861  16.707   6.878 -0.2980  0.0067 -0.0881
  982YOPC   C2B14280  18.001  16.808   7.323 -0.0635 -0.4192 -0.4166
  982YOPC   D3B14281  18.176  17.196   7.573  0.0466 -0.2093 -0.0565
  982YOPC   C4B14282  18.406  17.492   7.662 -0.2845 -0.1410  0.0365
  983YOPC   NC314283   0.879   1.553   5.794 -0.3351  0.2789 -0.1629
  983YOPC   PO414284   0.952   1.185   5.904 -0.0246  0.1533  0.0090
  983YOPC   GL114285   0.700   1.018   6.266 -0.0278  0.3589 -0.0274
  983YOPC   GL214286   0.442   0.930   6.106  0.0522 -0.0994 -0.1132
  983YOPC   C1A14287   0.760   0.814   6.608  0.0299  0.1358  0.3571
  983YOPC   D2A14288   0.755   0.844   7.011 -0.0904 -0.0508 -0.2460
  983YOPC   C3A14289   0.833   0.535   7.282  0.1040 -0.0162  0.0815
  983YOPC   C4A14290   0.563   0.385   7.690 -0.0294  0.2044  0.2098
  983YOPC   C1B14291   0.174   1.077   6.519 -0.0155 -0.2660  0.0755
  983YOPC   C2B14292   0.184   1.056   6.967 -0.2298 -0.1225  0.2482
  983YOPC   D3B14293  -0.141   0.808   7.139 -0.3529 -0.1151 -0.0817
  983YOPC   C4B14294  -0.229   0.630   7.477 -0.1020 -0.1162  0.4986
  984YOPC   NC314295  13.953   8.236   5.531 -0.2587 -0.1327  0.1332
  984YOPC   PO414296  14.032   7.848   5.709  0.1193 -0.0848  0.0399
  984YOPC   GL114297  14.295   7.892   6.040  0.0417 -0.0356  0.2475
  984YOPC   GL214298  14.609   7.681   6.096 -0.2540 -0.0915 -0.0248
  984YOPC   C1A14299  14.357   7.912   6.498 -0.1365 -0.1093  0.0931
  984YOPC   D2A14300  14.369   7.911   6.880 -0.1631  0.1753 -0.1615
  984YOPC   C3A14301  14.537   8.150   7.247  0.3326 -0.0562  0.2761
  984YOPC   C4A14302  14.698   8.270   7.654  0.1160 -0.2677 -0.0857
  984YOPC   C1B14303  14.845   7.786   6.432 -0.1233  0.2416 -0.1288
  984YOPC   C2B14304  14.854   7.868   6.896 -0.2068 -0.1548 -0.0605
  984YOPC   D3B14305  14.628   7.689   7.284 -0.3150  0.1999  0.2656
  984YOPC   C4B14306  14.368   7.607   7.599  0.1657 -0.1133  0.1002
  985YOPC   NC314307   5.912  12.662   5.626 -0.1032  0.0155 -0.0712
  985YOPC   PO414308   6.359  12.543   5.584  0.3815  0.0841 -0.1773
  985YOPC   GL114309   6.327  12.732   5.904  0.0938 -0.0009 -0.1350
  985YOPC   GL214310   6.588  12.608   6.077 -0.1602 -0.1888 -0.2129
  985YOPC   C1A14311   6.113  12.929   6.200 -0.1033  0.0980 -0.1294
  985YOPC   D2A14312   6.008  12.995   6.708  0.1366  0.2260  0.0424
  985YOPC   C3A14313   6.374  12.988   7.015  0.1771  0.0817 -0.0463
  985YOPC   C4A14314   6.802  12.895   6.972 -0.1600  0.1441  0.0982
  985YOPC   C1B14315   6.648  12.305   6.356  0.1792 -0.0541  0.1020
  985YOPC   C2B14316   6.687  12.038   6.663 -0.2099 -0.0615  0.3122
  985YOPC   D3B14317   6.813  12.003   7.064 -0.0435  0.3126 -0.1102
  985YOPC   C4B14318   6.720  12.037   7.611 -0.0538  0.5128 -0.0155
  986YOPC   NC314319  16.311  14.110   5.285  0.2574  0.0381 -0.3348
  986YOPC   PO414320  16.615  14.155   5.740  0.2644  0.5630 -0.0089
  986YOPC   GL114321  16.780  14.165   6.222 -0.0894 -0.0689  0.1756
  986YOPC   GL214322  16.908  13.872   6.465  0.0285 -0.2245 -0.1690
  986YOPC   C1A14323  16.561  14.259   6.576 -0.4461 -0.2040 -0.0149
  986YOPC   D2A14324  16.364  14.147   6.965 -0.2730  0.2985 -0.0591
  986YOPC   C3A14325  16.131  14.301   7.351 -0.0303  0.2476  0.1473
  986YOPC   C4A14326  15.952  14.425   7.744 -0.2367 -0.4028 -0.1698
  986YOPC   C1B14327  16.936  14.007   6.911 -0.2847 -0.0938  0.0370
  986YOPC   C2B14328  17.326  13.933   7.070  0.0751 -0.1019 -0.0150
  986YOPC   D3B14329  17.406  13.783   7.487  0.2929 -0.1690  0.0441
  986YOPC   C4B14330  17.207  13.811   7.810  0.2053 -0.1523 -0.0838
  987YOPC   NC314331   9.030   1.669   5.320  0.2424 -0.0619 -0.0601
  987YOPC   PO414332   8.819   1.417   5.647 -0.0552 -0.5149 -0.3334
  987YOPC   GL114333   8.876   1.275   6.044  0.0053  0.1094  0.2898
  987YOPC   GL214334   8.643   1.029   6.119 -0.0528 -0.1257  0.1309
  987YOPC   C1A14335   9.039   1.245   6.439 -0.1842  0.1792  0.0071
  987YOPC   D2A14336   9.317   1.347   6.747  0.1041  0.0627 -0.1200
  987YOPC   C3A14337   9.232   1.469   7.113 -0.1264 -0.0647 -0.0557
  987YOPC   C4A14338   9.005   1.531   7.459 -0.0363 -0.1056 -0.3667
  987YOPC   C1B14339   8.420   0.822   6.445  0.0908  0.1181 -0.1997
  987YOPC   C2B14340   8.309   0.657   6.816 -0.0572 -0.0917 -0.1436
  987YOPC   D3B14341   8.653   0.738   7.059  0.3831 -0.1541 -0.0526
  987YOPC   C4B14342   8.984   0.685   7.373 -0.1078  0.0586 -0.1432
  988YOPC   NC314343   0.276  10.074   5.533  0.1686 -0.0276  0.1932
  988YOPC   PO414344   0.175  10.305   5.944  0.2056  0.0060  0.2522
  988YOPC   GL114345   0.300  10.271   6.366  0.3893  0.1944  0.2157
  988YOPC   GL214346   0.426   9.970   6.348  0.0249  0.0819 -0.2347
  988YOPC   C1A14347   0.393  10.223   6.797  0.0470  0.0634 -0.1981
  988YOPC   D2A14348   0.545  10.339   7.184  0.0236 -0.2630 -0.1070
  988YOPC   C3A14349   0.647  10.678   7.446  0.2080 -0.2774  0.3495
  988YOPC   C4A14350   0.470  10.659   7.789  0.0233 -0.2452 -0.0923
  988YOPC   C1B14351   0.449   9.543   6.363  0.0310 -0.0027 -0.1681
  988YOPC   C2B14352   0.417   9.111   6.221 -0.1899  0.0064 -0.0516
  988YOPC   D3B14353   0.774   8.897   6.204 -0.3396  0.1676  0.0614
  988YOPC   C4B14354   0.944   8.504   6.233  0.1037  0.0457 -0.1589
  989YOPC   NC314355  10.098   6.263   5.838  0.4376  0.1883 -0.0637
  989YOPC   PO414356  10.263   6.714   5.719  0.0170 -0.1750  0.0191
  989YOPC   GL114357  10.286   6.670   6.081 -0.2480  0.0892  0.2372
  989YOPC   GL214358  10.307   6.900   6.313 -0.1886 -0.4453  0.2593
  989YOPC   C1A14359  10.543   6.557   6.531 -0.2073 -0.1180 -0.0888
  989YOPC   D2A14360  10.536   6.347   6.821 -0.0300  0.2211 -0.2662
  989YOPC   C3A14361  10.827   6.336   7.053 -0.1484 -0.2110 -0.3252
  989YOPC   C4A14362  11.080   6.565   7.366  0.3990  0.0260  0.1101
  989YOPC   C1B14363  10.298   6.823   6.902 -0.0133  0.2462  0.2219
  989YOPC   C2B14364  10.541   6.711   7.159  0.1184  0.1593 -0.0218
  989YOPC   D3B14365  10.263   6.633   7.447  0.0577  0.1490 -0.2754
  989YOPC   C4B14366  10.199   6.735   7.885  0.1136  0.0950 -0.0037
  990YOPC   NC314367  16.140   8.377   5.799  0.0618 -0.0285 -0.1297
  990YOPC   PO414368  15.837   8.654   5.645  0.1870  0.2428  0.1827
  990YOPC   GL114369  15.520   8.630   6.076  0.0094  0.0156  0.0657
  990YOPC   GL214370  15.149   8.677   6.073 -0.2432 -0.0904  0.0940
  990YOPC   C1A14371  15.443   8.555   6.595 -0.1332  0.2742 -0.1180
  990YOPC   D2A14372  15.477   8.531   7.027  0.3561 -0.1462 -0.1047
  990YOPC   C3A14373  15.679   8.423   7.413 -0.1586 -0.0491  0.1389
  990YOPC   C4A14374  15.780   8.049   7.435  0.0256 -0.0710 -0.0489
  990YOPC   C1B14375  15.136   8.905   6.457 -0.0521  0.0896 -0.0689
  990YOPC   C2B14376  15.132   8.905   6.950 -0.1869  0.1212 -0.0724
  990YOPC   D3B14377  14.950   9.151   7.352  0.0098 -0.2562  0.4615
  990YOPC   C4B14378  14.678   9.165   7.730  0.1260  0.4105 -0.0434
  991YOPC   NC314379   2.005  12.001   5.548  0.3510 -0.0785  0.1301
  991YOPC   PO414380   1.766  11.761   5.910 -0.0290  0.3647 -0.5714
  991YOPC   GL114381   1.731  11.912   6.366  0.0314 -0.1765  0.0832
  991YOPC   GL214382   1.649  12.228   6.457 -0.1309  0.1098  0.0476
  991YOPC   C1A14383   1.832  11.851   6.801  0.2874 -0.2374  0.2404
  991YOPC   D2A14384   1.911  11.820   7.180 -0.2137 -0.1538 -0.0302
  991YOPC   C3A14385   1.834  12.140   7.377  0.3520  0.2074  0.0078
  991YOPC   C4A14386   1.774  12.065   7.763  0.2233 -0.0928  0.0747
  991YOPC   C1B14387   1.529  12.471   6.855  0.0990  0.0730  0.0604
  991YOPC   C2B14388   1.369  12.517   7.223  0.0835  0.0596  0.0971
  991YOPC   D3B14389   1.526  12.440   7.619  0.2174 -0.0250  0.1878
  991YOPC   C4B14390   1.849  12.592   7.823  0.1352  0.1375 -0.0260
  992YOPC   NC314391  15.319   4.793   5.215  0.0837 -0.1268 -0.1970
  992YOPC   PO414392  15.309   4.895   5.697  0.3186 -0.0303 -0.0503
  992YOPC   GL114393  15.401   4.849   6.083 -0.0302  0.1400  0.0264
  992YOPC   GL214394  15.683   4.719   6.245  0.0140  0.4407  0.1628
  992YOPC   C1A14395  15.263   4.932   6.473 -0.0843  0.0496 -0.4047
  992YOPC   D2A14396  14.903   4.670   6.757 -0.0258 -0.0092  0.1489
  992YOPC   C3A14397  14.619   4.899   7.120 -0.0855 -0.2191 -0.0682
  992YOPC   C4A14398  14.599   5.186   7.591 -0.2953  0.0901  0.1807
  992YOPC   C1B14399  15.731   4.789   6.682  0.0911 -0.0532 -0.4567
  992YOPC   C2B14400  15.744   4.686   7.078 -0.2501 -0.2381  0.0817
  992YOPC   D3B14401  15.635   4.926   7.390 -0.0779 -0.0212 -0.1925
  992YOPC   C4B14402  15.888   5.280   7.556 -0.0927 -0.1547  0.1157
  993YOPC   NC314403  11.673  15.599   5.945  0.3145 -0.0715  0.1322
  993YOPC   PO414404  11.229  15.594   5.906  0.1672  0.3386  0.1240
  993YOPC   GL114405  11.279  15.578   6.390  0.0156 -0.2730  0.1968
  993YOPC   GL214406  11.337  15.258   6.685  0.0905  0.0281  0.5999
  993YOPC   C1A14407  11.203  15.737   6.793 -0.0396 -0.1495 -0.0148
  993YOPC   D2A14408  11.081  15.966   7.145 -0.3782  0.0521  0.4149
  993YOPC   C3A14409  11.282  15.701   7.566 -0.2626 -0.2294  0.0267
  993YOPC   C4A14410  11.014  15.477   7.894  0.2260 -0.0940  0.0741
  993YOPC   C1B14411  11.474  15.214   7.100  0.0269 -0.1506 -0.3021
  993YOPC   C2B14412  11.393  15.207   7.529  0.1494  0.1021 -0.1096
  993YOPC   D3B14413  11.518  15.188   7.989  0.0553  0.0639 -0.1575
  993YOPC   C4B14414  11.704  14.824   8.235  0.0145 -0.1987 -0.2873
  994YOPC   NC314415  14.283  10.577   6.030 -0.2298  0.0597 -0.2039
  994YOPC   PO414416  14.590  10.183   6.023 -0.1021  0.0224  0.1504
  994YOPC   GL114417  14.572  10.353   6.450 -0.0518 -0.1188 -0.0197
  994YOPC   GL214418  14.832  10.300   6.566 -0.1875  0.0081 -0.0997
  994YOPC   C1A14419  14.418  10.205   6.837 -0.0535 -0.2121  0.1215
  994YOPC   D2A14420  14.397  10.144   7.246 -0.0766 -0.0137  0.0350
  994YOPC   C3A14421  14.564  10.483   7.503 -0.1122 -0.2496  0.0619
  994YOPC   C4A14422  14.829  10.585   7.762  0.1986  0.0525  0.0541
  994YOPC   C1B14423  14.880  10.247   6.997 -0.0706  0.1450 -0.2183
  994YOPC   C2B14424  15.008  10.124   7.423  0.3101 -0.0265  0.1320
  994YOPC   D3B14425  14.690  10.108   7.794  0.0366 -0.0681 -0.0309
  994YOPC   C4B14426  14.500  10.005   8.180 -0.1061  0.0602  0.0547
  995YOPC   NC314427   4.884   9.099   5.436 -0.0338 -0.0264 -0.1258
  995YOPC   PO414428   5.006   8.990   5.899 -0.1607  0.0479 -0.3020
  995YOPC   GL114429   4.690   9.077   6.205  0.1025  0.1791  0.2793
  995YOPC   GL214430   4.579   8.780   6.026 -0.2312 -0.1197 -0.4151
  995YOPC   C1A14431   4.624   9.201   6.665  0.1382  0.0803  0.1700
  995YOPC   D2A14432   4.457   8.933   6.954  0.1151 -0.0446  0.2267
  995YOPC   C3A14433   4.731   8.692   7.119 -0.1592 -0.0168  0.0162
  995YOPC   C4A14434   4.886   8.723   7.567  0.2998 -0.0708  0.2000
  995YOPC   C1B14435   4.443   8.698   6.451 -0.3523  0.0740 -0.1767
  995YOPC   C2B14436   4.146   8.547   6.710  0.0236  0.1351  0.3626
  995YOPC   D3B14437   4.029   8.737   7.003  0.0360 -0.0155  0.2076
  995YOPC   C4B14438   4.063   8.675   7.364 -0.0363 -0.2766  0.1372
  996YOPC   NC314439  14.025   6.006   5.378  0.0736  0.0785 -0.2579
  996YOPC   PO414440  14.002   5.535   5.517  0.1657  0.0937  0.3568
  996YOPC   GL114441  14.284   5.519   5.842 -0.0046  0.0604 -0.1739
  996YOPC   GL214442  14.588   5.568   5.922  0.1334 -0.1493 -0.1386
  996YOPC   C1A14443  14.281   5.259   6.186 -0.2398 -0.0157  0.1139
  996YOPC   D2A14444  14.399   5.446   6.596  0.1086  0.3731 -0.0452
  996YOPC   C3A14445  14.654   5.395   6.945 -0.1684  0.1571 -0.3844
  996YOPC   C4A14446  15.034   5.250   7.209  0.2419  0.2147 -0.0802
  996YOPC   C1B14447  14.560   5.863   6.328  0.3490  0.1187 -0.1629
  996YOPC   C2B14448  14.780   5.833   6.732  0.2122 -0.0706  0.0566
  996YOPC   D3B14449  14.535   5.991   7.014  0.0196 -0.0397  0.0140
  996YOPC   C4B14450  14.271   6.101   7.248  0.2732  0.2234  0.2653
  997YOPC   NC314451  13.403  16.716   5.627 -0.2951 -0.0897 -0.0118
  997YOPC   PO414452  12.958  16.887   5.573 -0.1148 -0.0804  0.0525
  997YOPC   GL114453  13.100  17.144   5.827  0.0391 -0.0411  0.3532
  997YOPC   GL214454  13.304  17.423   5.875 -0.1009  0.0730  0.0694
  997YOPC   C1A14455  12.932  17.342   6.254 -0.0769 -0.0333 -0.0786
  997YOPC   D2A14456  12.874  17.197   6.629 -0.0732 -0.2056  0.0787
  997YOPC   C3A14457  12.972  17.401   7.008  0.0965  0.0800  0.0458
  997YOPC   C4A14458  12.596  17.472   7.294 -0.0751 -0.0542  0.2086
  997YOPC   C1B14459  13.469  17.339   6.292  0.0031 -0.0389  0.2381
  997YOPC   C2B14460  13.767  17.150   6.389 -0.1585 -0.0468 -0.0052
  997YOPC   D3B14461  13.986  17.218   6.883 -0.1477  0.0572  0.3041
  997YOPC   C4B14462  14.383  17.228   7.139  0.2131 -0.0804  0.1333
  998YOPC   NC314463  14.238   0.147   5.415  0.0107 -0.4652  0.0843
  998YOPC   PO414464  14.516   0.510   5.447  0.0042  0.2618  0.1646
  998YOPC   GL114465  14.508   0.457   5.817  0.0976  0.1192  0.0311
  998YOPC   GL214466  14.696   0.139   5.823  0.0933  0.0493  0.0901
  998YOPC   C1A14467  14.657   0.508   6.246  0.1457  0.3633 -0.0592
  998YOPC   D2A14468  14.788   0.591   6.687 -0.1195  0.1781  0.2969
  998YOPC   C3A14469  14.668   0.913   6.705  0.1100 -0.1437 -0.0537
  998YOPC   C4A14470  14.863   1.236   6.678 -0.0065 -0.3651 -0.1988
  998YOPC   C1B14471  15.105   0.255   6.064  0.0139  0.0198  0.1382
  998YOPC   C2B14472  15.218   0.797   5.968  0.0336  0.1012 -0.1233
  998YOPC   D3B14473  14.848   0.956   6.167 -0.0669 -0.0554 -0.1443
  998YOPC   C4B14474  14.395   0.894   6.148 -0.0500  0.0972  0.0560
  999YOPC   NC314475   7.730   9.871   5.430 -0.0926 -0.0797  0.1273
  999YOPC   PO414476   8.018   9.654   5.740 -0.2942  0.3963 -0.0666
  999YOPC   GL114477   7.841   9.753   6.128  0.3383  0.4383  0.1017
  999YOPC   GL214478   7.568   9.844   6.115 -0.3738 -0.0499 -0.2196
  999YOPC   C1A14479   7.907   9.850   6.513 -0.3337  0.2525  0.1742
  999YOPC   D2A14480   8.328   9.773   6.821  0.1698 -0.1223  0.3657
  999YOPC   C3A14481   8.431   9.770   7.272  0.1010  0.0795 -0.0428
  999YOPC   C4A14482   8.297  10.116   7.588 -0.0943  0.0169 -0.4137
  999YOPC   C1B14483   7.476  10.037   6.628 -0.3601 -0.1157 -0.0303
  999YOPC   C2B14484   7.357  10.096   7.070 -0.1639 -0.0411  0.0329
  999YOPC   D3B14485   7.358  10.088   7.511  0.0223 -0.3183  0.1990
  999YOPC   C4B14486   7.205   9.907   7.858  0.3626 -0.2560 -0.0508
 1000YOPC   NC314487  10.279  12.368   5.563  0.0028 -0.2271  0.2295
 1000YOPC   PO414488   9.840  12.537   5.712  0.2302  0.1555 -0.2861
 1000YOPC   GL114489   9.537  12.438   5.987 -0.1735  0.0326  0.1485
 1000YOPC   GL214490   9.328  12.688   6.142 -0.1904 -0.0215 -0.4664
 1000YOPC   C1A14491   9.209  12.195   6.355 -0.1847 -0.2421 -0.2285
 1000YOPC   D2A14492   8.840  12.211   6.327  0.1213 -0.2893  0.1922
 1000YOPC   C3A14493   8.607  11.928   6.441 -0.2284  0.1919  0.1231
 1000YOPC   C4A14494   8.619  11.484   6.480 -0.1499 -0.2526 -0.1205
 1000YOPC   C1B14495   9.019  12.676   6.488 -0.2219  0.0929 -0.0453
 1000YOPC   C2B14496   8.770  12.489   6.798  0.0136  0.4049 -0.0828
 1000YOPC   D3B14497   8.741  12.556   7.163 -0.2990  0.2434 -0.0401
 1000YOPC   C4B14498   8.542  12.358   7.505  0.0219 -0.2490  0.1573
 1001YOPC   NC314499   6.754   7.236   5.719  0.3829 -0.2197  0.1046
 1001YOPC   PO414500   6.753   6.833   5.838 -0.0680 -0.1289  0.1667
 1001YOPC   GL114501   6.469   6.968   6.123 -0.0593 -0.3583  0.0566
 1001YOPC   GL214502   6.617   7.286   6.203 -0.1528  0.0980 -0.5084
 1001YOPC   C1A14503   6.159   6.834   6.320  0.0189  0.3608  0.2371
 1001YOPC   D2A14504   5.967   6.562   6.548 -0.2396  0.0453  0.1155
 1001YOPC   C3A14505   6.186   6.357   6.919  0.0682  0.0384  0.0457
 1001YOPC   C4A14506   6.312   6.138   7.251  0.0118 -0.2770 -0.3603
 1001YOPC   C1B14507   6.710   7.349   6.621 -0.0003  0.1374 -0.3634
 1001YOPC   C2B14508   6.745   7.535   7.067  0.1937  0.0516 -0.0720
 1001YOPC   D3B14509   6.514   7.537   7.485 -0.1837  0.0666 -0.1729
 1001YOPC   C4B14510   6.171   7.582   7.859  0.2941  0.0637  0.1522
 1002YOPC   NC314511   4.585  14.569   4.889  0.4383 -0.1754  0.1224
 1002YOPC   PO414512   4.807  14.535   5.243  0.0855 -0.0422 -0.0423
 1002YOPC   GL114513   4.495  14.656   5.602  0.0053  0.1238  0.1117
 1002YOPC   GL214514   4.196  14.446   5.835 -0.2225  0.2781  0.2254
 1002YOPC   C1A14515   4.520  14.802   6.025  0.1792 -0.1986  0.0357
 1002YOPC   D2A14516   4.630  15.031   6.322  0.2136 -0.0797 -0.2943
 1002YOPC   C3A14517   4.729  15.031   6.756  0.1080  0.2327 -0.1165
 1002YOPC   C4A14518   4.706  15.123   7.197  0.0627 -0.0734 -0.0602
 1002YOPC   C1B14519   4.417  14.376   6.282 -0.2854  0.0051  0.1409
 1002YOPC   C2B14520   4.260  14.207   6.614  0.0029  0.0937 -0.3010
 1002YOPC   D3B14521   4.584  14.179   6.968 -0.2196 -0.0500  0.0367
 1002YOPC   C4B14522   4.669  13.870   7.188 -0.0709  0.2084 -0.1086
 1003YOPC   NC314523   0.975   7.730   5.440 -0.2110  0.1389  0.2412
 1003YOPC   PO414524   0.697   7.438   5.616 -0.0549 -0.0762  0.2201
 1003YOPC   GL114525   0.986   7.396   5.895  0.2403 -0.0684 -0.0982
 1003YOPC   GL214526   0.995   7.489   6.115 -0.1025 -0.3478 -0.0774
 1003YOPC   C1A14527   1.465   7.449   5.960 -0.0623  0.0105 -0.0706
 1003YOPC   D2A14528   1.726   7.210   6.172  0.0487 -0.0317  0.4350
 1003YOPC   C3A14529   1.809   6.929   6.544  0.0500 -0.0540  0.0189
 1003YOPC   C4A14530   1.735   7.059   6.941 -0.2646  0.0881 -0.0284
 1003YOPC   C1B14531   1.157   7.551   6.451  0.4026  0.0909  0.0964
 1003YOPC   C2B14532   1.181   7.572   6.810 -0.0752  0.1038  0.3111
 1003YOPC   D3B14533   1.514   7.474   7.144 -0.3127 -0.2856 -0.2971
 1003YOPC   C4B14534   2.058   7.557   7.139 -0.3858 -0.3001  0.1226
 1004YOPC   NC314535   6.999  10.779   5.353 -0.0248 -0.0313  0.4459
 1004YOPC   PO414536   6.750  10.391   5.314 -0.1500  0.2099  0.2042
 1004YOPC   GL114537   6.946  10.345   5.745 -0.0568  0.1528 -0.0187
 1004YOPC   GL214538   7.112  10.594   5.836 -0.1048  0.1780  0.1923
 1004YOPC   C1A14539   6.760  10.151   6.125 -0.1316 -0.0704 -0.0110
 1004YOPC   D2A14540   6.877  10.264   6.577  0.1776  0.0643 -0.0035
 1004YOPC   C3A14541   6.843  10.019   6.976 -0.0508  0.1774  0.2959
 1004YOPC   C4A14542   6.890   9.984   7.401  0.2170  0.1974 -0.1736
 1004YOPC   C1B14543   7.468  10.761   6.131  0.1127 -0.2972 -0.4365
 1004YOPC   C2B14544   7.805  10.747   6.152 -0.0196 -0.0309 -0.0196
 1004YOPC   D3B14545   8.105  10.773   6.452  0.4380  0.0763  0.0364
 1004YOPC   C4B14546   8.063  10.817   6.873  0.0329  0.1102  0.2317
 1005YOPC   NC314547   3.078  11.489   5.294 -0.0105 -0.1070 -0.1521
 1005YOPC   PO414548   3.431  11.597   5.591  0.2791  0.0363  0.0075
 1005YOPC   GL114549   3.587  11.630   5.940  0.0904  0.0226  0.1414
 1005YOPC   GL214550   3.890  11.607   6.077 -0.0479 -0.1437  0.2444
 1005YOPC   C1A14551   3.457  11.645   6.426  0.0733 -0.0681 -0.1239
 1005YOPC   D2A14552   3.360  11.369   6.750 -0.0929  0.2054 -0.1132
 1005YOPC   C3A14553   3.008  11.344   6.937  0.4348  0.1660 -0.1796
 1005YOPC   C4A14554   2.637  11.559   6.869  0.0304 -0.0495 -0.2667
 1005YOPC   C1B14555   3.965  11.389   6.473 -0.2085 -0.1623  0.1605
 1005YOPC   C2B14556   3.862  11.398   6.889 -0.2291 -0.1520 -0.1553
 1005YOPC   D3B14557   3.938  11.662   7.190 -0.0673 -0.0868  0.0672
 1005YOPC   C4B14558   3.773  12.111   7.222  0.0610  0.0194  0.2463
 1006YOPC   NC314559  10.226   1.512   5.015 -0.3136  0.1906 -0.0590
 1006YOPC   PO414560  10.231   1.378   5.429  0.0832  0.1148 -0.0726
 1006YOPC   GL114561  10.161   1.596   5.807  0.2655  0.0506 -0.3374
 1006YOPC   GL214562  10.432   1.518   5.883 -0.0781 -0.0960 -0.0167
 1006YOPC   C1A14563  10.058   1.626   6.239 -0.4599 -0.2085  0.1954
 1006YOPC   D2A14564   9.824   1.794   6.626  0.0552  0.2417 -0.1956
 1006YOPC   C3A14565   9.723   1.641   7.013  0.2033  0.1492 -0.2978
 1006YOPC   C4A14566   9.642   1.623   7.530  0.2946 -0.0741  0.0171
 1006YOPC   C1B14567  10.610   1.768   6.138  0.2803  0.0171 -0.1941
 1006YOPC   C2B14568  10.886   1.733   6.480  0.1831  0.1533  0.0030
 1006YOPC   D3B14569  10.787   1.333   6.618 -0.1236  0.0875  0.1009
 1006YOPC   C4B14570  10.848   0.909   6.593  0.3008  0.0766 -0.0983
 1007YOPC   NC314571   8.369  14.853   5.415  0.0980  0.5801  0.2632
 1007YOPC   PO414572   8.596  14.958   5.710  0.1149 -0.1536  0.2721
 1007YOPC   GL114573   8.213  14.823   5.959  0.0919 -0.0749 -0.0230
 1007YOPC   GL214574   8.332  14.422   6.097 -0.0369  0.2169 -0.3950
 1007YOPC   C1A14575   8.249  14.855   6.448  0.1550 -0.0648 -0.0921
 1007YOPC   D2A14576   8.272  15.059   6.700  0.2474  0.1860 -0.1331
 1007YOPC   C3A14577   8.338  14.980   7.211  0.2295  0.1535 -0.1910
 1007YOPC   C4A14578   8.072  14.792   7.514  0.0973 -0.4679 -0.3478
 1007YOPC   C1B14579   8.130  14.243   6.420 -0.0106  0.3497 -0.0201
 1007YOPC   C2B14580   7.672  14.136   6.606  0.0998  0.4278  0.2374
 1007YOPC   D3B14581   7.522  14.454   6.897 -0.0877  0.3143 -0.1108
 1007YOPC   C4B14582   7.767  14.466   7.304 -0.2263 -0.1704 -0.0428
 1008YOPC   NC314583  11.833  14.890   5.827  0.1728 -0.0354  0.0274
 1008YOPC   PO414584  12.028  15.273   5.914  0.0510 -0.3078 -0.0917
 1008YOPC   GL114585  11.917  15.463   6.350 -0.3977  0.0347  0.0085
 1008YOPC   GL214586  12.181  15.694   6.227  0.0676  0.2354  0.1019
 1008YOPC   C1A14587  11.769  15.550   6.790  0.2558 -0.0444  0.1908
 1008YOPC   D2A14588  11.572  15.742   7.165  0.0201  0.2615 -0.0489
 1008YOPC   C3A14589  11.895  15.892   7.443  0.0022  0.1717  0.0901
 1008YOPC   C4A14590  12.099  16.148   7.712 -0.3022 -0.0301  0.0438
 1008YOPC   C1B14591  12.245  15.593   6.737 -0.1088  0.0981  0.2203
 1008YOPC   C2B14592  12.182  15.638   7.075  0.0168 -0.0783 -0.4898
 1008YOPC   D3B14593  12.378  15.489   7.321 -0.0747 -0.0383  0.2235
 1008YOPC   C4B14594  12.610  15.238   7.481  0.2451  0.2036  0.0563
 1009YOPC   NC314595   1.812  15.475   5.862  0.1398 -0.1436 -0.1527
 1009YOPC   PO414596   1.670  15.849   5.873 -0.3096 -0.0232 -0.2437
 1009YOPC   GL114597   1.838  16.162   6.200 -0.0498 -0.2486 -0.1291
 1009YOPC   GL214598   1.592  16.416   6.221 -0.1732  0.4649 -0.1999
 1009YOPC   C1A14599   1.880  16.386   6.607  0.0795  0.1243  0.1078
 1009YOPC   D2A14600   1.815  16.222   7.075 -0.0350  0.2656  0.1182
 1009YOPC   C3A14601   2.034  15.873   7.245  0.2143  0.1475 -0.0388
 1009YOPC   C4A14602   2.015  15.592   7.687 -0.2937 -0.1586  0.0459
 1009YOPC   C1B14603   1.744  16.757   6.281  0.1328  0.1152 -0.4125
 1009YOPC   C2B14604   1.914  16.866   6.682 -0.0344 -0.0679 -0.0670
 1009YOPC   D3B14605   1.805  17.123   7.078 -0.1504  0.1183  0.2671
 1009YOPC   C4B14606   1.890  16.998   7.534  0.1931 -0.4521  0.0248
 1010YOPC   NC314607   9.759   6.733   5.669 -0.1730 -0.3530  0.0174
 1010YOPC   PO414608   9.514   7.148   5.643  0.0471  0.3752 -0.1427
 1010YOPC   GL114609   9.551   7.182   6.007 -0.3277  0.1019  0.2324
 1010YOPC   GL214610   9.635   7.412   6.103 -0.3185  0.4268 -0.0413
 1010YOPC   C1A14611   9.783   7.028   6.354 -0.0198 -0.1931 -0.1850
 1010YOPC   D2A14612   9.915   7.130   6.757  0.3058 -0.1822 -0.1530
 1010YOPC   C3A14613   9.827   7.521   7.079  0.0100  0.2081  0.0439
 1010YOPC   C4A14614  10.146   7.548   7.418  0.0583  0.2104  0.1073
 1010YOPC   C1B14615   9.298   7.226   6.403  0.0613  0.2344 -0.2035
 1010YOPC   C2B14616   9.183   7.302   6.769 -0.0675  0.0626  0.2956
 1010YOPC   D3B14617   9.342   7.395   7.135  0.1904 -0.1825 -0.1659
 1010YOPC   C4B14618   9.649   7.343   7.490  0.0672 -0.1902  0.1079
 1011YOPC   NC314619   5.709   4.696   5.803  0.3322 -0.0659 -0.1631
 1011YOPC   PO414620   5.917   4.999   6.000  0.2095 -0.1773  0.0860
 1011YOPC   GL114621   5.833   4.850   6.308  0.1326  0.1207 -0.0750
 1011YOPC   GL214622   5.523   4.996   6.306  0.2830 -0.1056 -0.1221
 1011YOPC   C1A14623   5.784   4.827   6.728 -0.0654 -0.0720  0.2273
 1011YOPC   D2A14624   5.696   4.758   7.169 -0.1842 -0.1081  0.0750
 1011YOPC   C3A14625   5.922   4.763   7.494  0.2363  0.1627  0.1242
 1011YOPC   C4A14626   5.963   4.751   7.874 -0.0879  0.1660 -0.2795
 1011YOPC   C1B14627   5.307   4.946   6.662  0.0688  0.2063 -0.1341
 1011YOPC   C2B14628   5.216   4.885   7.091  0.0445 -0.3112  0.1362
 1011YOPC   D3B14629   5.374   5.029   7.554  0.0955  0.1049 -0.2997
 1011YOPC   C4B14630   5.588   4.949   8.045  0.0501  0.0464  0.3785
 1012YOPC   NC314631   1.356   0.967   5.503 -0.2821  0.1859 -0.2248
 1012YOPC   PO414632   0.979   0.738   5.617  0.0844  0.0612  0.1916
 1012YOPC   GL114633   0.853   0.508   5.979  0.0912 -0.0926 -0.0984
 1012YOPC   GL214634   0.967   0.200   5.968  0.1364  0.0141  0.1109
 1012YOPC   C1A14635   0.844   0.383   6.386 -0.0196 -0.1746 -0.1735
 1012YOPC   D2A14636   0.884   0.346   6.819  0.0133  0.2282 -0.3613
 1012YOPC   C3A14637   1.125   0.166   7.094  0.0466 -0.3683 -0.0962
 1012YOPC   C4A14638   1.353   0.004   7.290  0.0921 -0.0351 -0.0979
 1012YOPC   C1B14639   1.018  -0.041   6.364  0.0507  0.2794 -0.0460
 1012YOPC   C2B14640   1.245  -0.071   6.683  0.2371  0.0902 -0.0149
 1012YOPC   D3B14641   0.998  -0.276   6.975 -0.0894  0.2206 -0.1262
 1012YOPC   C4B14642   0.820  -0.549   7.309 -0.2605  0.2402  0.2984
 1013YOPC   NC314643   5.689   3.807   5.706 -0.1392 -0.0825  0.2109
 1013YOPC   PO414644   5.464   4.234   5.666  0.1124  0.3648  0.0420
 1013YOPC   GL114645   5.461   4.037   6.098  0.1051 -0.1427 -0.2993
 1013YOPC   GL214646   5.105   4.055   6.213  0.3090 -0.0914 -0.2243
 1013YOPC   C1A14647   5.444   3.840   6.553  0.3131 -0.0397 -0.4516
 1013YOPC   D2A14648   5.558   3.697   6.901 -0.3641 -0.0715 -0.0996
 1013YOPC   C3A14649   5.273   3.467   7.119  0.2560  0.0757  0.2045
 1013YOPC   C4A14650   4.937   3.445   7.367 -0.0646  0.0527 -0.0233
 1013YOPC   C1B14651   4.887   4.097   6.637 -0.0757  0.0537 -0.0651
 1013YOPC   C2B14652   5.035   3.901   6.924  0.0213  0.0545 -0.0379
 1013YOPC   D3B14653   5.341   3.957   7.245  0.0219  0.0457 -0.3169
 1013YOPC   C4B14654   5.531   3.717   7.507 -0.3068 -0.1724 -0.2782
 1014YOPC   NC314655   2.462  14.970   5.417  0.1597  0.0635 -0.1907
 1014YOPC   PO414656   2.075  14.957   5.647 -0.1059  0.0106 -0.4121
 1014YOPC   GL114657   2.146  15.070   6.025  0.0469  0.4736 -0.2828
 1014YOPC   GL214658   2.489  14.990   5.979  0.0864  0.0696 -0.0779
 1014YOPC   C1A14659   2.225  14.952   6.395 -0.0732  0.0300  0.2525
 1014YOPC   D2A14660   2.076  14.732   6.744  0.4631  0.2196 -0.0789
 1014YOPC   C3A14661   2.378  14.807   7.086 -0.2508  0.0287  0.0385
 1014YOPC   C4A14662   2.855  14.761   7.301 -0.1411 -0.1501 -0.1009
 1014YOPC   C1B14663   2.744  14.937   6.242 -0.0868  0.2967 -0.0606
 1014YOPC   C2B14664   3.143  15.046   6.334  0.0885  0.1276  0.1709
 1014YOPC   D3B14665   3.187  15.305   6.762  0.0031 -0.2453 -0.0215
 1014YOPC   C4B14666   3.232  15.202   7.196  0.0628 -0.0421 -0.0095
 1015YOPC   NC314667  17.048   8.631   5.640 -0.0871  0.1755  0.0028
 1015YOPC   PO414668  16.679   8.568   5.865 -0.0755 -0.2386 -0.0442
 1015YOPC   GL114669  16.731   8.804   6.201 -0.0303  0.0979  0.2736
 1015YOPC   GL214670  16.485   9.095   6.215 -0.0891 -0.6126 -0.2304
 1015YOPC   C1A14671  16.869   8.936   6.537  0.1157  0.0024 -0.0201
 1015YOPC   D2A14672  17.123   8.667   6.703 -0.1447 -0.1067  0.2474
 1015YOPC   C3A14673  17.250   8.661   7.110  0.1139  0.0680  0.0443
 1015YOPC   C4A14674  17.453   8.679   7.518  0.2302  0.0043 -0.2476
 1015YOPC   C1B14675  16.326   9.097   6.672  0.1195 -0.0613 -0.1250
 1015YOPC   C2B14676  16.189   9.082   7.126 -0.1805  0.2083 -0.1091
 1015YOPC   D3B14677  16.014   8.719   7.278 -0.0398 -0.0213  0.1028
 1015YOPC   C4B14678  16.076   8.482   7.750 -0.0165  0.3012 -0.2418
 1016YOPC   NC314679   5.345   7.275   5.636 -0.0668 -0.0596 -0.0861
 1016YOPC   PO414680   5.066   7.624   5.662 -0.1712 -0.1322 -0.1643
 1016YOPC   GL114681   5.007   7.542   6.098  0.0672 -0.1487 -0.0983
 1016YOPC   GL214682   5.201   7.829   6.293  0.0163 -0.2350 -0.0660
 1016YOPC   C1A14683   4.754   7.684   6.502 -0.0638  0.0345  0.2653
 1016YOPC   D2A14684   4.616   7.856   7.012  0.0441  0.0757 -0.0412
 1016YOPC   C3A14685   4.304   7.698   7.328  0.0147 -0.1797 -0.1987
 1016YOPC   C4A14686   3.845   7.725   7.309  0.3003 -0.0829 -0.2818
 1016YOPC   C1B14687   5.221   7.980   6.767 -0.1100  0.0067 -0.0459
 1016YOPC   C2B14688   5.226   7.882   7.209 -0.0294 -0.1175 -0.3177
 1016YOPC   D3B14689   4.925   7.864   7.488  0.0107  0.0463  0.3060
 1016YOPC   C4B14690   4.742   7.928   7.950 -0.2281  0.1812 -0.2105
 1017YOPC   NC314691  11.846  12.187   5.870  0.0397 -0.2706 -0.0321
 1017YOPC   PO414692  11.572  11.914   6.171 -0.0896 -0.0763 -0.1714
 1017YOPC   GL114693  11.764  12.156   6.397 -0.0711  0.3183  0.1165
 1017YOPC   GL214694  11.942  12.390   6.352  0.0051 -0.2763 -0.1096
 1017YOPC   C1A14695  11.941  12.374   6.857 -0.0154  0.0199  0.1322
 1017YOPC   D2A14696  11.795  12.672   7.151 -0.2932 -0.0747 -0.2226
 1017YOPC   C3A14697  11.795  12.601   7.574  0.1824  0.1922 -0.0353
 1017YOPC   C4A14698  11.731  12.810   7.959  0.3745 -0.1898 -0.0412
 1017YOPC   C1B14699  12.266  12.613   6.561 -0.3058  0.0534  0.0941
 1017YOPC   C2B14700  12.371  12.954   6.897  0.0633  0.0155  0.1384
 1017YOPC   D3B14701  12.244  12.752   7.285  0.0587  0.2907 -0.1050
 1017YOPC   C4B14702  12.229  12.473   7.684 -0.0522 -0.0648  0.0924
 1018YOPC   NC314703   8.854  18.211   5.204  0.1674 -0.0372 -0.1818
 1018YOPC   PO414704   8.748  18.545   5.438  0.0815  0.0655  0.1325
 1018YOPC   GL114705   8.935  18.370   5.848  0.1217 -0.0954 -0.0272
 1018YOPC   GL214706   8.690  18.520   6.050  0.1305 -0.1571  0.0466
 1018YOPC   C1A14707   8.966  18.117   6.183  0.0147 -0.0645 -0.0974
 1018YOPC   D2A14708   8.990  18.201   6.614 -0.1437  0.0546  0.3525
 1018YOPC   C3A14709   9.155  18.345   6.935 -0.1231 -0.1899  0.0884
 1018YOPC   C4A14710   9.265  18.258   7.221  0.2667 -0.1598 -0.1270
 1018YOPC   C1B14711   8.411  18.230   6.207  0.1303  0.2226  0.1638
 1018YOPC   C2B14712   8.027  17.895   6.151 -0.2432  0.2037  0.1364
 1018YOPC   D3B14713   8.093  17.551   6.384  0.1423  0.0780 -0.0069
 1018YOPC   C4B14714   8.168  17.563   6.820  0.1114 -0.0426 -0.1537
 1019YOPC   NC314715  14.207   0.921   5.461  0.1136 -0.0397 -0.3390
 1019YOPC   PO414716  13.998   0.567   5.339  0.2731 -0.0668  0.1701
 1019YOPC   GL114717  13.963   0.599   5.859  0.0893 -0.2231  0.3221
 1019YOPC   GL214718  13.863   0.822   6.058  0.3874  0.1134  0.3350
 1019YOPC   C1A14719  14.152   0.447   6.217  0.2152 -0.0737 -0.3626
 1019YOPC   D2A14720  14.337   0.479   6.641 -0.1778 -0.0316 -0.0276
 1019YOPC   C3A14721  14.338   0.439   7.025  0.1174  0.0419 -0.0505
 1019YOPC   C4A14722  14.144   0.699   7.375  0.0164  0.2422 -0.1000
 1019YOPC   C1B14723  13.954   0.781   6.528  0.0232  0.1512 -0.1830
 1019YOPC   C2B14724  13.887   0.754   6.924  0.1655  0.1563  0.0705
 1019YOPC   D3B14725  13.489   0.940   7.000 -0.2461  0.0927 -0.1329
 1019YOPC   C4B14726  13.439   1.350   7.139 -0.1654  0.0688  0.0631
 1020YOPC   NC314727   7.858   6.552   6.076  0.2278 -0.3365 -0.0242
 1020YOPC   PO414728   8.155   6.957   6.108  0.0810  0.0306 -0.0307
 1020YOPC   GL114729   8.095   7.249   6.435  0.4339 -0.0015 -0.1891
 1020YOPC   GL214730   8.317   7.379   6.539  0.2225 -0.0161 -0.0147
 1020YOPC   C1A14731   7.914   7.251   6.852 -0.1350 -0.4177 -0.1125
 1020YOPC   D2A14732   7.570   7.338   7.192 -0.0084  0.0906 -0.0374
 1020YOPC   C3A14733   7.576   7.373   7.545 -0.3534  0.0739 -0.0912
 1020YOPC   C4A14734   7.802   7.128   7.928  0.2382 -0.0091 -0.1786
 1020YOPC   C1B14735   8.656   7.284   6.794 -0.1734  0.0001 -0.0140
 1020YOPC   C2B14736   8.858   7.382   7.164  0.2226  0.0376 -0.1207
 1020YOPC   D3B14737   8.694   7.352   7.536 -0.1294  0.1662  0.0510
 1020YOPC   C4B14738   8.794   7.060   7.808 -0.0126  0.0777  0.2611
 1021YOPC   NC314739  15.651  12.476   5.390  0.0646 -0.1419  0.1685
 1021YOPC   PO414740  16.069  12.682   5.391  0.2596  0.2266 -0.1563
 1021YOPC   GL114741  16.077  12.367   5.675 -0.3041  0.2243 -0.0755
 1021YOPC   GL214742  15.961  12.626   5.908  0.0010  0.1229  0.1073
 1021YOPC   C1A14743  16.286  12.329   6.093  0.0641 -0.3087 -0.3033
 1021YOPC   D2A14744  16.221  12.109   6.424 -0.0282 -0.1646 -0.0025
 1021YOPC   C3A14745  16.144  12.345   6.826 -0.0141  0.1275 -0.0852
 1021YOPC   C4A14746  16.048  12.610   7.079 -0.0832 -0.0013  0.0941
 1021YOPC   C1B14747  15.927  12.556   6.358  0.1284  0.1919 -0.2149
 1021YOPC   C2B14748  15.981  12.814   6.613 -0.2256 -0.0059  0.1663
 1021YOPC   D3B14749  15.699  12.942   6.861  0.2486  0.1120  0.1193
 1021YOPC   C4B14750  15.689  13.095   7.220  0.4194  0.1119 -0.2168
 1022YOPC   NC314751   3.685   5.534   5.284 -0.1569  0.0903  0.0443
 1022YOPC   PO414752   3.833   5.324   5.486 -0.0772 -0.0029  0.0206
 1022YOPC   GL114753   3.892   5.171   5.975 -0.0921  0.1730 -0.0816
 1022YOPC   GL214754   3.605   5.326   6.238  0.0116 -0.0531 -0.1219
 1022YOPC   C1A14755   4.061   5.025   6.350 -0.0501 -0.0646  0.0616
 1022YOPC   D2A14756   4.258   5.090   6.647  0.1873  0.2495  0.2762
 1022YOPC   C3A14757   4.274   5.088   7.040 -0.0829  0.1939 -0.1230
 1022YOPC   C4A14758   4.442   5.412   7.428 -0.0961  0.1036  0.0142
 1022YOPC   C1B14759   3.901   5.415   6.639  0.0389 -0.0124  0.1520
 1022YOPC   C2B14760   3.982   5.664   6.977 -0.1945 -0.0432  0.1324
 1022YOPC   D3B14761   3.949   6.073   6.936  0.0552 -0.0537  0.0150
 1022YOPC   C4B14762   3.969   6.466   6.889 -0.3776  0.0617 -0.0089
 1023YOPC   NC314763   1.993   1.207   5.845 -0.2156  0.2609 -0.0481
 1023YOPC   PO414764   1.867   1.621   5.892  0.1713  0.0360 -0.0253
 1023YOPC   GL114765   1.941   2.067   5.967  0.0067  0.1783 -0.0405
 1023YOPC   GL214766   2.146   1.950   6.184 -0.1154  0.0177  0.1736
 1023YOPC   C1A14767   1.886   2.368   6.217 -0.2914 -0.2366 -0.0697
 1023YOPC   D2A14768   2.072   2.762   6.343  0.0801  0.1019  0.3542
 1023YOPC   C3A14769   2.188   2.815   6.771 -0.0510  0.2258  0.1841
 1023YOPC   C4A14770   2.308   2.993   7.103  0.1035  0.1639  0.2749
 1023YOPC   C1B14771   2.222   2.122   6.562 -0.2050 -0.2077 -0.1063
 1023YOPC   C2B14772   2.136   2.301   6.937  0.0155  0.0546 -0.3850
 1023YOPC   D3B14773   1.954   2.201   7.368 -0.1916 -0.0245  0.0152
 1023YOPC   C4B14774   1.744   1.851   7.541 -0.1357  0.3563  0.0622
 1024YOPC   NC314775   1.305   4.384   5.501 -0.1541 -0.0718  0.2358
 1024YOPC   PO414776   1.499   4.051   5.744  0.1158 -0.0350  0.0762
 1024YOPC   GL114777   1.546   4.005   6.148  0.2352  0.0026  0.4848
 1024YOPC   GL214778   1.791   3.810   6.293  0.1585  0.1634 -0.3415
 1024YOPC   C1A14779   1.521   4.131   6.615  0.0733 -0.2233 -0.0034
 1024YOPC   D2A14780   1.374   4.356   6.940  0.2279 -0.1987  0.1540
 1024YOPC   C3A14781   1.373   4.294   7.392  0.0705 -0.1144  0.2265
 1024YOPC   C4A14782   1.171   4.190   7.737 -0.1708 -0.1827 -0.1301
 1024YOPC   C1B14783   1.940   3.824   6.615 -0.2337 -0.0867 -0.1187
 1024YOPC   C2B14784   1.828   3.860   6.933  0.0564  0.1074  0.1116
 1024YOPC   D3B14785   1.780   4.181   7.146  0.2097 -0.1159 -0.0371
 1024YOPC   C4B14786   1.971   4.571   7.209 -0.4560  0.4908 -0.1861
 1025YOPC   NC314787  15.139   1.086   5.597 -0.0030 -0.1907  0.3224
 1025YOPC   PO414788  14.880   1.444   5.429  0.2949  0.0359  0.1982
 1025YOPC   GL114789  14.917   1.516   5.811  0.1967  0.0599  0.2056
 1025YOPC   GL214790  14.617   1.582   5.869 -0.2253 -0.2812  0.2430
 1025YOPC   C1A14791  15.069   1.395   6.245  0.2082  0.3299  0.2910
 1025YOPC   D2A14792  15.364   1.517   6.422  0.0432  0.2636  0.0040
 1025YOPC   C3A14793  15.365   1.443   6.809  0.1303  0.1726  0.1893
 1025YOPC   C4A14794  15.145   1.459   7.128 -0.3723 -0.0050 -0.1284
 1025YOPC   C1B14795  14.522   1.378   6.309 -0.1667  0.1231 -0.4537
 1025YOPC   C2B14796  14.237   1.225   6.737  0.1259 -0.2979 -0.0182
 1025YOPC   D3B14797  14.372   1.012   7.092 -0.1263 -0.2390  0.0058
 1025YOPC   C4B14798  14.705   0.711   7.245 -0.0428 -0.1568  0.0351
 1026YOPC   NC314799  13.606   5.770   5.275  0.1272  0.0589  0.0131
 1026YOPC   PO414800  13.514   6.202   5.234 -0.1717  0.0180  0.0487
 1026YOPC   GL114801  13.625   6.125   5.623  0.2299  0.3296 -0.3297
 1026YOPC   GL214802  13.606   5.736   5.794  0.3546  0.0305  0.1440
 1026YOPC   C1A14803  13.668   6.147   6.077 -0.1715  0.0262  0.0422
 1026YOPC   D2A14804  13.734   5.934   6.499 -0.0453 -0.2787 -0.1391
 1026YOPC   C3A14805  13.808   5.532   6.574  0.1682  0.1606 -0.6542
 1026YOPC   C4A14806  13.570   5.314   6.588  0.1754  0.0771 -0.0988
 1026YOPC   C1B14807  13.417   5.711   6.202  0.1226  0.5283 -0.1869
 1026YOPC   C2B14808  13.225   5.744   6.627 -0.1595  0.3027  0.1873
 1026YOPC   D3B14809  13.479   5.768   6.933 -0.0680  0.0221 -0.3236
 1026YOPC   C4B14810  13.811   6.125   6.976 -0.0125  0.3943  0.0974
 1027YOPC   NC314811   4.634  12.678   4.801 -0.0113  0.0015 -0.1349
 1027YOPC   PO414812   4.726  12.760   5.295  0.0753 -0.2389 -0.1490
 1027YOPC   GL114813   4.875  12.596   5.747  0.0803  0.1944  0.1078
 1027YOPC   GL214814   4.797  12.864   5.920  0.0727  0.1536  0.0740
 1027YOPC   C1A14815   5.176  12.355   6.022 -0.1651  0.3267 -0.2301
 1027YOPC   D2A14816   5.571  12.385   6.146  0.2200  0.0607 -0.0885
 1027YOPC   C3A14817   5.631  12.691   6.373 -0.4023 -0.1792  0.2413
 1027YOPC   C4A14818   5.684  13.134   6.254  0.0512 -0.0675  0.0553
 1027YOPC   C1B14819   4.643  12.759   6.418 -0.1013 -0.0931 -0.0605
 1027YOPC   C2B14820   4.525  12.716   6.880 -0.0246  0.0931 -0.0092
 1027YOPC   D3B14821   4.382  12.926   7.198  0.3806  0.0656 -0.1492
 1027YOPC   C4B14822   4.164  13.304   7.155 -0.0732  0.0708  0.2801
 1028YOPC   NC314823   4.667   1.955   5.329 -0.0967 -0.0408  0.0024
 1028YOPC   PO414824   4.935   1.735   5.656 -0.1329  0.3045 -0.0259
 1028YOPC   GL114825   4.958   1.685   6.052  0.0122 -0.0611  0.0512
 1028YOPC   GL214826   5.179   1.625   6.232 -0.0355  0.2712  0.0958
 1028YOPC   C1A14827   4.729   1.541   6.432 -0.2300 -0.0696  0.0596
 1028YOPC   D2A14828   4.836   1.592   6.847  0.2000 -0.0979  0.1111
 1028YOPC   C3A14829   4.515   1.554   7.288  0.1461 -0.3091  0.0572
 1028YOPC   C4A14830   4.113   1.499   7.497 -0.0122 -0.1851  0.0081
 1028YOPC   C1B14831   5.275   1.620   6.595  0.1740  0.1754  0.2805
 1028YOPC   C2B14832   5.352   1.461   6.970 -0.1048 -0.0268 -0.0252
 1028YOPC   D3B14833   5.126   1.583   7.332  0.0238 -0.2374  0.2649
 1028YOPC   C4B14834   4.760   1.403   7.729  0.2225  0.1185 -0.2083
 1029YOPC   NC314835   3.972   7.071   5.166 -0.0889  0.2490 -0.0994
 1029YOPC   PO414836   4.461   6.944   5.209 -0.1419  0.1678 -0.0303
 1029YOPC   GL114837   4.501   7.092   5.716  0.1586  0.0008  0.2551
 1029YOPC   GL214838   4.879   7.087   5.830 -0.0529  0.0072  0.0169
 1029YOPC   C1A14839   4.527   7.455   5.991  0.0109 -0.0326 -0.1178
 1029YOPC   D2A14840   4.481   7.841   6.171 -0.1545  0.0636  0.3201
 1029YOPC   C3A14841   4.718   8.175   6.431  0.1528  0.1000 -0.0398
 1029YOPC   C4A14842   4.685   8.327   6.802 -0.0327  0.1281 -0.1490
 1029YOPC   C1B14843   4.744   7.110   6.310 -0.1452 -0.2611 -0.0198
 1029YOPC   C2B14844   4.774   7.185   6.664 -0.2002 -0.0288 -0.0227
 1029YOPC   D3B14845   4.343   7.388   6.898 -0.1282 -0.3216 -0.2015
 1029YOPC   C4B14846   4.063   7.641   6.854 -0.0796  0.0563 -0.0270
 1030YOPC   NC314847   1.548  18.072   5.070  0.1513  0.2696 -0.0804
 1030YOPC   PO414848   1.558  17.686   5.282  0.0117 -0.1165 -0.1380
 1030YOPC   GL114849   1.806  17.584   5.632  0.1322  0.0074 -0.3908
 1030YOPC   GL214850   1.705  17.466   5.915  0.2829 -0.1609 -0.2755
 1030YOPC   C1A14851   2.238  17.611   5.949  0.1280 -0.1106 -0.0074
 1030YOPC   D2A14852   2.657  17.481   6.004 -0.1707 -0.0045 -0.2899
 1030YOPC   C3A14853   2.573  17.492   6.400 -0.2496  0.0403  0.1604
 1030YOPC   C4A14854   2.468  17.163   6.738  0.1483  0.0559  0.0140
 1030YOPC   C1B14855   1.605  17.700   6.236  0.0472  0.0000  0.0270
 1030YOPC   C2B14856   1.662  18.035   6.526  0.0966 -0.1686  0.0042
 1030YOPC   D3B14857   1.608  18.115   7.003 -0.2386 -0.1785 -0.0343
 1030YOPC   C4B14858   1.645  18.123   7.459 -0.1943 -0.0559  0.2813
 1031YOPC   NC314859   6.882   9.471   5.511  0.0788  0.3198 -0.1524
 1031YOPC   PO414860   6.473   9.143   5.584 -0.2347 -0.2844  0.0793
 1031YOPC   GL114861   6.428   9.114   6.052 -0.2380  0.0363 -0.2118
 1031YOPC   GL214862   6.547   8.756   6.091 -0.1977  0.0799  0.1396
 1031YOPC   C1A14863   6.465   9.262   6.440 -0.1181 -0.2132 -0.2064
 1031YOPC   D2A14864   6.407   9.410   6.744 -0.0091 -0.0688  0.1209
 1031YOPC   C3A14865   6.071   9.651   6.892 -0.0242 -0.1047  0.1581
 1031YOPC   C4A14866   5.597   9.879   6.874  0.2947 -0.1367 -0.1861
 1031YOPC   C1B14867   6.300   8.817   6.444  0.0510  0.3623 -0.3332
 1031YOPC   C2B14868   6.077   8.927   6.821  0.2439  0.3620 -0.1710
 1031YOPC   D3B14869   6.206   8.748   7.246  0.2323 -0.0600 -0.3116
 1031YOPC   C4B14870   6.355   8.939   7.679 -0.0999 -0.2690 -0.0017
 1032YOPC   NC314871   8.624   5.044   6.090  0.2637 -0.0455 -0.2309
 1032YOPC   PO414872   9.002   5.299   5.975 -0.1022  0.0735  0.1684
 1032YOPC   GL114873   9.275   5.112   6.314 -0.0812 -0.0999 -0.0227
 1032YOPC   GL214874   9.465   4.842   6.179  0.1837 -0.0208 -0.0608
 1032YOPC   C1A14875   9.193   4.961   6.703 -0.1877  0.0679 -0.3156
 1032YOPC   D2A14876   9.367   4.888   6.987 -0.0157  0.0660  0.2095
 1032YOPC   C3A14877   9.426   4.889   7.406 -0.1882  0.1634 -0.1919
 1032YOPC   C4A14878   9.295   4.690   7.873  0.0028  0.2026  0.0830
 1032YOPC   C1B14879   9.347   4.496   6.367  0.1559  0.3294 -0.0850
 1032YOPC   C2B14880   9.329   4.312   6.788  0.0471 -0.0652 -0.1315
 1032YOPC   D3B14881   9.714   3.949   6.853  0.0782 -0.0707 -0.1638
 1032YOPC   C4B14882   9.923   4.107   7.173  0.0172  0.2405  0.0480
 1033YOPC   NC314883  16.443   4.539   5.658 -0.0267  0.2843  0.3363
 1033YOPC   PO414884  16.240   4.061   5.825  0.2500  0.1343 -0.1817
 1033YOPC   GL114885  16.191   4.328   6.178  0.1879 -0.3021  0.0101
 1033YOPC   GL214886  16.373   4.511   6.159 -0.0100 -0.1592  0.0119
 1033YOPC   C1A14887  16.042   4.414   6.547 -0.2396  0.0320 -0.3221
 1033YOPC   D2A14888  15.778   4.245   6.883  0.1713 -0.0083  0.0408
 1033YOPC   C3A14889  15.855   3.876   7.199  0.0222  0.3396 -0.0309
 1033YOPC   C4A14890  16.067   3.469   7.242  0.0801  0.2574 -0.2425
 1033YOPC   C1B14891  16.796   4.619   6.356  0.1346 -0.1445  0.0464
 1033YOPC   C2B14892  16.925   4.828   6.655 -0.3398 -0.0720 -0.1068
 1033YOPC   D3B14893  16.680   5.006   6.988 -0.0878  0.0431  0.2144
 1033YOPC   C4B14894  16.385   5.176   7.145  0.0081 -0.1266  0.0789
 1034YOPC   NC314895   1.947   2.990   5.355  0.0139  0.0320 -0.1441
 1034YOPC   PO414896   1.742   3.181   5.749 -0.3167 -0.0103  0.0206
 1034YOPC   GL114897   1.508   2.931   5.986  0.0400 -0.0089 -0.4190
 1034YOPC   GL214898   1.198   2.784   6.138  0.0201 -0.0667 -0.0491
 1034YOPC   C1A14899   1.598   2.752   6.452 -0.0216 -0.1377 -0.0879
 1034YOPC   D2A14900   1.753   2.552   6.763  0.1098 -0.0133 -0.1836
 1034YOPC   C3A14901   1.828   2.711   7.116 -0.2641 -0.0025  0.1914
 1034YOPC   C4A14902   1.987   2.649   7.511  0.0222 -0.0459  0.0236
 1034YOPC   C1B14903   1.095   2.569   6.630  0.3643  0.0264  0.0700
 1034YOPC   C2B14904   1.234   2.250   6.816  0.0773  0.1529  0.1859
 1034YOPC   D3B14905   1.475   2.329   7.246 -0.0174 -0.0577 -0.0871
 1034YOPC   C4B14906   1.479   2.520   7.691 -0.0077 -0.0460 -0.2708
 1035YOPC   NC314907  15.262  13.233   5.518  0.1851 -0.0337 -0.0922
 1035YOPC   PO414908  15.424  13.311   5.911  0.1252 -0.2442 -0.0524
 1035YOPC   GL114909  15.505  13.412   6.242 -0.0899 -0.1020 -0.0177
 1035YOPC   GL214910  15.833  13.506   6.396 -0.7282 -0.1963 -0.1161
 1035YOPC   C1A14911  15.433  13.766   6.525  0.2001 -0.3389  0.0911
 1035YOPC   D2A14912  15.341  14.110   6.804 -0.4021  0.1249 -0.0520
 1035YOPC   C3A14913  15.081  14.444   6.795  0.2062  0.0163 -0.0559
 1035YOPC   C4A14914  14.917  14.810   6.845  0.4100  0.0463 -0.2939
 1035YOPC   C1B14915  15.889  13.435   6.911 -0.1411  0.3194  0.4112
 1035YOPC   C2B14916  16.069  13.390   7.379 -0.0356  0.0538  0.1301
 1035YOPC   D3B14917  15.824  13.331   7.721  0.0819  0.1936  0.1403
 1035YOPC   C4B14918  15.705  12.931   7.975  0.0659  0.0785  0.0371
 1036YOPC   NC314919  10.922   9.024   5.970 -0.1959  0.1819 -0.1620
 1036YOPC   PO414920  10.766   8.644   6.081 -0.1983 -0.0049 -0.1963
 1036YOPC   GL114921  10.904   8.737   6.434  0.0652 -0.0361 -0.1898
 1036YOPC   GL214922  10.712   8.596   6.616 -0.0066 -0.1674 -0.0929
 1036YOPC   C1A14923  11.170   9.007   6.656  0.1890 -0.3885 -0.2592
 1036YOPC   D2A14924  11.114   9.065   7.080  0.2894 -0.3162 -0.2696
 1036YOPC   C3A14925  11.147   9.191   7.550  0.0051  0.0816  0.1201
 1036YOPC   C4A14926  11.049   9.237   7.948  0.0274 -0.1920  0.1056
 1036YOPC   C1B14927  10.733   8.181   6.775 -0.1271 -0.1390 -0.1489
 1036YOPC   C2B14928  10.722   8.245   7.159 -0.0620  0.1325 -0.1827
 1036YOPC   D3B14929  10.802   8.057   7.589  0.0345  0.1864 -0.1508
 1036YOPC   C4B14930  10.899   7.823   8.005 -0.1222  0.1288 -0.0526
 1037YOPC   NC314931   3.821  10.970   6.007  0.0559  0.0481  0.0717
 1037YOPC   PO414932   3.989  10.505   5.905  0.4101  0.3298  0.2236
 1037YOPC   GL114933   3.702  10.189   6.041 -0.4260 -0.0358  0.1273
 1037YOPC   GL214934   3.272  10.248   6.204  0.2735 -0.1750  0.2508
 1037YOPC   C1A14935   3.678  10.033   6.340  0.0295  0.1288 -0.2968
 1037YOPC   D2A14936   3.851   9.824   6.656  0.0204  0.2575  0.0528
 1037YOPC   C3A14937   3.944   9.961   7.043 -0.1774 -0.1175  0.1095
 1037YOPC   C4A14938   3.965  10.056   7.532  0.3965 -0.0544 -0.4852
 1037YOPC   C1B14939   3.307  10.488   6.621  0.2398 -0.1443 -0.1452
 1037YOPC   C2B14940   3.262  10.521   7.106 -0.1580  0.0031  0.0997
 1037YOPC   D3B14941   3.439  10.174   7.343 -0.0064  0.0379  0.3332
 1037YOPC   C4B14942   3.508  10.010   7.724 -0.1281  0.1897 -0.1794
 1038YOPC   NC314943  11.239  18.207   5.520  0.0842  0.2073 -0.1575
 1038YOPC   PO414944  11.542  17.880   5.675  0.0604 -0.0345 -0.1260
 1038YOPC   GL114945  11.633  18.243   5.965  0.1328  0.2430 -0.0992
 1038YOPC   GL214946  11.401  18.470   5.922  0.0768 -0.0609 -0.1595
 1038YOPC   C1A14947  11.686  18.377   6.491 -0.1300 -0.1823 -0.0073
 1038YOPC   D2A14948  11.726  18.546   6.878  0.0554 -0.0815  0.1767
 1038YOPC   C3A14949  11.881  18.398   7.205  0.2746  0.0329  0.1434
 1038YOPC   C4A14950  11.949  18.256   7.599 -0.0422 -0.2731  0.3436
 1038YOPC   C1B14951  11.416  18.700   6.275 -0.3895 -0.4971  0.0115
 1038YOPC   C2B14952  11.703  19.014   6.413 -0.0495 -0.1577 -0.1081
 1038YOPC   D3B14953  12.060  19.195   6.116  0.0389 -0.0804  0.0775
 1038YOPC   C4B14954  12.366  18.949   5.757  0.0228 -0.1731 -0.2042
 1039YOPC   NC314955  17.052  15.420   5.814 -0.0376 -0.0793  0.2354
 1039YOPC   PO414956  17.462  15.227   5.643  0.0770  0.5124  0.1926
 1039YOPC   GL114957  17.526  15.277   6.140  0.1407 -0.1825  0.1044
 1039YOPC   GL214958  17.730  15.014   6.295  0.0830 -0.0275 -0.1370
 1039YOPC   C1A14959  17.644  15.481   6.538  0.2480 -0.1191 -0.1565
 1039YOPC   D2A14960  17.649  15.709   6.881  0.0663  0.4500 -0.0192
 1039YOPC   C3A14961  17.915  15.733   7.342  0.3152  0.2506  0.3707
 1039YOPC   C4A14962  18.202  16.018   7.675 -0.0054  0.0258  0.3370
 1039YOPC   C1B14963  17.680  14.617   6.513 -0.1555 -0.2051 -0.0775
 1039YOPC   C2B14964  17.590  14.412   6.949 -0.2701  0.4115 -0.1207
 1039YOPC   D3B14965  17.735  14.332   7.424  0.0268  0.0280  0.2277
 1039YOPC   C4B14966  17.549  14.172   7.745 -0.2464 -0.0167 -0.2345
 1040YOPC   NC314967   6.098  17.437   5.258 -0.2599  0.1195  0.0086
 1040YOPC   PO414968   6.082  17.158   5.663  0.0742  0.1885  0.1974
 1040YOPC   GL114969   6.023  17.241   6.087  0.0700 -0.0617 -0.1079
 1040YOPC   GL214970   5.835  17.565   6.195 -0.3453 -0.0076  0.0253
 1040YOPC   C1A14971   6.093  16.941   6.420 -0.0982  0.1982 -0.1384
 1040YOPC   D2A14972   6.212  16.956   6.854 -0.0476  0.2007  0.1213
 1040YOPC   C3A14973   6.119  16.813   7.288 -0.1823  0.3075 -0.0631
 1040YOPC   C4A14974   5.802  16.950   7.617 -0.0998  0.1922  0.1623
 1040YOPC   C1B14975   5.866  17.388   6.626 -0.0685  0.0297  0.1543
 1040YOPC   C2B14976   5.866  17.298   6.981 -0.0050 -0.2551  0.3268
 1040YOPC   D3B14977   6.022  17.356   7.440  0.0865  0.1326  0.0915
 1040YOPC   C4B14978   5.918  17.429   7.872  0.0299 -0.1145  0.0517
 1041YOPC   NC314979  13.228   7.043   5.266  0.1759 -0.1924  0.1109
 1041YOPC   PO414980  13.249   7.311   5.629  0.0167  0.0009 -0.2790
 1041YOPC   GL114981  13.116   7.192   6.022  0.2103  0.4018 -0.0721
 1041YOPC   GL214982  12.866   7.482   6.124 -0.3457  0.2200 -0.3611
 1041YOPC   C1A14983  13.104   7.086   6.483 -0.0405 -0.0327  0.0959
 1041YOPC   D2A14984  13.293   6.787   6.797  0.3970 -0.1177  0.0260
 1041YOPC   C3A14985  13.671   6.995   6.977  0.3271 -0.0960  0.0247
 1041YOPC   C4A14986  13.738   7.400   7.140 -0.1536  0.1809  0.1451
 1041YOPC   C1B14987  12.594   7.709   6.429 -0.0128  0.0292  0.1450
 1041YOPC   C2B14988  12.336   7.638   6.680 -0.2401 -0.0708 -0.2543
 1041YOPC   D3B14989  12.007   7.326   6.875 -0.1393  0.3327  0.2135
 1041YOPC   C4B14990  11.833   7.049   7.120  0.1460 -0.0389  0.0299
 1042YOPC   NC314991   6.386  17.498   5.878  0.2180  0.0744  0.2280
 1042YOPC   PO414992   6.856  17.330   5.794  0.0721 -0.0861  0.1080
 1042YOPC   GL114993   6.854  17.518   6.194  0.0793 -0.1382  0.1843
 1042YOPC   GL214994   6.688  17.818   6.257  0.3391 -0.1156  0.0999
 1042YOPC   C1A14995   7.063  17.728   6.534  0.1697 -0.0174 -0.0753
 1042YOPC   D2A14996   7.062  17.754   6.947  0.0484 -0.2819  0.1007
 1042YOPC   C3A14997   6.797  17.588   7.238 -0.1496  0.0223 -0.0129
 1042YOPC   C4A14998   6.412  17.687   7.448  0.1045  0.1432 -0.2578
 1042YOPC   C1B14999   6.663  17.463   6.712 -0.0005 -0.0559 -0.2440
 1042YOPC   C2B15000   6.339  17.405   7.036  0.0080 -0.2060 -0.0732
 1042YOPC   D3B15001   6.461  17.199   7.341 -0.0027 -0.2661  0.1740
 1042YOPC   C4B15002   6.400  17.133   7.790  0.0911 -0.1534 -0.3751
 1043YOPC   NC315003   8.887  12.268   5.362 -0.0418  0.0669  0.0651
 1043YOPC   PO415004   8.743  12.595   5.638  0.3431 -0.1768 -0.0990
 1043YOPC   GL115005   8.620  12.779   6.095  0.0216 -0.2427  0.1394
 1043YOPC   GL215006   8.316  13.046   6.078  0.0199 -0.0432  0.1307
 1043YOPC   C1A15007   8.370  12.941   6.549  0.0102  0.0917  0.0514
 1043YOPC   D2A15008   8.365  12.837   6.838 -0.0211  0.1195  0.1483
 1043YOPC   C3A15009   8.445  12.939   7.313 -0.3691 -0.3717  0.2267
 1043YOPC   C4A15010   8.650  12.808   7.791 -0.2046 -0.0972  0.0765
 1043YOPC   C1B15011   8.348  13.419   6.337  0.1964  0.1836  0.0994
 1043YOPC   C2B15012   8.456  13.473   6.678 -0.1221 -0.3586  0.1721
 1043YOPC   D3B15013   8.237  13.356   6.930  0.0301  0.1130  0.0822
 1043YOPC   C4B15014   7.985  13.167   7.239 -0.3037  0.3784 -0.3823
 1044YOPC   NC315015   2.038   4.804   5.507 -0.1874  0.1254 -0.2001
 1044YOPC   PO415016   2.455   4.905   5.780  0.1005  0.0199 -0.1333
 1044YOPC   GL115017   2.549   5.083   6.206  0.1518  0.0957 -0.0727
 1044YOPC   GL215018   2.524   5.492   6.348  0.3134  0.0559 -0.1172
 1044YOPC   C1A15019   2.707   5.093   6.637 -0.1508  0.2588  0.3218
 1044YOPC   D2A15020   3.102   4.949   6.828  0.1123 -0.4239 -0.0185
 1044YOPC   C3A15021   3.253   4.819   7.201 -0.0426 -0.1131 -0.1236
 1044YOPC   C4A15022   3.565   4.981   7.502 -0.0686  0.2280 -0.1188
 1044YOPC   C1B15023   2.334   5.845   6.595  0.2024  0.5513 -0.1550
 1044YOPC   C2B15024   2.284   5.932   7.064 -0.2353  0.1588  0.0382
 1044YOPC   D3B15025   2.300   6.372   7.119  0.1211 -0.0276 -0.1518
 1044YOPC   C4B15026   2.065   6.665   6.928 -0.0164  0.1705 -0.0809
 1045YOPC   NC315027   3.536   6.485   5.716 -0.2205  0.0156 -0.0583
 1045YOPC   PO415028   3.251   6.067   5.682  0.1162  0.2118 -0.0521
 1045YOPC   GL115029   2.861   6.079   5.936 -0.0246 -0.2060  0.0677
 1045YOPC   GL215030   2.778   5.747   6.003 -0.2044 -0.1553 -0.0867
 1045YOPC   C1A15031   2.923   6.257   6.318  0.1366  0.2919  0.0005
 1045YOPC   D2A15032   3.083   6.488   6.587 -0.1692  0.1908  0.3908
 1045YOPC   C3A15033   3.122   6.460   7.024 -0.0159  0.2601  0.0867
 1045YOPC   C4A15034   3.234   6.586   7.508  0.2113 -0.0467  0.3092
 1045YOPC   C1B15035   2.859   5.783   6.474  0.2222 -0.1373  0.2286
 1045YOPC   C2B15036   2.678   5.540   6.861  0.4851 -0.3317  0.1287
 1045YOPC   D3B15037   2.498   5.488   7.256  0.2721  0.1737  0.3555
 1045YOPC   C4B15038   2.595   5.714   7.667 -0.2388  0.0417  0.0132
 1046YOPC   NC315039   6.652   4.846   5.942  0.1349  0.1945 -0.0033
 1046YOPC   PO415040   6.411   5.203   5.856 -0.0164  0.1591 -0.1253
 1046YOPC   GL115041   6.365   5.109   6.250 -0.0448  0.3028  0.1642
 1046YOPC   GL215042   6.329   4.792   6.284 -0.1425 -0.0262 -0.0429
 1046YOPC   C1A15043   6.239   5.169   6.590 -0.2573 -0.1221  0.0183
 1046YOPC   D2A15044   6.147   5.136   7.089  0.0026  0.0254  0.0317
 1046YOPC   C3A15045   6.313   5.150   7.510  0.3809 -0.0456  0.2128
 1046YOPC   C4A15046   6.621   5.175   7.808 -0.2707 -0.3138  0.1665
 1046YOPC   C1B15047   6.475   4.762   6.678 -0.3169 -0.0716 -0.1962
 1046YOPC   C2B15048   6.491   4.770   7.088  0.1107 -0.0177  0.1517
 1046YOPC   D3B15049   6.717   5.061   7.268  0.3156 -0.2997  0.0541
 1046YOPC   C4B15050   6.683   5.412   7.336  0.0463 -0.1133 -0.0963
 1047YOPC   NC315051  14.160  17.642   5.248 -0.2672 -0.0108 -0.1242
 1047YOPC   PO415052  14.048  18.032   5.275 -0.0553  0.2157  0.0398
 1047YOPC   GL115053  14.087  17.971   5.707 -0.1189 -0.0097 -0.1561
 1047YOPC   GL215054  14.131  18.224   5.798 -0.0104  0.0821 -0.2511
 1047YOPC   C1A15055  14.555  17.973   5.922 -0.1049 -0.4210 -0.0350
 1047YOPC   D2A15056  14.883  18.228   6.136  0.2990 -0.0189  0.0526
 1047YOPC   C3A15057  15.241  18.176   6.268 -0.0576  0.1054  0.1328
 1047YOPC   C4A15058  15.606  17.966   6.232 -0.0303 -0.0171 -0.0159
 1047YOPC   C1B15059  14.307  18.448   6.141 -0.0315  0.3156  0.1180
 1047YOPC   C2B15060  14.555  18.481   6.494  0.0839 -0.0399  0.1512
 1047YOPC   D3B15061  14.505  18.454   6.914  0.1112 -0.2031 -0.0280
 1047YOPC   C4B15062  14.602  18.628   7.304 -0.3263  0.1576 -0.0775
 1048YOPC   NC315063   1.392  15.582   5.562 -0.1185 -0.1808 -0.2816
 1048YOPC   PO415064   1.168  15.732   5.821 -0.0308 -0.1006  0.1601
 1048YOPC   GL115065   1.357  15.537   6.144  0.0552  0.1965  0.0540
 1048YOPC   GL215066   1.606  15.706   6.381  0.1081 -0.0238  0.2044
 1048YOPC   C1A15067   1.238  15.214   6.437  0.2379  0.0382  0.2003
 1048YOPC   D2A15068   0.831  15.195   6.727  0.0200 -0.0568  0.0570
 1048YOPC   C3A15069   0.834  15.474   6.996  0.1888  0.0504 -0.1200
 1048YOPC   C4A15070   0.981  15.521   7.392  0.0080 -0.0505 -0.1521
 1048YOPC   C1B15071   1.871  15.789   6.788 -0.0313  0.0855 -0.1863
 1048YOPC   C2B15072   1.831  15.471   7.130 -0.4239  0.0204  0.3697
 1048YOPC   D3B15073   1.530  15.368   7.484  0.0347 -0.2930  0.1204
 1048YOPC   C4B15074   1.597  15.226   7.824 -0.0922 -0.1079  0.2280
 1049YOPC   NC315075  16.802   2.419   6.039 -0.0005  0.0441  0.2665
 1049YOPC   PO415076  17.020   2.028   5.984  0.1919  0.0487  0.1126
 1049YOPC   GL115077  16.816   1.852   6.353 -0.2176 -0.4089 -0.1085
 1049YOPC   GL215078  16.628   1.584   6.343 -0.0518 -0.1785 -0.0991
 1049YOPC   C1A15079  16.787   1.923   6.759  0.1371  0.0019  0.0020
 1049YOPC   D2A15080  16.833   1.921   7.155 -0.0142  0.1188  0.1008
 1049YOPC   C3A15081  16.676   1.634   7.395 -0.1856 -0.0837  0.1169
 1049YOPC   C4A15082  16.683   1.556   7.781 -0.0034  0.1999  0.0319
 1049YOPC   C1B15083  16.581   1.399   6.697 -0.0865  0.1577 -0.0809
 1049YOPC   C2B15084  16.546   1.282   7.085  0.1921 -0.0196 -0.4265
 1049YOPC   D3B15085  16.311   1.367   7.536  0.0293 -0.0792  0.0052
 1049YOPC   C4B15086  16.299   1.207   7.963  0.2702 -0.2212 -0.4079
 1050YOPC   NC315087  13.965   2.608   5.553 -0.0210  0.0156  0.1501
 1050YOPC   PO415088  14.391   2.863   5.639  0.1684  0.0387 -0.1689
 1050YOPC   GL115089  14.517   3.061   6.056  0.2294 -0.1780 -0.2507
 1050YOPC   GL215090  14.726   2.921   6.187  0.0451  0.0348 -0.1702
 1050YOPC   C1A15091  14.281   3.033   6.369  0.1085  0.0648 -0.0814
 1050YOPC   D2A15092  13.838   3.104   6.514  0.0279 -0.1569 -0.0626
 1050YOPC   C3A15093  13.880   3.199   6.911 -0.2692 -0.1221  0.2072
 1050YOPC   C4A15094  13.726   3.129   7.321 -0.0222  0.1057 -0.5054
 1050YOPC   C1B15095  15.172   3.064   6.339 -0.2745  0.4240  0.1364
 1050YOPC   C2B15096  15.319   3.059   6.769  0.4122  0.0151 -0.4661
 1050YOPC   D3B15097  15.055   3.109   7.109 -0.2338  0.2327  0.0101
 1050YOPC   C4B15098  15.016   3.487   7.580  0.1408  0.2480  0.0251
 1051YOPC   NC315099   8.912   2.526   5.640 -0.1089 -0.0310  0.1302
 1051YOPC   PO415100   8.967   2.111   5.589 -0.1170  0.1672 -0.1046
 1051YOPC   GL115101   8.850   2.079   5.984  0.0270  0.3443 -0.1179
 1051YOPC   GL215102   8.777   1.824   6.175 -0.1661  0.1592 -0.4234
 1051YOPC   C1A15103   8.982   2.296   6.352 -0.1088  0.0730  0.0418
 1051YOPC   D2A15104   9.068   2.253   6.772 -0.1172  0.2050 -0.1118
 1051YOPC   C3A15105   8.802   2.441   7.106  0.1024  0.3215 -0.4810
 1051YOPC   C4A15106   8.842   2.549   7.501  0.0592 -0.2410 -0.0640
 1051YOPC   C1B15107   8.956   1.768   6.565  0.0255 -0.1577  0.0841
 1051YOPC   C2B15108   9.357   1.834   6.808  0.3285 -0.0761 -0.1057
 1051YOPC   D3B15109   9.406   1.988   7.264 -0.0558 -0.0057 -0.1145
 1051YOPC   C4B15110   9.815   2.154   7.462 -0.1269  0.1232 -0.1150
 1052YOPC   NC315111   2.756  17.323   5.528 -0.1072 -0.2072  0.0353
 1052YOPC   PO415112   3.115  17.377   5.869 -0.0433 -0.0769 -0.2419
 1052YOPC   GL115113   3.035  17.170   6.242 -0.1252  0.2221 -0.0048
 1052YOPC   GL215114   2.705  17.020   6.248 -0.0022  0.0064  0.2794
 1052YOPC   C1A15115   2.935  17.224   6.644 -0.2387 -0.1204 -0.1897
 1052YOPC   D2A15116   2.690  17.630   6.872  0.3531 -0.0164  0.3519
 1052YOPC   C3A15117   2.488  17.777   7.305  0.0973 -0.2820 -0.1628
 1052YOPC   C4A15118   2.225  17.870   7.650 -0.0993  0.1935  0.4934
 1052YOPC   C1B15119   2.305  17.080   6.204 -0.4677  0.0243 -0.0351
 1052YOPC   C2B15120   1.913  17.348   6.510 -0.2516  0.1812  0.3463
 1052YOPC   D3B15121   1.771  17.654   6.943  0.1840 -0.1685  0.1113
 1052YOPC   C4B15122   1.896  17.634   7.348  0.0595 -0.0685 -0.1185
 1053YOPC   NC315123   0.923   2.570   5.794 -0.0227 -0.2188  0.1966
 1053YOPC   PO415124   0.771   2.157   5.766  0.1265  0.0467 -0.1018
 1053YOPC   GL115125   1.029   2.223   6.171 -0.1748 -0.2048 -0.2077
 1053YOPC   GL215126   0.819   2.383   6.254  0.0213  0.3441 -0.2332
 1053YOPC   C1A15127   1.411   2.173   6.346 -0.0238  0.0765  0.2704
 1053YOPC   D2A15128   1.715   2.109   6.627 -0.2069  0.4704  0.1068
 1053YOPC   C3A15129   1.550   1.869   6.946  0.0950  0.3310  0.1510
 1053YOPC   C4A15130   1.390   1.495   6.942  0.0720  0.0434 -0.1842
 1053YOPC   C1B15131   0.681   2.334   6.658 -0.1815 -0.0070 -0.0507
 1053YOPC   C2B15132   0.836   2.400   7.024  0.1038  0.1727  0.1554
 1053YOPC   D3B15133   1.013   2.162   7.292  0.0497 -0.0295 -0.2731
 1053YOPC   C4B15134   0.815   2.071   7.736  0.1056  0.0834 -0.0483
 1054YOPC   NC315135   1.411  13.885   5.761 -0.0566 -0.3204  0.1632
 1054YOPC   PO415136   1.908  14.098   5.763 -0.2473 -0.1759 -0.0655
 1054YOPC   GL115137   1.880  14.078   6.184 -0.3100 -0.1988  0.0100
 1054YOPC   GL215138   1.540  13.962   6.232  0.2411  0.2972 -0.0864
 1054YOPC   C1A15139   1.977  14.257   6.578  0.1331 -0.1274  0.0785
 1054YOPC   D2A15140   2.111  14.150   7.040 -0.0696 -0.1650 -0.2052
 1054YOPC   C3A15141   1.997  14.509   7.336 -0.3540 -0.0001 -0.2191
 1054YOPC   C4A15142   2.310  14.735   7.572 -0.1271 -0.1817 -0.0011
 1054YOPC   C1B15143   1.400  14.099   6.573 -0.2111  0.1713  0.1531
 1054YOPC   C2B15144   1.646  14.228   6.927 -0.1524  0.0935 -0.1173
 1054YOPC   D3B15145   1.524  14.539   7.176 -0.2100 -0.2178  0.0679
 1054YOPC   C4B15146   1.747  14.909   7.062 -0.1364 -0.1336 -0.0224
 1055YOPC   NC315147  15.467  14.644   5.941 -0.0928  0.2497 -0.0336
 1055YOPC   PO415148  15.118  14.576   6.163 -0.0146 -0.1721  0.0118
 1055YOPC   GL115149  14.734  14.588   6.429  0.2028  0.3943  0.1512
 1055YOPC   GL215150  14.472  14.285   6.445 -0.0973 -0.0697 -0.2208
 1055YOPC   C1A15151  14.362  14.848   6.625 -0.0734  0.1089 -0.3903
 1055YOPC   D2A15152  14.033  14.906   6.992 -0.0862  0.2672 -0.2059
 1055YOPC   C3A15153  14.169  15.109   7.451 -0.0029 -0.4066  0.0490
 1055YOPC   C4A15154  14.297  15.238   7.870  0.1670 -0.0738 -0.1102
 1055YOPC   C1B15155  14.571  14.473   6.889 -0.0894  0.3096  0.1152
 1055YOPC   C2B15156  14.484  14.826   7.157 -0.0368  0.0146  0.1514
 1055YOPC   D3B15157  14.657  14.857   7.628 -0.3546  0.2245 -0.1810
 1055YOPC   C4B15158  14.550  14.938   8.189  0.0100 -0.1728  0.0589
 1056YOPC   NC315159   0.041   9.203   5.800 -0.1944  0.1217  0.1656
 1056YOPC   PO415160  -0.346   9.177   5.932  0.0412 -0.2117 -0.0288
 1056YOPC   GL115161  -0.532   9.076   6.415  0.0826  0.0083  0.0942
 1056YOPC   GL215162  -0.488   9.444   6.570 -0.0951 -0.0816 -0.2747
 1056YOPC   C1A15163  -0.482   8.904   6.765  0.2326 -0.1227 -0.0359
 1056YOPC   D2A15164  -0.284   8.904   7.215  0.2834 -0.1172  0.1821
 1056YOPC   C3A15165   0.134   8.764   7.495  0.0126  0.2695  0.1639
 1056YOPC   C4A15166   0.346   8.413   7.461 -0.1329 -0.4201 -0.0590
 1056YOPC   C1B15167  -0.422   9.414   6.989  0.0438 -0.1465 -0.1400
 1056YOPC   C2B15168  -0.051   9.346   7.094  0.1735 -0.0182  0.2570
 1056YOPC   D3B15169   0.002   9.211   7.517 -0.1321  0.0506  0.0660
 1056YOPC   C4B15170   0.370   9.149   7.757 -0.0085 -0.0886 -0.0436
 1057YOPC   NC315171  14.826  13.918   5.652 -0.0441  0.1257 -0.1020
 1057YOPC   PO415172  14.553  13.766   5.983 -0.1602  0.1093 -0.3097
 1057YOPC   GL115173  14.539  13.765   6.477 -0.0709 -0.1916 -0.1205
 1057YOPC   GL215174  14.908  13.730   6.551 -0.2539  0.1108 -0.3851
 1057YOPC   C1A15175  14.382  14.012   6.855  0.1112  0.0728  0.2236
 1057YOPC   D2A15176  14.440  14.186   7.315  0.0331  0.0253 -0.2097
 1057YOPC   C3A15177  14.257  14.539   7.524 -0.1830 -0.1608 -0.0254
 1057YOPC   C4A15178  14.107  14.648   7.930  0.0042 -0.0776  0.7250
 1057YOPC   C1B15179  14.963  13.857   6.987  0.1526 -0.1101  0.2769
 1057YOPC   C2B15180  14.975  14.095   7.349  0.1398 -0.3422 -0.2843
 1057YOPC   D3B15181  14.898  14.572   7.280 -0.0198  0.1143  0.2090
 1057YOPC   C4B15182  15.044  14.980   7.310 -0.0057  0.1066  0.2579
 1058YOPC   NC315183   5.355   8.656   5.854  0.1122 -0.2760 -0.0538
 1058YOPC   PO415184   5.709   8.325   5.797  0.0680  0.1771  0.0250
 1058YOPC   GL115185   5.619   8.487   6.242 -0.0133  0.1142 -0.0390
 1058YOPC   GL215186   5.591   8.194   6.338 -0.0372  0.1213 -0.0122
 1058YOPC   C1A15187   5.787   8.938   6.322  0.0564 -0.1885 -0.0883
 1058YOPC   D2A15188   6.001   9.290   6.431 -0.2327 -0.1719 -0.2916
 1058YOPC   C3A15189   6.150   9.726   6.320  0.1647  0.2482  0.1170
 1058YOPC   C4A15190   6.205  10.160   6.209 -0.2755  0.3000 -0.1303
 1058YOPC   C1B15191   5.685   8.248   6.687  0.0566 -0.0066  0.2929
 1058YOPC   C2B15192   5.688   8.021   7.023 -0.1082 -0.0066 -0.1364
 1058YOPC   D3B15193   5.766   8.353   7.462 -0.1386 -0.0393 -0.1483
 1058YOPC   C4B15194   6.016   8.561   7.785 -0.0247 -0.0594  0.0807
 1059YOPC   NC315195   2.274  12.867   5.717 -0.0421 -0.2227  0.1114
 1059YOPC   PO415196   2.407  12.579   6.065 -0.1809  0.1339 -0.1432
 1059YOPC   GL115197   2.783  12.424   6.411 -0.0909  0.1917 -0.0253
 1059YOPC   GL215198   2.728  12.162   6.615 -0.1062  0.2754  0.0639
 1059YOPC   C1A15199   3.043  12.546   6.765  0.1880  0.0894 -0.0613
 1059YOPC   D2A15200   3.047  12.676   7.133 -0.0062 -0.0010  0.0574
 1059YOPC   C3A15201   2.872  12.465   7.504  0.3081 -0.0806  0.0493
 1059YOPC   C4A15202   2.947  12.353   7.942 -0.0801  0.0016 -0.1743
 1059YOPC   C1B15203   2.582  12.433   6.956  0.2410  0.0781 -0.2593
 1059YOPC   C2B15204   2.522  12.760   7.184 -0.4543  0.0289 -0.0176
 1059YOPC   D3B15205   2.816  12.989   7.462  0.0308  0.1335  0.0584
 1059YOPC   C4B15206   3.035  13.234   7.832  0.0047 -0.0205  0.0050
 1060YOPC   NC315207   0.809   5.375   5.440 -0.4772  0.5685 -0.1043
 1060YOPC   PO415208   0.813   4.910   5.315  0.1714 -0.0364  0.1414
 1060YOPC   GL115209   1.072   4.932   5.700  0.1521  0.0055 -0.0016
 1060YOPC   GL215210   1.158   5.331   5.777  0.2409 -0.0865 -0.1344
 1060YOPC   C1A15211   1.244   4.874   6.122 -0.1347  0.1417  0.0426
 1060YOPC   D2A15212   1.582   5.051   6.264  0.0961  0.2049 -0.0824
 1060YOPC   C3A15213   1.828   4.880   6.569 -0.2474  0.0165 -0.0689
 1060YOPC   C4A15214   1.774   4.570   6.801 -0.1726  0.0925  0.2990
 1060YOPC   C1B15215   1.403   5.474   6.094 -0.1347  0.2507  0.0605
 1060YOPC   C2B15216   1.473   5.564   6.530 -0.0340 -0.1452 -0.2201
 1060YOPC   D3B15217   1.588   5.273   6.840 -0.0582 -0.1068  0.0681
 1060YOPC   C4B15218   1.837   5.014   7.105 -0.0150 -0.0097  0.2653
 1061YOPC   NC315219   7.164   3.228   5.449  0.0613 -0.0515 -0.1308
 1061YOPC   PO415220   7.142   3.611   5.708 -0.0249  0.0906  0.1042
 1061YOPC   GL115221   6.965   3.847   5.969  0.1695 -0.3432  0.0153
 1061YOPC   GL215222   6.731   3.748   6.106  0.2124  0.0031  0.0111
 1061YOPC   C1A15223   7.133   4.073   6.371 -0.0613  0.0605 -0.0578
 1061YOPC   D2A15224   7.472   4.125   6.712 -0.3117  0.1636  0.0242
 1061YOPC   C3A15225   7.594   3.851   6.963 -0.5026 -0.0197  0.0686
 1061YOPC   C4A15226   7.345   3.494   7.119 -0.1593  0.1005  0.2960
 1061YOPC   C1B15227   6.591   3.422   6.300  0.0515 -0.1082  0.0230
 1061YOPC   C2B15228   6.704   3.317   6.670  0.1219  0.1223 -0.2701
 1061YOPC   D3B15229   7.107   3.163   6.813 -0.2027 -0.0866 -0.1005
 1061YOPC   C4B15230   7.605   3.109   6.919 -0.1232  0.0271  0.1600
 1062YOPC   NC315231  12.909   9.052   5.859 -0.1418 -0.1139  0.2512
 1062YOPC   PO415232  13.176   8.756   5.784  0.1450 -0.1465 -0.4279
 1062YOPC   GL115233  12.989   8.551   6.183 -0.1936 -0.0244  0.2218
 1062YOPC   GL215234  12.708   8.493   6.074  0.0612 -0.1194  0.0687
 1062YOPC   C1A15235  13.029   8.549   6.609 -0.0247  0.1816  0.1250
 1062YOPC   D2A15236  13.100   8.470   7.062 -0.0724  0.0852  0.0086
 1062YOPC   C3A15237  12.753   8.531   7.381 -0.1811 -0.2097 -0.1119
 1062YOPC   C4A15238  12.390   8.662   7.670  0.2160  0.2392 -0.1157
 1062YOPC   C1B15239  12.540   8.401   6.449 -0.0548 -0.2397 -0.1718
 1062YOPC   C2B15240  12.409   8.094   6.815  0.0293 -0.0512  0.2752
 1062YOPC   D3B15241  12.424   8.102   7.301 -0.1000  0.0007 -0.0420
 1062YOPC   C4B15242  12.439   7.751   7.645 -0.3421  0.1276 -0.0470
 1063YOPC   NC315243   7.415  12.290   5.572  0.1989 -0.0985  0.4825
 1063YOPC   PO415244   7.234  12.747   5.543  0.1122 -0.0598  0.0335
 1063YOPC   GL115245   7.125  12.670   5.969 -0.1498 -0.1466  0.1344
 1063YOPC   GL215246   7.086  12.374   6.050  0.0458  0.2420 -0.3294
 1063YOPC   C1A15247   7.017  12.699   6.476 -0.1795  0.0399 -0.1953
 1063YOPC   D2A15248   6.975  12.447   6.838  0.0055  0.0430 -0.0900
 1063YOPC   C3A15249   6.813  12.468   7.313 -0.1157  0.2321  0.2853
 1063YOPC   C4A15250   6.569  12.728   7.449  0.0726  0.0355  0.2299
 1063YOPC   C1B15251   7.290  12.263   6.436  0.0981  0.2393  0.2416
 1063YOPC   C2B15252   7.332  12.000   6.739  0.0613  0.1239  0.1535
 1063YOPC   D3B15253   7.590  12.237   7.145  0.0554  0.3947 -0.0478
 1063YOPC   C4B15254   7.475  12.491   7.528  0.0928 -0.0967  0.1237
 1064YOPC   NC315255  17.186   4.029   5.466 -0.1896 -0.0819 -0.2826
 1064YOPC   PO415256  17.498   4.105   5.701 -0.3047 -0.2734 -0.0321
 1064YOPC   GL115257  17.574   4.162   6.110 -0.0873  0.0156  0.1186
 1064YOPC   GL215258  17.877   4.285   6.136  0.3641  0.4795 -0.3772
 1064YOPC   C1A15259  17.468   3.864   6.476  0.4133 -0.3842 -0.0642
 1064YOPC   D2A15260  17.501   3.846   6.846 -0.0832  0.2160 -0.0654
 1064YOPC   C3A15261  17.407   4.093   7.167  0.1558  0.0130  0.2079
 1064YOPC   C4A15262  17.556   4.051   7.491  0.1335  0.3497  0.0428
 1064YOPC   C1B15263  17.905   4.587   6.347  0.3514 -0.2685  0.0293
 1064YOPC   C2B15264  17.902   4.778   6.692  0.0787 -0.2775 -0.0893
 1064YOPC   D3B15265  18.198   4.680   7.067 -0.0575  0.1346  0.2138
 1064YOPC   C4B15266  18.614   4.725   7.188 -0.1597  0.1051  0.0151
 1065YOPC   NC315267   0.283   5.437   5.601 -0.4671  0.1355 -0.0896
 1065YOPC   PO415268   0.576   5.811   5.567 -0.0276  0.2062  0.2371
 1065YOPC   GL115269   0.491   5.893   5.983 -0.1349  0.0020 -0.1489
 1065YOPC   GL215270   0.766   6.061   5.973  0.1258  0.2193 -0.5162
 1065YOPC   C1A15271   0.451   5.780   6.298 -0.0614 -0.0012  0.2894
 1065YOPC   D2A15272   0.379   5.461   6.638 -0.3163 -0.1978  0.2270
 1065YOPC   C3A15273   0.631   5.566   7.031 -0.0558 -0.2863 -0.0934
 1065YOPC   C4A15274   0.878   5.452   7.433 -0.1330  0.1729  0.1998
 1065YOPC   C1B15275   1.037   6.166   6.255  0.3326 -0.1715  0.1945
 1065YOPC   C2B15276   1.362   6.160   6.501  0.0811  0.0604 -0.0008
 1065YOPC   D3B15277   1.260   6.179   6.918 -0.0484  0.0630 -0.0438
 1065YOPC   C4B15278   1.507   6.293   7.377 -0.0651  0.4007 -0.1200
 1066YOPC   NC315279   8.064   5.553   6.042 -0.1279 -0.0727  0.1782
 1066YOPC   PO415280   8.079   5.081   6.072  0.1056  0.2594 -0.0247
 1066YOPC   GL115281   8.283   5.010   6.539 -0.1168  0.1842 -0.1542
 1066YOPC   GL215282   8.739   5.006   6.581 -0.0053  0.1819 -0.0790
 1066YOPC   C1A15283   8.362   4.793   6.950  0.2262 -0.3390 -0.0108
 1066YOPC   D2A15284   8.553   4.778   7.281 -0.2327  0.0364  0.1596
 1066YOPC   C3A15285   8.594   4.378   7.556 -0.1778 -0.1908  0.2002
 1066YOPC   C4A15286   8.485   4.213   7.885  0.0145  0.2186 -0.0211
 1066YOPC   C1B15287   8.804   4.613   6.799  0.2518  0.3041 -0.1638
 1066YOPC   C2B15288   9.019   4.472   7.205 -0.2461 -0.0760  0.2654
 1066YOPC   D3B15289   9.460   4.369   7.252 -0.0688 -0.0431 -0.1911
 1066YOPC   C4B15290   9.749   4.520   7.432 -0.1952 -0.3085 -0.0990
 1067YOPC   NC315291  13.525  10.865   5.640 -0.1116  0.1097  0.0817
 1067YOPC   PO415292  13.879  10.485   5.797  0.0846  0.2304 -0.1073
 1067YOPC   GL115293  13.793  10.740   6.123 -0.0096  0.2003  0.1157
 1067YOPC   GL215294  13.995  10.975   6.248  0.1221  0.0310 -0.1968
 1067YOPC   C1A15295  13.532  10.747   6.457 -0.1238  0.2281 -0.1652
 1067YOPC   D2A15296  13.126  10.840   6.655 -0.1577  0.2883  0.1664
 1067YOPC   C3A15297  13.008  10.559   6.902  0.1097  0.0148 -0.0427
 1067YOPC   C4A15298  12.925  10.618   7.401  0.0648 -0.0682  0.0798
 1067YOPC   C1B15299  13.996  11.029   6.632 -0.1039 -0.0770 -0.1914
 1067YOPC   C2B15300  13.888  10.963   7.058  0.1527 -0.0722  0.1116
 1067YOPC   D3B15301  13.389  10.782   7.120  0.1740 -0.1784  0.1140
 1067YOPC   C4B15302  13.270  10.919   7.444 -0.1757 -0.1087  0.0840
 1068YOPC   NC315303   1.371  11.418   5.979  0.3948 -0.2015  0.1979
 1068YOPC   PO415304   1.223  10.977   5.842 -0.0758  0.2164  0.0962
 1068YOPC   GL115305   1.528  10.938   6.191 -0.1140 -0.0007  0.3549
 1068YOPC   GL215306   1.703  10.621   6.197 -0.2818  0.3639  0.0756
 1068YOPC   C1A15307   1.480  11.132   6.588  0.0530 -0.1311  0.2526
 1068YOPC   D2A15308   1.733  11.311   6.724  0.1045  0.0813 -0.1522
 1068YOPC   C3A15309   1.614  11.443   7.082  0.0378  0.0856  0.0283
 1068YOPC   C4A15310   1.610  11.503   7.584 -0.0384  0.0193 -0.2867
 1068YOPC   C1B15311   1.536  10.658   6.644  0.0448 -0.3103  0.1621
 1068YOPC   C2B15312   1.549  10.240   7.025  0.0228  0.2144 -0.2465
 1068YOPC   D3B15313   1.740  10.441   7.299  0.2566 -0.1642 -0.0149
 1068YOPC   C4B15314   1.780  10.608   7.717 -0.2567 -0.2962 -0.1109
 1069YOPC   NC315315  17.957  18.216   5.396 -0.1024 -0.0987  0.2442
 1069YOPC   PO415316  18.007  18.623   5.607 -0.2216 -0.0243  0.2138
 1069YOPC   GL115317  18.174  18.418   5.931  0.1019 -0.2086  0.1574
 1069YOPC   GL215318  18.396  18.507   6.007 -0.0029 -0.0281 -0.0597
 1069YOPC   C1A15319  18.123  18.155   6.298 -0.2118 -0.0305  0.1310
 1069YOPC   D2A15320  18.062  18.298   6.727 -0.1600  0.0767  0.3237
 1069YOPC   C3A15321  18.303  18.270   7.046  0.1510  0.1165  0.4110
 1069YOPC   C4A15322  18.411  17.908   7.365  0.1221  0.0924  0.1439
 1069YOPC   C1B15323  18.227  18.807   6.256  0.2473 -0.2913  0.2546
 1069YOPC   C2B15324  17.867  19.113   6.332  0.3563  0.1206 -0.0232
 1069YOPC   D3B15325  17.541  19.053   6.651 -0.2557 -0.2357 -0.2940
 1069YOPC   C4B15326  17.311  18.655   6.795  0.1235 -0.0803 -0.3044
 1070YOPC   NC315327   0.203   6.178   5.592  0.2221  0.1899  0.0564
 1070YOPC   PO415328   0.032   5.866   5.801 -0.1714 -0.0033  0.1879
 1070YOPC   GL115329  -0.008   5.711   6.182 -0.0991  0.3702  0.3221
 1070YOPC   GL215330  -0.027   5.437   6.130  0.1174  0.1336 -0.1990
 1070YOPC   C1A15331  -0.036   5.685   6.564 -0.2325  0.1997 -0.0445
 1070YOPC   D2A15332  -0.282   5.678   6.959  0.1875 -0.0628 -0.1313
 1070YOPC   C3A15333  -0.183   5.777   7.353  0.2570  0.0404  0.1736
 1070YOPC   C4A15334   0.023   5.487   7.651  0.3540  0.1272 -0.2993
 1070YOPC   C1B15335   0.179   5.162   6.208 -0.0411 -0.1891 -0.1977
 1070YOPC   C2B15336   0.390   4.882   6.506  0.1126  0.0687 -0.1595
 1070YOPC   D3B15337   0.451   5.021   6.881  0.1973  0.1899 -0.0303
 1070YOPC   C4B15338   0.700   5.020   7.200  0.0676 -0.0980  0.0528
 1071YOPC   NC315339  18.184  17.400   5.991 -0.0149  0.0614  0.3826
 1071YOPC   PO415340  18.587  17.390   5.860 -0.0951  0.0273 -0.0903
 1071YOPC   GL115341  18.738  17.390   6.285  0.1008 -0.1975  0.4297
 1071YOPC   GL215342  18.764  17.095   6.486 -0.0195 -0.1377  0.0716
 1071YOPC   C1A15343  18.732  17.524   6.754 -0.2158  0.1040 -0.1036
 1071YOPC   D2A15344  18.760  17.780   7.056 -0.0476  0.3049  0.4704
 1071YOPC   C3A15345  18.847  17.661   7.447  0.1597  0.2679  0.0061
 1071YOPC   C4A15346  18.633  17.861   7.893  0.4340 -0.0503  0.0021
 1071YOPC   C1B15347  18.745  16.778   6.731  0.1338 -0.0067 -0.2551
 1071YOPC   C2B15348  18.930  16.478   6.791  0.2366 -0.0729  0.0628
 1071YOPC   D3B15349  18.684  16.186   7.074 -0.1204 -0.1750 -0.2366
 1071YOPC   C4B15350  18.362  15.963   7.166  0.1674 -0.0456 -0.3615
 1072YOPC   NC315351  17.142   7.282   5.676  0.4136  0.1406  0.0769
 1072YOPC   PO415352  17.467   6.943   5.786  0.0319  0.2319  0.0810
 1072YOPC   GL115353  17.703   6.950   6.183  0.0552  0.2333  0.2176
 1072YOPC   GL215354  17.922   7.208   6.192  0.2194  0.3834  0.2745
 1072YOPC   C1A15355  17.793   6.657   6.433 -0.1514  0.1480  0.0148
 1072YOPC   D2A15356  17.726   6.436   6.745 -0.0948 -0.1303  0.0129
 1072YOPC   C3A15357  17.973   6.597   7.024 -0.3065 -0.0147  0.2068
 1072YOPC   C4A15358  18.173   6.595   7.402 -0.3185 -0.0460  0.1066
 1072YOPC   C1B15359  18.134   7.484   6.523 -0.1000 -0.0076 -0.1714
 1072YOPC   C2B15360  18.116   7.524   6.946 -0.0109 -0.2069  0.4161
 1072YOPC   D3B15361  17.786   7.296   7.112  0.2749  0.2015 -0.1031
 1072YOPC   C4B15362  17.399   7.307   7.351 -0.2085  0.0390 -0.0830
 1073YOPC   NC315363   7.590   8.588   5.464 -0.0129  0.1101  0.1064
 1073YOPC   PO415364   8.090   8.637   5.611 -0.0782 -0.1035 -0.2095
 1073YOPC   GL115365   8.059   8.588   6.083 -0.0180  0.2651  0.0597
 1073YOPC   GL215366   7.817   8.727   6.241  0.0623  0.2549 -0.1170
 1073YOPC   C1A15367   8.215   8.467   6.497  0.0439 -0.0210  0.1442
 1073YOPC   D2A15368   8.124   8.368   6.971 -0.4115 -0.0473 -0.0800
 1073YOPC   C3A15369   8.423   8.106   7.191  0.0786  0.0069 -0.0892
 1073YOPC   C4A15370   8.342   7.747   7.456  0.0778 -0.1716  0.1459
 1073YOPC   C1B15371   7.881   8.857   6.613  0.0912  0.0559  0.1303
 1073YOPC   C2B15372   7.750   8.992   6.982 -0.1982 -0.2131 -0.1749
 1073YOPC   D3B15373   7.734   8.767   7.290  0.3051  0.0808  0.5990
 1073YOPC   C4B15374   7.981   8.362   7.442 -0.2151 -0.3106  0.1091
 1074YOPC   NC315375  13.339  14.041   5.981  0.1020  0.2328 -0.0479
 1074YOPC   PO415376  13.729  13.794   5.984 -0.2029  0.0692 -0.1308
 1074YOPC   GL115377  13.646  13.794   6.349 -0.0598 -0.2250 -0.0917
 1074YOPC   GL215378  13.611  13.457   6.410 -0.0031 -0.4352  0.3197
 1074YOPC   C1A15379  13.653  13.967   6.766 -0.1593  0.2797 -0.0814
 1074YOPC   D2A15380  13.716  13.729   7.170  0.0565  0.1292 -0.1913
 1074YOPC   C3A15381  13.783  13.613   7.536 -0.1149  0.2766  0.1416
 1074YOPC   C4A15382  14.093  13.599   7.902 -0.1755 -0.5074  0.2664
 1074YOPC   C1B15383  13.514  13.421   6.810 -0.1661  0.3088  0.0779
 1074YOPC   C2B15384  13.377  13.372   7.201 -0.1400  0.1251 -0.0467
 1074YOPC   D3B15385  13.496  13.197   7.556 -0.0581  0.2308  0.2037
 1074YOPC   C4B15386  13.601  13.279   7.874  0.2715 -0.1714 -0.3419
 1075YOPC   NC315387  17.288  12.939   5.723  0.1117 -0.4414 -0.2130
 1075YOPC   PO415388  17.693  13.088   5.944  0.0723  0.2062 -0.0659
 1075YOPC   GL115389  17.829  13.392   6.239  0.0578  0.1305  0.0217
 1075YOPC   GL215390  18.084  13.581   6.373  0.2223  0.0160  0.0959
 1075YOPC   C1A15391  17.704  13.316   6.639 -0.0871 -0.0502 -0.0705
 1075YOPC   D2A15392  17.471  13.506   6.870  0.1136 -0.1180  0.1200
 1075YOPC   C3A15393  17.596  13.432   7.242 -0.1452 -0.0036  0.1699
 1075YOPC   C4A15394  17.920  13.430   7.530 -0.0928  0.3186 -0.1743
 1075YOPC   C1B15395  18.205  13.223   6.545  0.1569 -0.1294 -0.1103
 1075YOPC   C2B15396  18.134  12.813   6.694  0.0021 -0.2679 -0.1887
 1075YOPC   D3B15397  17.788  12.675   6.673  0.0527  0.4523 -0.0315
 1075YOPC   C4B15398  17.500  12.393   6.553 -0.0893  0.0685  0.0197
 1076YOPC   NC315399   6.813  12.370   5.686 -0.1857  0.1694  0.0032
 1076YOPC   PO415400   7.016  11.973   5.661  0.0320 -0.3034  0.0335
 1076YOPC   GL115401   6.790  11.671   5.775  0.0073 -0.0982  0.2794
 1076YOPC   GL215402   6.420  11.658   5.666 -0.0551  0.1445 -0.0399
 1076YOPC   C1A15403   6.809  11.521   6.209 -0.1844  0.0843  0.0603
 1076YOPC   D2A15404   6.928  11.551   6.614  0.1816  0.0353 -0.0270
 1076YOPC   C3A15405   6.775  11.481   7.011  0.0212 -0.1212 -0.5205
 1076YOPC   C4A15406   6.563  11.532   7.452  0.2054  0.0609 -0.0292
 1076YOPC   C1B15407   5.989  11.720   5.988  0.0057  0.0510 -0.0919
 1076YOPC   C2B15408   5.848  12.001   6.342  0.2419 -0.1162 -0.0435
 1076YOPC   D3B15409   6.191  12.017   6.606  0.2511 -0.1722 -0.3787
 1076YOPC   C4B15410   6.394  11.807   6.985  0.2446 -0.0155 -0.2203
 1077YOPC   NC315411  11.631   9.560   6.042 -0.2271 -0.2099  0.2233
 1077YOPC   PO415412  12.039   9.444   6.124  0.0819 -0.2183  0.3125
 1077YOPC   GL115413  11.807   9.269   6.422 -0.1094 -0.0234 -0.2428
 1077YOPC   GL215414  12.081   9.043   6.428 -0.0880  0.0366  0.0294
 1077YOPC   C1A15415  11.572   9.303   6.814  0.4206 -0.1453 -0.4246
 1077YOPC   D2A15416  11.600   9.355   7.215  0.2682 -0.0894 -0.2137
 1077YOPC   C3A15417  11.523   9.471   7.502  0.1431  0.3091 -0.0987
 1077YOPC   C4A15418  11.532   9.748   7.766  0.0365  0.0486  0.0304
 1077YOPC   C1B15419  12.185   8.705   6.665  0.0738 -0.1949  0.1582
 1077YOPC   C2B15420  12.055   8.422   7.011 -0.1125 -0.0485 -0.0610
 1077YOPC   D3B15421  12.011   8.383   7.437 -0.1860 -0.0398 -0.1052
 1077YOPC   C4B15422  12.043   8.036   7.643 -0.1622  0.2516  0.2013
 1078YOPC   NC315423   4.437   0.109   5.242 -0.0281 -0.0732  0.1676
 1078YOPC   PO415424   4.642  -0.224   5.478  0.0168 -0.1188 -0.0332
 1078YOPC   GL115425   4.413  -0.403   5.821  0.0027  0.2720  0.1139
 1078YOPC   GL215426   4.520  -0.708   5.902 -0.0848 -0.2198  0.2072
 1078YOPC   C1A15427   4.246  -0.173   6.245 -0.0179  0.0457 -0.0258
 1078YOPC   D2A15428   4.148  -0.385   6.644 -0.2333 -0.1958  0.0176
 1078YOPC   C3A15429   3.971  -0.087   6.843  0.1722 -0.1328 -0.2100
 1078YOPC   C4A15430   3.893   0.242   7.281  0.0414 -0.1311 -0.0155
 1078YOPC   C1B15431   4.658  -0.896   6.223 -0.1794  0.1405 -0.0082
 1078YOPC   C2B15432   4.862  -0.911   6.596  0.4161 -0.0084  0.0840
 1078YOPC   D3B15433   4.754  -1.109   6.953 -0.0122  0.0595 -0.0383
 1078YOPC   C4B15434   4.493  -1.103   7.329 -0.0003  0.1630 -0.1035
 1079YOPC   NC315435  13.129   6.252   5.555 -0.2447 -0.1911 -0.2156
 1079YOPC   PO415436  13.159   5.817   5.451  0.0253 -0.0167 -0.1742
 1079YOPC   GL115437  12.901   5.817   5.873 -0.0372 -0.1339  0.0974
 1079YOPC   GL215438  12.607   5.827   5.944  0.0290 -0.1366 -0.2227
 1079YOPC   C1A15439  12.944   5.603   6.240  0.1848 -0.0158 -0.2294
 1079YOPC   D2A15440  12.750   5.839   6.643 -0.1515  0.3979  0.0403
 1079YOPC   C3A15441  12.897   5.757   7.043  0.2195  0.3246  0.1806
 1079YOPC   C4A15442  13.125   5.920   7.303 -0.2216 -0.0904  0.0497
 1079YOPC   C1B15443  12.450   6.182   6.217 -0.0751 -0.0594  0.0802
 1079YOPC   C2B15444  12.551   6.402   6.378 -0.0079 -0.0340 -0.0964
 1079YOPC   D3B15445  12.474   6.374   6.825 -0.3623  0.1711  0.4007
 1079YOPC   C4B15446  12.736   6.311   7.131 -0.0604  0.0109 -0.1295
 1080YOPC   NC315447   6.868   2.115   5.415  0.1496  0.1674  0.1629
 1080YOPC   PO415448   7.167   2.142   5.670  0.0455 -0.1300  0.0306
 1080YOPC   GL115449   7.309   2.049   6.117  0.1896  0.1354  0.0577
 1080YOPC   GL215450   7.056   2.023   6.342 -0.1738  0.4192 -0.0243
 1080YOPC   C1A15451   7.433   2.316   6.421 -0.1608 -0.0072 -0.4165
 1080YOPC   D2A15452   7.255   2.580   6.782  0.1236  0.1216 -0.0915
 1080YOPC   C3A15453   7.431   2.631   7.177  0.0761  0.1041  0.0084
 1080YOPC   C4A15454   7.399   2.617   7.582 -0.1473  0.0859 -0.1319
 1080YOPC   C1B15455   7.162   2.029   6.710 -0.0529 -0.1932  0.0038
 1080YOPC   C2B15456   7.348   2.117   7.135  0.2983 -0.1107  0.1308
 1080YOPC   D3B15457   7.620   1.816   7.250  0.1632  0.0404 -0.0882
 1080YOPC   C4B15458   8.049   1.712   7.416  0.0047  0.0835 -0.0708
 1081YOPC   NC315459   3.484  17.041   6.026 -0.1967  0.1717  0.0067
 1081YOPC   PO415460   3.787  16.717   5.954 -0.1762  0.2157  0.0935
 1081YOPC   GL115461   3.669  16.670   6.319 -0.2722 -0.0547 -0.3907
 1081YOPC   GL215462   3.334  16.677   6.338  0.2759 -0.1894  0.2376
 1081YOPC   C1A15463   3.609  16.506   6.702 -0.1236 -0.0960  0.0521
 1081YOPC   D2A15464   3.383  16.528   7.011  0.2351 -0.0558 -0.0447
 1081YOPC   C3A15465   3.458  16.604   7.412  0.0971 -0.1342  0.1405
 1081YOPC   C4A15466   3.377  16.829   7.733  0.2141  0.1695  0.1484
 1081YOPC   C1B15467   2.995  16.708   6.624  0.0051 -0.0091  0.1367
 1081YOPC   C2B15468   2.708  16.799   6.969  0.3629 -0.2093 -0.1243
 1081YOPC   D3B15469   2.706  17.188   7.150  0.1656 -0.3005 -0.2908
 1081YOPC   C4B15470   2.947  17.497   7.383  0.4979 -0.1370  0.1122
 1082YOPC   NC315471   5.652   9.457   5.520 -0.1269 -0.1801  0.1374
 1082YOPC   PO415472   5.472   9.807   5.581 -0.4021  0.2259  0.3469
 1082YOPC   GL115473   5.444   9.968   5.962 -0.0342 -0.1619  0.1999
 1082YOPC   GL215474   5.673  10.049   6.007 -0.1303 -0.0557 -0.1143
 1082YOPC   C1A15475   5.395   9.961   6.395  0.2819  0.0529  0.0978
 1082YOPC   D2A15476   5.175  10.104   6.894 -0.1256 -0.0482 -0.1029
 1082YOPC   C3A15477   5.415  10.117   7.288  0.3232 -0.1064  0.0763
 1082YOPC   C4A15478   5.437  10.466   7.607  0.2276  0.2118 -0.1882
 1082YOPC   C1B15479   5.835  10.035   6.531 -0.1718 -0.2448  0.2057
 1082YOPC   C2B15480   6.021  10.149   6.994 -0.0849 -0.1785 -0.1125
 1082YOPC   D3B15481   5.917   9.903   7.286 -0.5502 -0.1801  0.0304
 1082YOPC   C4B15482   5.862   9.646   7.476 -0.0343  0.0205  0.1747
 1083YOPC   NC315483   6.479  12.432   5.118 -0.0241 -0.0670  0.4052
 1083YOPC   PO415484   6.496  12.123   5.369  0.0467  0.0414  0.2557
 1083YOPC   GL115485   6.506  12.094   5.894  0.0172 -0.3860 -0.0340
 1083YOPC   GL215486   6.194  12.169   5.900 -0.4183 -0.2835  0.1117
 1083YOPC   C1A15487   6.406  11.857   6.215 -0.0608  0.0695 -0.1443
 1083YOPC   D2A15488   6.445  11.520   6.568 -0.1787  0.0347  0.0157
 1083YOPC   C3A15489   6.635  11.174   6.529  0.0835  0.3520 -0.3419
 1083YOPC   C4A15490   6.596  10.858   6.920  0.1472  0.0129  0.2746
 1083YOPC   C1B15491   6.136  12.402   6.220 -0.4845  0.1278  0.0367
 1083YOPC   C2B15492   5.988  12.494   6.655 -0.1282 -0.2303 -0.0822
 1083YOPC   D3B15493   6.030  12.560   7.058  0.0547  0.3239  0.1196
 1083YOPC   C4B15494   6.097  12.676   7.422  0.1319 -0.3593  0.3002
 1084YOPC   NC315495   3.268  10.224   5.663  0.3564  0.0053  0.0144
 1084YOPC   PO415496   3.084   9.845   5.809 -0.1760 -0.2592 -0.3783
 1084YOPC   GL115497   2.926   9.887   6.245  0.0611 -0.2747  0.2869
 1084YOPC   GL215498   2.703  10.015   6.365  0.0607 -0.4711 -0.2105
 1084YOPC   C1A15499   2.776   9.537   6.559  0.0972 -0.0949 -0.0225
 1084YOPC   D2A15500   2.819   9.363   6.976 -0.0948  0.1217  0.0336
 1084YOPC   C3A15501   2.787   9.511   7.327  0.1217 -0.0746  0.2114
 1084YOPC   C4A15502   3.089   9.679   7.472  0.1799  0.0289 -0.1438
 1084YOPC   C1B15503   2.922  10.163   6.724  0.2026 -0.1783  0.5174
 1084YOPC   C2B15504   2.903  10.216   7.152  0.1678  0.1948  0.0905
 1084YOPC   D3B15505   2.673   9.965   7.441 -0.0748 -0.0998  0.3371
 1084YOPC   C4B15506   2.578   9.786   7.808 -0.1950 -0.2431 -0.0268
 1085YOPC   NC315507  14.136   5.111   5.303 -0.1237 -0.0797 -0.0188
 1085YOPC   PO415508  14.523   4.637   5.357  0.0141  0.1219  0.1410
 1085YOPC   GL115509  14.273   4.610   5.842  0.1192 -0.0406 -0.3098
 1085YOPC   GL215510  13.960   4.500   5.910  0.0080 -0.0762  0.1808
 1085YOPC   C1A15511  14.160   4.750   6.209 -0.4781  0.1832 -0.2888
 1085YOPC   D2A15512  13.965   5.094   6.506 -0.1199 -0.0810  0.3711
 1085YOPC   C3A15513  14.130   5.095   6.874 -0.0658 -0.2824 -0.2067
 1085YOPC   C4A15514  14.193   5.222   7.192 -0.2639 -0.0448 -0.0536
 1085YOPC   C1B15515  13.928   4.341   6.218 -0.1566  0.2420  0.0698
 1085YOPC   C2B15516  13.992   4.539   6.655  0.1161  0.1719  0.1691
 1085YOPC   D3B15517  13.801   4.418   6.999 -0.0600  0.1240  0.0169
 1085YOPC   C4B15518  13.863   4.100   7.380  0.0693 -0.2237  0.0019
 1086YOPC   NC315519  12.329  13.282   5.984 -0.0464 -0.3558 -0.0915
 1086YOPC   PO415520  12.327  13.696   6.068 -0.2464 -0.2897 -0.1492
 1086YOPC   GL115521  12.520  13.819   6.445 -0.1459  0.2598 -0.1360
 1086YOPC   GL215522  12.677  14.109   6.549  0.0989 -0.0761  0.1589
 1086YOPC   C1A15523  12.560  13.759   6.875 -0.2650  0.1822  0.1012
 1086YOPC   D2A15524  12.392  13.471   7.087  0.2822  0.0790 -0.0051
 1086YOPC   C3A15525  12.468  13.165   7.436 -0.1454  0.4250  0.0482
 1086YOPC   C4A15526  12.679  12.889   7.695  0.1289  0.2603  0.1627
 1086YOPC   C1B15527  12.889  14.276   6.818  0.0335 -0.0363 -0.0495
 1086YOPC   C2B15528  12.813  14.356   7.204 -0.2486 -0.1883  0.1371
 1086YOPC   D3B15529  12.514  14.032   7.336  0.0715  0.0203 -0.1451
 1086YOPC   C4B15530  12.526  13.649   7.535 -0.4454 -0.0966  0.0274
 1087YOPC   NC315531   0.508   0.581   5.627 -0.0653  0.0258 -0.1048
 1087YOPC   PO415532   0.513   0.114   5.742  0.1329 -0.0172  0.2676
 1087YOPC   GL115533   0.522   0.040   6.213  0.3094 -0.1487 -0.1679
 1087YOPC   GL215534   0.296  -0.171   6.266  0.2228 -0.2454 -0.1499
 1087YOPC   C1A15535   0.639  -0.044   6.724  0.0167  0.0716 -0.2358
 1087YOPC   D2A15536   0.637   0.077   7.204 -0.0512  0.2210  0.1604
 1087YOPC   C3A15537   0.857  -0.034   7.434 -0.1697  0.0952 -0.1100
 1087YOPC   C4A15538   1.119  -0.310   7.649 -0.0612 -0.2589  0.1508
 1087YOPC   C1B15539   0.003   0.008   6.596 -0.1874 -0.0965  0.2210
 1087YOPC   C2B15540   0.200  -0.005   6.872  0.0254  0.0292  0.1384
 1087YOPC   D3B15541   0.271  -0.211   7.252  0.1014 -0.3353  0.2183
 1087YOPC   C4B15542   0.475  -0.367   7.599  0.0926  0.1708  0.1045
 1088YOPC   NC315543   0.033   0.387   5.624  0.3504  0.0728  0.2604
 1088YOPC   PO415544   0.018   0.773   5.693 -0.1466  0.1676  0.0882
 1088YOPC   GL115545  -0.080   0.805   6.157 -0.2887 -0.0176  0.2242
 1088YOPC   GL215546  -0.318   1.090   6.200  0.3218  0.0918 -0.0621
 1088YOPC   C1A15547  -0.193   0.756   6.611 -0.0223  0.0390 -0.3044
 1088YOPC   D2A15548  -0.311   0.425   6.764 -0.0583  0.1835  0.1249
 1088YOPC   C3A15549  -0.117   0.258   7.106 -0.0472 -0.1068  0.1374
 1088YOPC   C4A15550   0.163   0.254   7.430 -0.0623  0.2348  0.0824
 1088YOPC   C1B15551  -0.263   1.254   6.723  0.0163 -0.0507 -0.0271
 1088YOPC   C2B15552  -0.269   1.334   7.159 -0.3909  0.1793 -0.0074
 1088YOPC   D3B15553   0.050   1.187   7.388 -0.1602  0.2632  0.3678
 1088YOPC   C4B15554   0.543   1.191   7.354 -0.2704  0.0021 -0.1285
 1089YOPC   NC315555  15.748   4.128   5.946  0.1077 -0.2733  0.0239
 1089YOPC   PO415556  15.515   4.410   5.765 -0.1356 -0.0712  0.1840
 1089YOPC   GL115557  15.177   4.359   5.974  0.0610 -0.2786  0.0345
 1089YOPC   GL215558  15.326   4.265   6.184 -0.0357  0.1248 -0.2386
 1089YOPC   C1A15559  14.889   4.469   6.243  0.0053  0.0457 -0.0663
 1089YOPC   D2A15560  14.545   4.463   6.442 -0.0243  0.2296  0.3053
 1089YOPC   C3A15561  14.435   4.538   6.877 -0.0518 -0.4213  0.0689
 1089YOPC   C4A15562  14.222   4.439   7.246  0.0000 -0.0990  0.3087
 1089YOPC   C1B15563  15.302   4.450   6.617  0.1415  0.1628 -0.3622
 1089YOPC   C2B15564  15.318   4.513   7.034 -0.0186 -0.2611 -0.2280
 1089YOPC   D3B15565  15.106   4.698   7.289 -0.0045 -0.0671 -0.2264
 1089YOPC   C4B15566  15.124   4.980   7.631 -0.1324 -0.2534 -0.1120
 1090YOPC   NC315567   8.009  17.383   5.746  0.0310  0.0579 -0.2000
 1090YOPC   PO415568   7.999  16.906   5.848  0.1983 -0.4820 -0.0342
 1090YOPC   GL115569   8.104  16.637   6.189 -0.2627 -0.1606  0.0914
 1090YOPC   GL215570   7.853  16.733   6.419 -0.2010 -0.1055 -0.1832
 1090YOPC   C1A15571   8.202  16.356   6.401 -0.1058  0.0099 -0.1849
 1090YOPC   D2A15572   8.412  16.066   6.623  0.2661  0.2293  0.1593
 1090YOPC   C3A15573   8.742  15.835   6.478  0.1861  0.0989 -0.2311
 1090YOPC   C4A15574   8.776  15.896   5.972 -0.0816 -0.3462 -0.2153
 1090YOPC   C1B15575   7.736  16.785   6.896 -0.1766 -0.0392  0.2340
 1090YOPC   C2B15576   7.562  16.876   7.326 -0.2440  0.0268  0.0718
 1090YOPC   D3B15577   7.569  16.555   7.698  0.1361 -0.0894 -0.0530
 1090YOPC   C4B15578   7.584  16.172   7.741  0.0125  0.0744  0.4921
 1091YOPC   NC315579   2.425  14.179   5.786  0.0874  0.3185  0.3411
 1091YOPC   PO415580   2.457  14.580   5.691  0.0200  0.0786  0.1031
 1091YOPC   GL115581   2.689  14.463   6.081 -0.0122 -0.3507  0.1340
 1091YOPC   GL215582   2.426  14.459   6.334  0.1377 -0.2224  0.2145
 1091YOPC   C1A15583   2.972  14.400   6.402  0.1555 -0.0984 -0.3804
 1091YOPC   D2A15584   3.444  14.599   6.448  0.0427 -0.3921  0.0746
 1091YOPC   C3A15585   3.461  14.836   6.878  0.0393  0.6688  0.2516
 1091YOPC   C4A15586   3.337  14.715   7.247 -0.1896  0.0638 -0.0595
 1091YOPC   C1B15587   2.623  14.743   6.658  0.0405 -0.2333  0.0356
 1091YOPC   C2B15588   3.007  14.807   6.783 -0.0744 -0.0618  0.0358
 1091YOPC   D3B15589   3.118  14.470   6.870 -0.1005 -0.0206 -0.1382
 1091YOPC   C4B15590   3.384  14.207   7.001  0.0044 -0.3613 -0.1124
 1092YOPC   NC315591   1.626  14.713   5.589 -0.0223 -0.0671 -0.1810
 1092YOPC   PO415592   1.569  15.035   5.857  0.0501 -0.1576  0.2109
 1092YOPC   GL115593   1.730  15.259   6.281  0.0508  0.1741 -0.1950
 1092YOPC   GL215594   2.068  15.412   6.371  0.0840 -0.2707  0.0033
 1092YOPC   C1A15595   1.660  15.251   6.721  0.2211 -0.0418 -0.2661
 1092YOPC   D2A15596   1.282  15.187   7.044 -0.0269  0.1118  0.1861
 1092YOPC   C3A15597   0.915  15.018   7.267 -0.2150 -0.3047 -0.0267
 1092YOPC   C4A15598   0.560  15.239   7.440 -0.0502 -0.1532 -0.0716
 1092YOPC   C1B15599   2.217  15.254   6.835  0.0105 -0.2709  0.2189
 1092YOPC   C2B15600   2.213  15.286   7.308 -0.1332  0.0731 -0.0120
 1092YOPC   D3B15601   1.963  15.086   7.580 -0.0202  0.2031 -0.0574
 1092YOPC   C4B15602   1.783  14.713   7.722 -0.3100  0.3327  0.0302
 1093YOPC   NC315603   8.766   3.984   5.773 -0.2139  0.0809  0.1117
 1093YOPC   PO415604   8.794   3.520   5.684 -0.0206 -0.3353  0.2835
 1093YOPC   GL115605   8.915   3.605   6.105  0.2532 -0.2351  0.0113
 1093YOPC   GL215606   9.099   3.384   6.095  0.0270 -0.1433  0.1154
 1093YOPC   C1A15607   8.922   3.608   6.530 -0.2170 -0.0369 -0.0561
 1093YOPC   D2A15608   9.158   3.211   6.799 -0.1233  0.0015  0.0304
 1093YOPC   C3A15609   8.961   2.941   7.119  0.1627  0.3250 -0.0007
 1093YOPC   C4A15610   8.688   3.047   7.467 -0.0219 -0.1823 -0.1095
 1093YOPC   C1B15611   9.367   3.112   6.399 -0.0046 -0.1602  0.3016
 1093YOPC   C2B15612   9.572   2.905   6.811 -0.0655 -0.2540  0.0855
 1093YOPC   D3B15613   9.429   3.041   7.230  0.1632 -0.2385 -0.1541
 1093YOPC   C4B15614   9.481   3.343   7.514 -0.1135  0.1453 -0.2108
 1094YOPC   NC315615  13.180   2.767   5.589 -0.1810 -0.0237  0.2241
 1094YOPC   PO415616  13.439   2.429   5.549 -0.2394 -0.1428 -0.1770
 1094YOPC   GL115617  13.553   2.597   5.943  0.2693 -0.0678  0.2086
 1094YOPC   GL215618  13.876   2.779   6.103 -0.1962 -0.3984 -0.0594
 1094YOPC   C1A15619  13.397   2.744   6.417 -0.0457 -0.1409  0.0278
 1094YOPC   D2A15620  13.216   2.532   6.982 -0.1257  0.0746  0.0467
 1094YOPC   C3A15621  13.390   2.732   7.376  0.0472 -0.2931  0.0965
 1094YOPC   C4A15622  13.689   2.676   7.664 -0.0643 -0.0529 -0.1534
 1094YOPC   C1B15623  13.872   2.607   6.509  0.0705  0.0038 -0.1185
 1094YOPC   C2B15624  13.679   2.705   6.878  0.2328 -0.0805 -0.0309
 1094YOPC   D3B15625  13.382   3.030   6.957 -0.2544  0.1205 -0.3086
 1094YOPC   C4B15626  12.936   2.989   7.071 -0.0376 -0.1272 -0.0926
 1095YOPC   NC315627  11.123   6.188   5.526 -0.2695 -0.2789  0.3590
 1095YOPC   PO415628  10.933   6.188   5.921  0.0707 -0.0761  0.0209
 1095YOPC   GL115629  10.875   5.910   6.210  0.2491  0.1546 -0.1071
 1095YOPC   GL215630  10.961   6.165   6.465 -0.0956 -0.0577 -0.4363
 1095YOPC   C1A15631  11.027   5.628   6.533  0.0025  0.2168 -0.0376
 1095YOPC   D2A15632  11.143   5.594   7.079  0.0798  0.2145 -0.0535
 1095YOPC   C3A15633  11.356   5.376   7.495 -0.1377  0.1613  0.0575
 1095YOPC   C4A15634  11.465   5.144   7.831 -0.0501  0.0335  0.3617
 1095YOPC   C1B15635  11.188   5.999   6.869 -0.1784 -0.4018 -0.0058
 1095YOPC   C2B15636  11.198   6.043   7.343 -0.3951 -0.3039  0.1207
 1095YOPC   D3B15637  11.292   5.836   7.774  0.3080 -0.1644 -0.1786
 1095YOPC   C4B15638  11.130   5.596   8.002  0.1949 -0.4251  0.2269
 1096YOPC   NC315639   1.568   8.247   5.220 -0.3670 -0.1060 -0.3773
 1096YOPC   PO415640   1.472   7.832   5.230 -0.0957  0.2698  0.0181
 1096YOPC   GL115641   1.703   7.879   5.620 -0.0414 -0.2469 -0.3422
 1096YOPC   GL215642   1.718   8.125   5.816 -0.0153 -0.0049 -0.2280
 1096YOPC   C1A15643   1.995   7.674   5.963  0.1158 -0.0819  0.1137
 1096YOPC   D2A15644   2.314   7.402   6.107 -0.1891  0.2134  0.1958
 1096YOPC   C3A15645   2.171   7.321   6.415  0.1102 -0.1078 -0.0145
 1096YOPC   C4A15646   2.206   7.089   6.812  0.0578  0.1090 -0.1750
 1096YOPC   C1B15647   1.963   8.488   5.952  0.1298  0.0179  0.1408
 1096YOPC   C2B15648   2.288   8.516   6.115  0.0858  0.4417 -0.4923
 1096YOPC   D3B15649   2.294   8.378   6.590  0.1912  0.2558  0.1474
 1096YOPC   C4B15650   1.996   8.263   6.944 -0.0128 -0.1047  0.4070
 1097YOPC   NC315651   4.219  17.481   5.685  0.3393  0.0980  0.3920
 1097YOPC   PO415652   4.200  17.208   5.914  0.0095  0.2693 -0.2321
 1097YOPC   GL115653   4.184  17.191   6.399 -0.1232 -0.0872  0.0830
 1097YOPC   GL215654   3.931  17.116   6.292 -0.0181  0.2467  0.0505
 1097YOPC   C1A15655   4.303  17.120   6.830 -0.0087  0.0523 -0.2357
 1097YOPC   D2A15656   4.621  16.873   6.848 -0.1183  0.1327  0.0270
 1097YOPC   C3A15657   5.010  17.128   6.573  0.1765 -0.0167  0.0939
 1097YOPC   C4A15658   5.049  17.288   6.131  0.2346  0.2717  0.1243
 1097YOPC   C1B15659   3.883  16.922   6.747 -0.1343 -0.1768 -0.0917
 1097YOPC   C2B15660   3.896  16.742   7.109 -0.2963 -0.2592  0.1959
 1097YOPC   D3B15661   4.236  16.835   7.284 -0.2146 -0.0479  0.0699
 1097YOPC   C4B15662   4.332  17.107   7.681  0.1552 -0.0379  0.0527
 1098YOPC   NC315663   5.377   1.477   5.755 -0.1182 -0.0230 -0.2244
 1098YOPC   PO415664   5.747   1.334   5.707 -0.2930  0.0148 -0.3108
 1098YOPC   GL115665   5.933   1.239   6.046 -0.3492  0.2976 -0.0806
 1098YOPC   GL215666   6.173   1.481   6.059  0.0271  0.0485 -0.2592
 1098YOPC   C1A15667   6.097   1.074   6.509 -0.4275 -0.1062 -0.1895
 1098YOPC   D2A15668   6.144   1.003   6.886  0.0693  0.0200 -0.3089
 1098YOPC   C3A15669   6.372   0.811   7.166  0.2392 -0.0814 -0.1240
 1098YOPC   C4A15670   6.778   0.892   7.414  0.1274  0.1682 -0.1982
 1098YOPC   C1B15671   6.243   1.556   6.530 -0.0722  0.0146  0.2214
 1098YOPC   C2B15672   6.313   1.438   7.022  0.0295  0.2679  0.1305
 1098YOPC   D3B15673   6.212   1.724   7.201 -0.1669 -0.0005  0.1411
 1098YOPC   C4B15674   6.184   2.122   7.462 -0.0404 -0.3548 -0.0336
 1099YOPC   NC315675   4.206  11.434   5.441 -0.1955  0.1305 -0.2139
 1099YOPC   PO415676   3.923  11.295   5.682 -0.1920  0.2824  0.2641
 1099YOPC   GL115677   4.250  11.279   6.098  0.0157  0.0507  0.3240
 1099YOPC   GL215678   4.408  11.544   5.879  0.0188 -0.1520 -0.0838
 1099YOPC   C1A15679   4.521  11.206   6.474 -0.3605 -0.1861  0.0980
 1099YOPC   D2A15680   5.061  11.026   6.470  0.3155 -0.2443  0.0819
 1099YOPC   C3A15681   5.211  10.989   6.963  0.3559  0.3312  0.2123
 1099YOPC   C4A15682   5.292  10.806   7.327  0.1535  0.0875  0.1765
 1099YOPC   C1B15683   4.523  11.672   6.300  0.0728 -0.1698 -0.2497
 1099YOPC   C2B15684   4.799  11.753   6.673 -0.1150 -0.1045  0.1767
 1099YOPC   D3B15685   4.838  11.390   6.968 -0.3367  0.3050 -0.0039
 1099YOPC   C4B15686   4.712  10.977   6.867 -0.1423  0.0158 -0.1207
 1100YOPC   NC315687   3.081  13.431   5.903  0.3882  0.1756 -0.2702
 1100YOPC   PO415688   2.758  13.694   5.794  0.1267  0.4189 -0.1539
 1100YOPC   GL115689   2.689  13.988   6.201  0.6062  0.1796  0.0587
 1100YOPC   GL215690   3.024  13.857   6.202 -0.4424  0.0561 -0.3896
 1100YOPC   C1A15691   2.428  14.042   6.589 -0.3352  0.1728  0.3082
 1100YOPC   D2A15692   2.631  14.297   6.899 -0.1258 -0.0960  0.0326
 1100YOPC   C3A15693   2.506  14.335   7.271 -0.1231 -0.1539 -0.1636
 1100YOPC   C4A15694   2.555  14.267   7.806 -0.1287 -0.2022 -0.0717
 1100YOPC   C1B15695   2.938  13.942   6.679  0.1192 -0.0567  0.3597
 1100YOPC   C2B15696   2.922  13.938   7.102 -0.4171 -0.0050  0.0710
 1100YOPC   D3B15697   3.326  13.886   7.379  0.0811  0.0130 -0.0818
 1100YOPC   C4B15698   3.433  13.618   7.617  0.0418  0.0706 -0.0324
 1101YOPC   NC315699   5.764   2.868   5.917 -0.0693 -0.0738 -0.1688
 1101YOPC   PO415700   5.396   2.585   5.735  0.2130  0.1006 -0.1209
 1101YOPC   GL115701   5.208   2.304   6.126  0.0313  0.0817  0.1022
 1101YOPC   GL215702   5.094   2.485   6.354  0.1854 -0.0379 -0.3128
 1101YOPC   C1A15703   4.895   2.073   6.375 -0.1940  0.1439 -0.0283
 1101YOPC   D2A15704   4.446   1.953   6.536 -0.1497  0.0277 -0.0507
 1101YOPC   C3A15705   4.593   2.005   6.999  0.0032 -0.1635  0.0397
 1101YOPC   C4A15706   4.928   2.043   7.153  0.1200 -0.0327 -0.3223
 1101YOPC   C1B15707   5.150   2.341   6.737  0.2256  0.0481 -0.0311
 1101YOPC   C2B15708   5.149   2.499   7.062 -0.0522 -0.1851  0.1005
 1101YOPC   D3B15709   4.981   2.469   7.490 -0.0564  0.1408  0.0165
 1101YOPC   C4B15710   5.072   2.384   7.906 -0.1913 -0.0596  0.0685
 1102YOPC   NC315711   2.114   8.114   4.538 -0.1748  0.1155  0.3184
 1102YOPC   PO415712   2.408   7.990   4.930  0.1423  0.1266 -0.2362
 1102YOPC   GL115713   2.443   7.986   5.408 -0.0263 -0.2307 -0.0827
 1102YOPC   GL215714   2.728   8.077   5.523 -0.0881 -0.1273 -0.0947
 1102YOPC   C1A15715   2.285   8.076   5.854 -0.2181  0.0188 -0.0501
 1102YOPC   D2A15716   2.112   8.046   6.286  0.0192 -0.0740 -0.1210
 1102YOPC   C3A15717   1.886   7.705   6.683  0.2246  0.5716  0.0058
 1102YOPC   C4A15718   1.592   7.376   6.601 -0.1010 -0.1220 -0.1689
 1102YOPC   C1B15719   2.695   8.239   6.050  0.0982 -0.1917  0.1346
 1102YOPC   C2B15720   2.764   8.324   6.480  0.2527 -0.4419  0.4948
 1102YOPC   D3B15721   2.861   8.067   6.762  0.0718 -0.3069 -0.1835
 1102YOPC   C4B15722   2.862   7.827   7.020 -0.3025 -0.3281 -0.0686
 1103YOPC   NC315723   4.384   3.028   5.518 -0.0468  0.2795 -0.0796
 1103YOPC   PO415724   4.216   3.446   5.351  0.0554 -0.0740  0.1914
 1103YOPC   GL115725   4.137   3.312   5.853 -0.0932  0.1716 -0.0058
 1103YOPC   GL215726   3.818   3.147   5.901  0.1756 -0.1109  0.0546
 1103YOPC   C1A15727   4.068   3.575   6.255  0.1461  0.0152  0.2106
 1103YOPC   D2A15728   4.113   3.503   6.704  0.1110  0.0049  0.0382
 1103YOPC   C3A15729   3.984   3.614   7.172  0.2891  0.1536  0.0644
 1103YOPC   C4A15730   3.914   3.378   7.570 -0.2001 -0.1428 -0.2586
 1103YOPC   C1B15731   3.768   3.185   6.397 -0.1186  0.1085 -0.0018
 1103YOPC   C2B15732   3.530   3.034   6.609  0.0751 -0.0607 -0.3863
 1103YOPC   D3B15733   3.554   2.784   6.825  0.0395 -0.0813  0.0245
 1103YOPC   C4B15734   3.493   2.340   7.143 -0.1012 -0.0622 -0.0037
 1104YOPC   NC315735   2.526   8.910   5.433  0.1076  0.0061  0.1097
 1104YOPC   PO415736   2.855   8.583   5.351 -0.0265  0.3621  0.0392
 1104YOPC   GL115737   3.061   8.494   5.719 -0.1525  0.0530  0.0953
 1104YOPC   GL215738   3.380   8.319   5.766 -0.0573 -0.3400 -0.0162
 1104YOPC   C1A15739   3.056   8.597   6.117  0.7344  0.1935 -0.0528
 1104YOPC   D2A15740   3.177   8.553   6.589  0.1788  0.2475  0.2843
 1104YOPC   C3A15741   3.268   8.351   6.959  0.0062 -0.1142  0.0680
 1104YOPC   C4A15742   3.087   8.111   7.324 -0.2260 -0.0326 -0.0081
 1104YOPC   C1B15743   3.281   8.114   6.083  0.1301  0.0378 -0.3083
 1104YOPC   C2B15744   3.280   8.041   6.473  0.0453 -0.0638 -0.0659
 1104YOPC   D3B15745   3.095   7.613   6.616  0.0813  0.0456 -0.3200
 1104YOPC   C4B15746   3.203   7.386   7.019  0.0270  0.0125  0.0647
 1105YOPC   NC315747   5.376   1.971   5.734  0.1715 -0.3156  0.0534
 1105YOPC   PO415748   5.805   1.827   5.557 -0.0160  0.0670 -0.0937
 1105YOPC   GL115749   5.761   1.915   5.982  0.3578 -0.2746  0.1493
 1105YOPC   GL215750   5.725   1.709   6.049  0.4492  0.1880 -0.2005
 1105YOPC   C1A15751   6.081   1.971   6.370 -0.0137 -0.0716  0.3727
 1105YOPC   D2A15752   6.146   1.965   6.799  0.0101  0.0555 -0.1902
 1105YOPC   C3A15753   5.985   2.339   6.992  0.1682 -0.0453  0.1815
 1105YOPC   C4A15754   5.666   2.392   7.361 -0.2650  0.0858  0.2291
 1105YOPC   C1B15755   5.771   1.515   6.406 -0.2690  0.2389 -0.0191
 1105YOPC   C2B15756   5.871   1.469   6.818  0.0222  0.2472  0.3126
 1105YOPC   D3B15757   5.862   1.295   7.192 -0.0116 -0.1812  0.0156
 1105YOPC   C4B15758   5.542   1.254   7.410  0.2539  0.0822  0.0449
 1106YOPC   NC315759  12.058   1.626   4.992 -0.2945 -0.1064 -0.1913
 1106YOPC   PO415760  11.977   1.429   5.439 -0.0342  0.0593  0.1037
 1106YOPC   GL115761  12.035   1.595   5.881 -0.1985  0.0304 -0.0101
 1106YOPC   GL215762  11.999   1.568   6.167 -0.1979 -0.0344  0.0746
 1106YOPC   C1A15763  12.400   1.872   5.965  0.1443  0.0683 -0.1145
 1106YOPC   D2A15764  12.576   2.228   5.975 -0.2042 -0.2117  0.1404
 1106YOPC   C3A15765  12.328   2.586   5.928  0.1166  0.1933 -0.0576
 1106YOPC   C4A15766  12.289   2.951   5.945 -0.1779 -0.4484 -0.0299
 1106YOPC   C1B15767  12.014   1.548   6.638  0.3075 -0.1239  0.0775
 1106YOPC   C2B15768  12.214   1.197   6.836  0.0664 -0.3506  0.3281
 1106YOPC   D3B15769  11.966   0.993   7.088 -0.1848  0.0346 -0.2665
 1106YOPC   C4B15770  11.619   1.079   7.453 -0.0101 -0.2504 -0.2573
 1107YOPC   NC315771  13.490   0.606   5.043 -0.3068  0.2045  0.1619
 1107YOPC   PO415772  13.312   0.984   4.919 -0.1906  0.0277 -0.1211
 1107YOPC   GL115773  13.377   0.942   5.443 -0.3444  0.0097 -0.3911
 1107YOPC   GL215774  13.642   0.867   5.573  0.2845 -0.0732 -0.1421
 1107YOPC   C1A15775  13.149   0.885   5.859  0.2836  0.0986 -0.3052
 1107YOPC   D2A15776  12.933   0.996   6.249  0.0846  0.1682 -0.3660
 1107YOPC   C3A15777  13.125   0.732   6.660 -0.2521  0.0298  0.2269
 1107YOPC   C4A15778  12.940   0.665   7.080  0.1133 -0.1074 -0.0947
 1107YOPC   C1B15779  13.578   1.194   5.909 -0.2114 -0.1199 -0.0937
 1107YOPC   C2B15780  13.436   0.906   6.317 -0.2523 -0.0504  0.2037
 1107YOPC   D3B15781  13.123   0.550   6.189  0.0181  0.3062 -0.1373
 1107YOPC   C4B15782  12.876   0.396   5.931  0.0010 -0.0380  0.1159
 1108YOPC   NC315783   6.116  13.959   5.300  0.0534  0.0364  0.5896
 1108YOPC   PO415784   6.515  14.173   5.408 -0.1203  0.1785  0.0955
 1108YOPC   GL115785   6.448  14.406   5.739 -0.0919 -0.0711 -0.2756
 1108YOPC   GL215786   6.718  14.686   5.675  0.2850  0.3564 -0.1738
 1108YOPC   C1A15787   6.243  14.393   6.171  0.0068  0.0321 -0.2876
 1108YOPC   D2A15788   6.335  14.405   6.675 -0.0366  0.0451  0.1505
 1108YOPC   C3A15789   6.673  14.639   6.675 -0.0728  0.2653  0.3424
 1108YOPC   C4A15790   7.073  14.657   6.885  0.1084 -0.1092 -0.0513
 1108YOPC   C1B15791   6.729  14.840   6.140  0.0627 -0.1406  0.1944
 1108YOPC   C2B15792   6.604  15.130   6.572  0.0229  0.2089 -0.2164
 1108YOPC   D3B15793   6.699  15.034   6.994 -0.0937 -0.0905 -0.3976
 1108YOPC   C4B15794   6.905  14.783   7.313  0.2799 -0.2111  0.0432
 1109YOPC   NC315795  15.452   9.047   5.858 -0.0563 -0.1226 -0.0358
 1109YOPC   PO415796  15.132   9.470   5.894  0.0293  0.2130  0.0010
 1109YOPC   GL115797  15.255   9.357   6.244  0.1420  0.0663  0.3592
 1109YOPC   GL215798  15.587   9.430   6.297  0.0084 -0.0432  0.1174
 1109YOPC   C1A15799  15.246   9.347   6.705  0.0951  0.0151  0.3327
 1109YOPC   D2A15800  15.342   9.501   7.183 -0.0778  0.0379 -0.0300
 1109YOPC   C3A15801  15.137   9.653   7.555 -0.2553 -0.1542  0.1585
 1109YOPC   C4A15802  15.177  10.014   7.928 -0.0325  0.0607 -0.0729
 1109YOPC   C1B15803  15.705   9.523   6.760  0.1734 -0.2012 -0.1068
 1109YOPC   C2B15804  15.811   9.488   7.167 -0.0437 -0.1478  0.3005
 1109YOPC   D3B15805  15.609   9.419   7.621  0.1038 -0.4478  0.3172
 1109YOPC   C4B15806  15.854   9.460   8.051 -0.0047  0.1873 -0.0561
 1110YOPC   NC315807   8.872   3.153   5.393  0.0405  0.1333  0.2496
 1110YOPC   PO415808   8.552   2.866   5.607  0.0730 -0.2201 -0.0397
 1110YOPC   GL115809   8.787   3.041   5.940 -0.3813 -0.1698 -0.1284
 1110YOPC   GL215810   8.545   3.220   6.047  0.1160  0.1283  0.1117
 1110YOPC   C1A15811   9.019   2.789   6.213  0.0976 -0.0803  0.1462
 1110YOPC   D2A15812   9.409   2.617   6.262 -0.2289 -0.2436 -0.2561
 1110YOPC   C3A15813   9.530   2.338   6.625  0.2942 -0.0520 -0.0262
 1110YOPC   C4A15814   9.747   2.192   6.957  0.1258  0.3579  0.0932
 1110YOPC   C1B15815   8.767   3.125   6.439 -0.2514  0.3762 -0.0496
 1110YOPC   C2B15816   8.532   3.139   6.711 -0.2323 -0.4004  0.1195
 1110YOPC   D3B15817   8.633   3.332   7.063  0.2561 -0.0139  0.0969
 1110YOPC   C4B15818   9.023   3.431   7.246  0.1892  0.0911  0.0893
 1111YOPC   NC315819   9.867   9.189   5.783  0.1584 -0.1348  0.0977
 1111YOPC   PO415820   9.407   8.959   5.762  0.1866 -0.2162  0.1040
 1111YOPC   GL115821   9.445   8.767   6.228  0.1417 -0.0021 -0.2136
 1111YOPC   GL215822   9.392   8.914   6.502  0.0733 -0.2540 -0.0041
 1111YOPC   C1A15823   9.786   8.613   6.477  0.0439 -0.0039 -0.1326
 1111YOPC   D2A15824   9.706   8.296   6.750  0.0076 -0.0511 -0.3424
 1111YOPC   C3A15825   9.895   8.225   7.155 -0.0562 -0.1511  0.0590
 1111YOPC   C4A15826   9.827   7.883   7.417  0.1199 -0.1570  0.1894
 1111YOPC   C1B15827   9.713   9.050   6.690 -0.0970 -0.1209  0.3503
 1111YOPC   C2B15828   9.824   9.235   7.064  0.2987  0.0020 -0.0685
 1111YOPC   D3B15829   9.754   9.084   7.440 -0.0288 -0.2394  0.2813
 1111YOPC   C4B15830   9.953   9.041   7.782 -0.1373 -0.1939  0.0334
 1112YOPC   NC315831   8.620   8.494   5.544  0.6746  0.0153  0.2405
 1112YOPC   PO415832   8.892   8.588   5.891 -0.2423  0.0401 -0.2474
 1112YOPC   GL115833   8.719   8.671   6.285  0.0665  0.1479 -0.0509
 1112YOPC   GL215834   8.999   8.549   6.412 -0.2293  0.0158  0.1138
 1112YOPC   C1A15835   8.416   8.864   6.620  0.0129  0.0931  0.0287
 1112YOPC   D2A15836   8.247   8.872   6.993  0.2003  0.1450 -0.0263
 1112YOPC   C3A15837   8.380   8.631   7.379  0.0095  0.0529  0.2539
 1112YOPC   C4A15838   8.532   8.712   7.822 -0.0898  0.3479 -0.0374
 1112YOPC   C1B15839   9.186   8.472   6.832 -0.2164  0.1728  0.0871
 1112YOPC   C2B15840   9.325   8.260   7.213 -0.0172  0.2998  0.2378
 1112YOPC   D3B15841   9.363   8.319   7.618  0.2043 -0.0002 -0.2233
 1112YOPC   C4B15842   9.372   8.387   8.056  0.4606 -0.2850 -0.0103
 1113YOPC   NC315843   0.785  16.709   5.791 -0.1912 -0.0081 -0.0943
 1113YOPC   PO415844   1.180  16.786   5.738  0.1254 -0.1735 -0.2994
 1113YOPC   GL115845   1.146  16.596   6.214 -0.0666  0.3952 -0.0793
 1113YOPC   GL215846   0.857  16.481   6.359  0.1553 -0.3169 -0.2718
 1113YOPC   C1A15847   1.437  16.606   6.690  0.2073  0.1340  0.1078
 1113YOPC   D2A15848   1.632  16.692   7.132  0.2978  0.0486  0.0645
 1113YOPC   C3A15849   2.112  16.734   7.158 -0.0488 -0.0941  0.2944
 1113YOPC   C4A15850   2.378  16.872   7.526 -0.1683 -0.0962  0.0794
 1113YOPC   C1B15851   0.921  16.442   6.813  0.0078 -0.1712  0.0419
 1113YOPC   C2B15852   0.888  16.458   7.222  0.1530  0.3761  0.1598
 1113YOPC   D3B15853   0.662  16.164   7.396  0.1103 -0.0303  0.0722
 1113YOPC   C4B15854   0.498  15.794   7.180 -0.0260  0.1638  0.1497
 1114YOPC   NC315855   3.084   1.249   5.640 -0.0715 -0.0320 -0.0717
 1114YOPC   PO415856   2.780   1.615   5.537 -0.1042 -0.1391 -0.0410
 1114YOPC   GL115857   2.817   1.530   6.029 -0.2982  0.2828  0.1888
 1114YOPC   GL215858   3.057   1.504   6.297 -0.3205 -0.1543  0.0183
 1114YOPC   C1A15859   2.677   1.207   6.358  0.0193  0.0495  0.0753
 1114YOPC   D2A15860   2.745   0.938   6.604  0.3231  0.1377 -0.0623
 1114YOPC   C3A15861   2.435   0.735   6.858  0.1444  0.2848 -0.4589
 1114YOPC   C4A15862   2.058   0.466   6.810  0.2250 -0.0407  0.1241
 1114YOPC   C1B15863   3.114   1.426   6.730  0.2042 -0.1414 -0.2914
 1114YOPC   C2B15864   3.280   1.396   7.176 -0.0493  0.1166 -0.1419
 1114YOPC   D3B15865   3.633   1.436   7.382 -0.0290 -0.2776  0.0183
 1114YOPC   C4B15866   3.772   1.841   7.643  0.1063  0.2674  0.1686
 1115YOPC   NC315867   7.487   3.910   5.805 -0.3353 -0.2144  0.1182
 1115YOPC   PO415868   7.949   3.847   5.718 -0.1843 -0.1302  0.1356
 1115YOPC   GL115869   7.855   3.923   6.188  0.3986  0.0980 -0.1020
 1115YOPC   GL215870   7.955   3.661   6.196  0.0010 -0.0840  0.1032
 1115YOPC   C1A15871   7.997   4.108   6.435  0.0276  0.1403  0.2251
 1115YOPC   D2A15872   8.042   4.080   6.831 -0.2357  0.1634  0.0672
 1115YOPC   C3A15873   7.768   4.316   7.083 -0.1717 -0.1968 -0.0621
 1115YOPC   C4A15874   7.644   4.717   7.355  0.0779  0.2548  0.1450
 1115YOPC   C1B15875   8.135   3.286   6.409  0.0840  0.2645 -0.1399
 1115YOPC   C2B15876   8.047   2.932   6.737  0.0011  0.0426  0.2048
 1115YOPC   D3B15877   7.671   2.746   6.514 -0.1701  0.1165  0.3779
 1115YOPC   C4B15878   7.360   2.863   6.423  0.2453  0.0110 -0.0459
 1116YOPC   NC315879   3.857  13.051   5.380  0.1603  0.4232 -0.0880
 1116YOPC   PO415880   3.397  13.157   5.582 -0.0900  0.0595  0.2978
 1116YOPC   GL115881   3.743  13.251   5.824  0.0861 -0.0274  0.0988
 1116YOPC   GL215882   3.926  13.039   5.902  0.0139  0.0244 -0.4631
 1116YOPC   C1A15883   3.752  13.313   6.235  0.2722 -0.1369 -0.2346
 1116YOPC   D2A15884   3.853  13.340   6.599  0.0185 -0.0606 -0.1144
 1116YOPC   C3A15885   3.772  13.379   6.887 -0.0027 -0.2716 -0.2299
 1116YOPC   C4A15886   3.748  13.431   7.354 -0.0588 -0.0800  0.3927
 1116YOPC   C1B15887   4.210  12.965   6.310 -0.2261 -0.2201 -0.1069
 1116YOPC   C2B15888   4.260  13.071   6.696 -0.3017  0.1083 -0.3183
 1116YOPC   D3B15889   3.914  12.930   6.873 -0.0308 -0.0007  0.1024
 1116YOPC   C4B15890   3.843  12.932   7.271 -0.0973  0.0240 -0.2985
 1117YOPC   NC315891   0.246   8.436   5.416 -0.0464  0.1753 -0.1728
 1117YOPC   PO415892   0.230   8.836   5.530  0.1906  0.2538 -0.1034
 1117YOPC   GL115893   0.338   8.614   5.934 -0.1082 -0.0338 -0.0273
 1117YOPC   GL215894   0.395   8.283   5.890  0.1009  0.0483  0.1350
 1117YOPC   C1A15895   0.354   8.625   6.305 -0.0806 -0.1970  0.0217
 1117YOPC   D2A15896   0.626   8.656   6.634  0.1593 -0.0113  0.1487
 1117YOPC   C3A15897   0.708   8.197   6.613 -0.1831 -0.0464 -0.1794
 1117YOPC   C4A15898   0.717   7.708   6.831 -0.2311 -0.1099  0.3485
 1117YOPC   C1B15899   0.315   8.132   6.275  0.1461 -0.1435 -0.0441
 1117YOPC   C2B15900   0.152   8.316   6.681  0.2133 -0.0327  0.0143
 1117YOPC   D3B15901   0.372   8.114   6.993  0.1128  0.0035  0.4904
 1117YOPC   C4B15902   0.623   7.927   7.344 -0.2452 -0.0262  0.0575
 1118YOPC   NC315903  18.194  10.513   5.632 -0.3765  0.0049 -0.0402
 1118YOPC   PO415904  17.987  10.948   5.648 -0.3164 -0.0380 -0.1881
 1118YOPC   GL115905  17.796  10.991   5.960  0.0986  0.2224  0.2399
 1118YOPC   GL215906  17.933  10.726   6.126 -0.2607  0.0388 -0.0137
 1118YOPC   C1A15907  17.455  10.921   6.302  0.2945 -0.0084 -0.2767
 1118YOPC   D2A15908  17.298  10.756   6.712 -0.3002  0.0402  0.0214
 1118YOPC   C3A15909  17.486  10.793   7.084  0.1749  0.4039 -0.0818
 1118YOPC   C4A15910  17.279  10.536   7.288 -0.1242 -0.0565 -0.1809
 1118YOPC   C1B15911  17.846  10.679   6.558 -0.3210  0.1836  0.0572
 1118YOPC   C2B15912  18.020  10.842   6.915 -0.0721  0.0221 -0.1237
 1118YOPC   D3B15913  17.920  10.694   7.348 -0.1687 -0.0408  0.1318
 1118YOPC   C4B15914  17.587  10.889   7.653  0.2642 -0.1916  0.0729
 1119YOPC   NC315915   8.388  11.826   5.737  0.2200  0.0482  0.0950
 1119YOPC   PO415916   8.458  11.498   5.613  0.1716 -0.1188 -0.0852
 1119YOPC   GL115917   8.447  11.218   5.947 -0.0154 -0.4792  0.2060
 1119YOPC   GL215918   8.119  11.141   5.976  0.3664  0.1158 -0.1769
 1119YOPC   C1A15919   8.515  11.021   6.298  0.0303 -0.4009 -0.0886
 1119YOPC   D2A15920   8.523  11.137   6.798 -0.0845  0.0344 -0.0212
 1119YOPC   C3A15921   8.661  11.548   7.033  0.0604  0.0651  0.1579
 1119YOPC   C4A15922   9.103  11.660   7.089  0.0420  0.1426  0.3123
 1119YOPC   C1B15923   8.117  11.540   6.335 -0.0335 -0.2709  0.2827
 1119YOPC   C2B15924   8.191  11.530   6.732 -0.0679  0.0758 -0.2713
 1119YOPC   D3B15925   8.259  11.392   7.230 -0.0695  0.2491  0.2031
 1119YOPC   C4B15926   8.505  11.162   7.448  0.2369  0.0374 -0.0673
 1120YOPC   NC315927  13.846   3.707   5.522 -0.2895  0.1505  0.4281
 1120YOPC   PO415928  13.504   3.545   5.761 -0.3072  0.0109 -0.2170
 1120YOPC   GL115929  13.343   3.469   6.242  0.0887 -0.1075 -0.3188
 1120YOPC   GL215930  13.189   3.181   6.344  0.2655  0.1868  0.0074
 1120YOPC   C1A15931  13.309   3.473   6.700  0.1905 -0.1150  0.0706
 1120YOPC   D2A15932  13.178   3.568   7.143  0.0196 -0.1347  0.2125
 1120YOPC   C3A15933  13.140   3.284   7.396 -0.2245 -0.0729 -0.2288
 1120YOPC   C4A15934  13.336   3.101   7.698 -0.3653  0.1765  0.0630
 1120YOPC   C1B15935  12.908   2.851   6.586  0.1980  0.0532 -0.0039
 1120YOPC   C2B15936  12.756   2.503   6.841 -0.0064  0.1794  0.2087
 1120YOPC   D3B15937  12.653   2.132   6.980  0.1074  0.1162 -0.2877
 1120YOPC   C4B15938  12.540   1.735   6.928 -0.0108 -0.4340 -0.0394
 1121YOPC   NC315939  17.155   1.235   5.646  0.2324 -0.0574 -0.0774
 1121YOPC   PO415940  17.321   1.678   5.745 -0.2388  0.0662 -0.0060
 1121YOPC   GL115941  17.280   1.419   6.140 -0.2702 -0.2257  0.1175
 1121YOPC   GL215942  17.330   1.804   6.305 -0.0805  0.0252  0.1660
 1121YOPC   C1A15943  17.026   1.418   6.559  0.0393  0.0354  0.2011
 1121YOPC   D2A15944  16.981   1.490   7.015 -0.1367  0.1133 -0.3318
 1121YOPC   C3A15945  16.952   1.243   7.321 -0.0577  0.1734  0.2000
 1121YOPC   C4A15946  16.693   1.054   7.676 -0.0154 -0.1045 -0.3073
 1121YOPC   C1B15947  17.283   1.901   6.701  0.0519  0.2113  0.1530
 1121YOPC   C2B15948  17.333   1.978   7.127 -0.2252 -0.0611  0.0942
 1121YOPC   D3B15949  17.185   1.735   7.449  0.0178 -0.2220  0.2135
 1121YOPC   C4B15950  17.144   1.396   7.757  0.0651 -0.2817  0.0023
 1122YOPC   NC315951  16.345  15.085   5.608  0.1392 -0.2043 -0.1742
 1122YOPC   PO415952  16.745  15.039   5.757  0.1813  0.1585 -0.0992
 1122YOPC   GL115953  17.090  15.055   6.132 -0.4821  0.3247  0.1794
 1122YOPC   GL215954  17.323  14.725   6.122 -0.0031  0.0990  0.2908
 1122YOPC   C1A15955  17.315  15.110   6.517 -0.2485  0.3094  0.0903
 1122YOPC   D2A15956  17.403  14.953   6.903 -0.0499 -0.2499  0.1213
 1122YOPC   C3A15957  17.380  14.705   7.288  0.0606 -0.0140 -0.2798
 1122YOPC   C4A15958  17.219  14.353   7.386 -0.0101 -0.2103  0.0744
 1122YOPC   C1B15959  17.042  14.588   6.506 -0.2028 -0.2545  0.0470
 1122YOPC   C2B15960  17.078  14.506   6.934 -0.3311  0.2527 -0.0817
 1122YOPC   D3B15961  16.761  14.388   7.200 -0.0161  0.3981 -0.1060
 1122YOPC   C4B15962  16.497  13.999   7.432 -0.0132  0.0860 -0.0714
 1123YOPC   NC315963   3.406  11.114   5.619  0.1102 -0.1286  0.0457
 1123YOPC   PO415964   3.487  10.637   5.868  0.0647 -0.0694 -0.0858
 1123YOPC   GL115965   3.263  10.883   6.141 -0.0697  0.1833 -0.2314
 1123YOPC   GL215966   3.482  11.179   6.278 -0.2248  0.2786  0.0316
 1123YOPC   C1A15967   3.078  10.956   6.510  0.0898  0.0978 -0.3453
 1123YOPC   D2A15968   2.928  10.771   6.834 -0.0973 -0.1274  0.0817
 1123YOPC   C3A15969   3.045  10.955   7.262  0.2914 -0.0736  0.2823
 1123YOPC   C4A15970   3.076  11.081   7.672  0.0290  0.0868  0.1171
 1123YOPC   C1B15971   3.601  10.950   6.619  0.2068 -0.0200  0.1080
 1123YOPC   C2B15972   3.533  10.950   7.077 -0.0325 -0.0139  0.1503
 1123YOPC   D3B15973   3.523  11.265   7.386  0.1196 -0.1966  0.1605
 1123YOPC   C4B15974   3.587  11.733   7.613 -0.1604  0.0560 -0.0006
 1124YOPC   NC315975  11.656   0.692   4.961  0.2703  0.2173 -0.1630
 1124YOPC   PO415976  12.066   0.944   5.135 -0.0540  0.2315 -0.0698
 1124YOPC   GL115977  12.325   0.959   5.512  0.0306  0.1393 -0.3013
 1124YOPC   GL215978  12.068   1.075   5.748 -0.1562  0.0551  0.3220
 1124YOPC   C1A15979  12.643   0.905   5.839 -0.0334  0.2716 -0.0638
 1124YOPC   D2A15980  12.553   0.618   6.238  0.0552  0.0678  0.0436
 1124YOPC   C3A15981  12.541   0.605   6.740 -0.1490 -0.0626  0.1510
 1124YOPC   C4A15982  12.405   0.706   7.129 -0.1766 -0.0008  0.2147
 1124YOPC   C1B15983  12.267   1.178   6.075 -0.0317 -0.0214 -0.0603
 1124YOPC   C2B15984  12.416   1.085   6.369 -0.0706  0.1992  0.2018
 1124YOPC   D3B15985  12.136   0.760   6.637 -0.0348  0.2537 -0.1038
 1124YOPC   C4B15986  11.947   0.495   6.915  0.0738  0.1189  0.3045
 1125YOPC   NC315987   0.479  17.100   5.938  0.1025  0.0351 -0.2020
 1125YOPC   PO415988   0.773  16.999   6.254 -0.0507  0.0141  0.0085
 1125YOPC   GL115989   0.707  17.016   6.748  0.2353 -0.0254 -0.1475
 1125YOPC   GL215990   1.033  16.916   6.776 -0.0996  0.1798  0.2473
 1125YOPC   C1A15991   0.615  16.866   7.094 -0.1613 -0.0364  0.1131
 1125YOPC   D2A15992   0.594  16.970   7.528 -0.0733  0.2543 -0.2157
 1125YOPC   C3A15993   0.725  16.789   7.819  0.1872  0.0908  0.0084
 1125YOPC   C4A15994   0.380  16.784   7.975  0.1482 -0.2013  0.2341
 1125YOPC   C1B15995   1.161  16.913   7.211 -0.0908  0.0813 -0.0144
 1125YOPC   C2B15996   1.094  16.790   7.540 -0.0548  0.0361 -0.3023
 1125YOPC   D3B15997   1.460  16.776   7.834  0.0388  0.0110 -0.2805
 1125YOPC   C4B15998   1.368  16.834   8.278  0.0593  0.2006  0.2391
 1126YOPC   NC315999   9.804  17.226   5.872 -0.3751 -0.2251  0.0351
 1126YOPC   PO416000   9.689  17.662   5.753  0.0766  0.2666  0.1359
 1126YOPC   GL116001   9.528  17.551   6.083  0.0661 -0.1928  0.0490
 1126YOPC   GL216002   9.216  17.537   5.960 -0.0821  0.2783 -0.1454
 1126YOPC   C1A16003   9.198  17.724   6.458  0.4988 -0.0903  0.0036
 1126YOPC   D2A16004   9.025  17.739   6.788  0.2175 -0.0682  0.2785
 1126YOPC   C3A16005   8.987  17.822   7.200  0.0150 -0.3895  0.2704
 1126YOPC   C4A16006   9.362  17.967   7.628 -0.0623 -0.0608 -0.0525
 1126YOPC   C1B16007   9.286  17.269   6.387  0.0641  0.1788 -0.0455
 1126YOPC   C2B16008   9.444  17.332   6.744  0.0272 -0.0860  0.3411
 1126YOPC   D3B16009   9.233  17.341   7.026  0.0378 -0.2286  0.0662
 1126YOPC   C4B16010   9.263  17.415   7.489 -0.0813  0.1007  0.1350
 1127YOPC   NC316011   9.107   9.915   5.659  0.0516  0.0769 -0.2228
 1127YOPC   PO416012   9.377  10.091   5.960 -0.0193  0.0572  0.1007
 1127YOPC   GL116013   8.981  10.044   6.154 -0.2025 -0.2290 -0.2889
 1127YOPC   GL216014   9.026  10.382   6.287  0.6124 -0.0422 -0.0726
 1127YOPC   C1A16015   8.723  10.051   6.495  0.6040  0.1732  0.0584
 1127YOPC   D2A16016   8.679  10.068   6.993  0.0821 -0.0674  0.1982
 1127YOPC   C3A16017   8.920   9.933   7.388 -0.1912  0.0856  0.0044
 1127YOPC   C4A16018   9.027  10.145   7.778  0.2209  0.0631  0.1806
 1127YOPC   C1B16019   8.999  10.391   6.773  0.3851  0.0151  0.0152
 1127YOPC   C2B16020   8.975  10.401   7.211  0.1489  0.0916 -0.3994
 1127YOPC   D3B16021   8.875  10.785   7.441  0.0210 -0.2016  0.1770
 1127YOPC   C4B16022   8.919  11.094   7.726  0.0372  0.0926  0.0476
 1128YOPC   NC316023   4.301   5.402   5.188  0.1074 -0.2165 -0.3224
 1128YOPC   PO416024   4.590   5.684   5.404 -0.1337  0.2082 -0.1742
 1128YOPC   GL116025   4.907   5.967   5.747  0.2349 -0.0269  0.0648
 1128YOPC   GL216026   5.155   5.827   5.936  0.1160  0.0489 -0.0673
 1128YOPC   C1A16027   4.938   6.261   6.083 -0.2766  0.1977 -0.1391
 1128YOPC   D2A16028   4.992   6.169   6.486 -0.0481 -0.3214 -0.0502
 1128YOPC   C3A16029   4.637   6.076   6.725  0.0053 -0.0483  0.0276
 1128YOPC   C4A16030   4.408   6.099   7.095  0.1418 -0.1216 -0.2914
 1128YOPC   C1B16031   4.899   5.769   6.215 -0.0725  0.0349 -0.0437
 1128YOPC   C2B16032   4.577   5.983   6.192  0.0426 -0.2075 -0.2722
 1128YOPC   D3B16033   4.185   6.058   6.471  0.1286  0.2563  0.2060
 1128YOPC   C4B16034   3.811   5.848   6.464  0.2341  0.1943 -0.0250
 1129YOPC   NC316035   1.472   6.223   5.529  0.2012  0.2495 -0.2233
 1129YOPC   PO416036   1.196   5.789   5.442  0.0513 -0.0428  0.1689
 1129YOPC   GL116037   1.138   5.824   5.800  0.0039 -0.0410 -0.1365
 1129YOPC   GL216038   1.384   5.940   5.958 -0.4567 -0.1627 -0.1613
 1129YOPC   C1A16039   0.967   5.690   6.307 -0.0648  0.1966  0.3246
 1129YOPC   D2A16040   1.071   5.699   6.800 -0.1730 -0.4826 -0.1561
 1129YOPC   C3A16041   1.462   5.765   7.085 -0.2051  0.0621  0.0812
 1129YOPC   C4A16042   1.635   5.790   7.489  0.0667  0.0398  0.2932
 1129YOPC   C1B16043   1.568   6.354   6.120 -0.0616 -0.2512  0.0464
 1129YOPC   C2B16044   1.409   6.628   6.382  0.0101  0.0314  0.0283
 1129YOPC   D3B16045   1.492   6.635   6.825  0.0666  0.0695 -0.2487
 1129YOPC   C4B16046   1.474   6.778   7.264 -0.0920 -0.1642 -0.2142
 1130YOPC   NC316047   9.511  14.941   5.414 -0.1002  0.3115 -0.0496
 1130YOPC   PO416048   9.490  14.594   5.780 -0.0491 -0.2058  0.0498
 1130YOPC   GL116049   9.460  14.782   6.211  0.2653  0.0668  0.0685
 1130YOPC   GL216050   9.283  14.490   6.295  0.0248  0.0685  0.3397
 1130YOPC   C1A16051   9.331  14.953   6.470  0.0765 -0.2574  0.0319
 1130YOPC   D2A16052   9.366  15.224   6.776 -0.3484  0.2224 -0.1521
 1130YOPC   C3A16053   9.181  15.202   7.241  0.1418 -0.0968 -0.0217
 1130YOPC   C4A16054   9.217  15.048   7.664 -0.1195 -0.2699  0.0566
 1130YOPC   C1B16055   9.214  14.533   6.702  0.2337 -0.0126  0.1839
 1130YOPC   C2B16056   9.133  14.779   6.971  0.2225  0.1532 -0.3023
 1130YOPC   D3B16057   8.919  14.812   7.316 -0.2327 -0.1029 -0.1143
 1130YOPC   C4B16058   8.649  14.925   7.631 -0.1476  0.2658 -0.1372
 1131YOPC   NC316059  13.545   7.994   5.671 -0.0931  0.1566 -0.0410
 1131YOPC   PO416060  13.256   7.746   5.836  0.3245 -0.1155 -0.0667
 1131YOPC   GL116061  13.425   7.629   6.186 -0.1200  0.1605  0.0715
 1131YOPC   GL216062  13.695   7.780   6.104  0.0787  0.2438  0.0355
 1131YOPC   C1A16063  13.281   7.490   6.602  0.2973 -0.0842 -0.2596
 1131YOPC   D2A16064  13.222   7.322   6.934 -0.0019 -0.0181  0.4867
 1131YOPC   C3A16065  13.282   7.529   7.338 -0.0561 -0.0101 -0.1369
 1131YOPC   C4A16066  13.543   7.696   7.675  0.1994 -0.0196 -0.1294
 1131YOPC   C1B16067  13.632   7.906   6.568 -0.1565  0.2766  0.2943
 1131YOPC   C2B16068  13.466   7.792   6.949  0.0945  0.0055  0.2008
 1131YOPC   D3B16069  13.322   8.052   7.239 -0.0774 -0.1281  0.1467
 1131YOPC   C4B16070  13.112   8.306   7.619  0.2892 -0.0625 -0.0391
 1132YOPC   NC316071   2.842   2.661   5.481  0.1097  0.0401 -0.0247
 1132YOPC   PO416072   2.864   2.965   5.827 -0.1189  0.0324 -0.1010
 1132YOPC   GL116073   2.893   2.980   6.226  0.0017  0.0193  0.0679
 1132YOPC   GL216074   2.707   2.928   6.462 -0.1216  0.0216 -0.0580
 1132YOPC   C1A16075   3.113   2.765   6.591  0.2711 -0.0820 -0.0264
 1132YOPC   D2A16076   3.111   2.455   6.874  0.0810 -0.1133  0.1626
 1132YOPC   C3A16077   2.986   2.423   7.267 -0.0503  0.0348 -0.1986
 1132YOPC   C4A16078   3.320   2.418   7.583  0.0202  0.1395  0.2286
 1132YOPC   C1B16079   2.651   2.936   6.772 -0.2609 -0.1297  0.1659
 1132YOPC   C2B16080   2.776   2.885   7.093 -0.2076 -0.1552 -0.2688
 1132YOPC   D3B16081   2.711   3.274   7.361 -0.3007 -0.0767  0.1388
 1132YOPC   C4B16082   2.866   3.446   7.776  0.0632  0.2490  0.2258
 1133YOPC   NC316083   0.429  13.385   5.761  0.0948 -0.0650  0.0179
 1133YOPC   PO416084   0.691  13.036   5.956  0.1033 -0.0970  0.1432
 1133YOPC   GL116085   0.558  13.145   6.364  0.3601  0.1562 -0.1065
 1133YOPC   GL216086   0.873  13.225   6.485 -0.1271  0.1662  0.0146
 1133YOPC   C1A16087   0.410  13.472   6.516  0.4603 -0.1809  0.0078
 1133YOPC   D2A16088   0.015  13.562   6.754 -0.1529 -0.0727  0.0167
 1133YOPC   C3A16089  -0.323  13.241   7.037  0.0509  0.1448 -0.2250
 1133YOPC   C4A16090  -0.704  12.992   7.062  0.1649 -0.2709 -0.1653
 1133YOPC   C1B16091   0.700  13.101   6.809 -0.2908 -0.1213  0.1620
 1133YOPC   C2B16092   0.547  13.379   7.021  0.4026  0.1646 -0.0163
 1133YOPC   D3B16093   0.179  13.569   7.231  0.4166  0.1787  0.0076
 1133YOPC   C4B16094  -0.116  13.393   7.453 -0.4764  0.0663 -0.1146
 1134YOPC   NC316095  16.849  13.770   5.927 -0.1198 -0.2427 -0.1090
 1134YOPC   PO416096  16.522  13.447   5.890  0.1481  0.2120  0.2455
 1134YOPC   GL116097  16.329  13.126   6.170  0.1314  0.0304 -0.1468
 1134YOPC   GL216098  16.237  13.207   6.453 -0.0901 -0.0538  0.0961
 1134YOPC   C1A16099  16.405  12.723   6.380  0.0391  0.0289 -0.1081
 1134YOPC   D2A16100  16.541  12.629   6.757 -0.3033 -0.2125 -0.0386
 1134YOPC   C3A16101  16.421  12.383   7.234 -0.1225  0.1417  0.2217
 1134YOPC   C4A16102  16.165  12.508   7.616  0.2262  0.2321 -0.0340
 1134YOPC   C1B16103  16.266  13.107   6.892 -0.0605 -0.1467 -0.0311
 1134YOPC   C2B16104  16.345  12.963   7.231 -0.2015  0.0883  0.0802
 1134YOPC   D3B16105  16.202  13.027   7.664  0.0393 -0.0555 -0.1391
 1134YOPC   C4B16106  16.171  12.966   8.081  0.1568 -0.0788 -0.1511
 1135YOPC   NC316107  10.196   0.976   5.167  0.1828 -0.0624  0.1236
 1135YOPC   PO416108  10.200   0.801   5.536 -0.0654  0.2101  0.2713
 1135YOPC   GL116109  10.259   0.577   5.934 -0.2174  0.1144  0.3291
 1135YOPC   GL216110  10.579   0.482   5.801  0.0740  0.1148  0.3593
 1135YOPC   C1A16111  10.249   0.428   6.329  0.0000 -0.0746 -0.1513
 1135YOPC   D2A16112  10.043   0.402   6.716  0.0077  0.0695  0.0908
 1135YOPC   C3A16113  10.160   0.641   7.100  0.2322  0.0789 -0.2001
 1135YOPC   C4A16114  10.192   0.844   7.434  0.1160  0.2399  0.0778
 1135YOPC   C1B16115  10.747   0.670   6.180  0.0342  0.1237  0.1881
 1135YOPC   C2B16116  11.182   0.557   6.486  0.2727 -0.0015  0.1016
 1135YOPC   D3B16117  11.397   0.578   6.861  0.1115  0.1277 -0.2745
 1135YOPC   C4B16118  11.187   0.762   7.349 -0.0255  0.0139  0.1151
 1136YOPC   NC316119  14.133  15.548   6.010  0.1687 -0.2572 -0.0547
 1136YOPC   PO416120  13.727  15.517   5.799  0.0761  0.1048  0.2683
 1136YOPC   GL116121  13.530  15.460   6.256  0.1621  0.2275 -0.4041
 1136YOPC   GL216122  13.576  15.161   6.389 -0.1500 -0.2642 -0.1629
 1136YOPC   C1A16123  13.559  15.590   6.591  0.0042  0.0934  0.0982
 1136YOPC   D2A16124  13.598  15.803   6.921  0.0177 -0.0746 -0.0842
 1136YOPC   C3A16125  13.403  15.792   7.297 -0.4112  0.1551 -0.2941
 1136YOPC   C4A16126  13.423  15.618   7.691 -0.4406  0.0635  0.2162
 1136YOPC   C1B16127  13.799  14.809   6.387  0.2449  0.2857 -0.2227
 1136YOPC   C2B16128  13.805  14.392   6.587  0.2100 -0.3881 -0.1899
 1136YOPC   D3B16129  13.932  14.288   7.044  0.1710 -0.0899 -0.1545
 1136YOPC   C4B16130  13.979  14.080   7.555 -0.0443 -0.1861  0.3283
 1137YOPC   NC316131   3.826   8.645   5.623 -0.0920  0.0411  0.4110
 1137YOPC   PO416132   4.100   8.283   5.426 -0.2597  0.1301 -0.0853
 1137YOPC   GL116133   4.182   8.087   5.737  0.1907  0.1200 -0.0335
 1137YOPC   GL216134   4.233   8.431   5.884  0.1904 -0.0407 -0.0447
 1137YOPC   C1A16135   4.135   7.679   5.913  0.2083 -0.0222 -0.1938
 1137YOPC   D2A16136   3.836   7.304   6.092  0.3365  0.0820 -0.0055
 1137YOPC   C3A16137   3.807   7.309   6.544 -0.4553 -0.0099  0.0138
 1137YOPC   C4A16138   3.739   7.282   6.998 -0.1689 -0.0067 -0.0899
 1137YOPC   C1B16139   4.205   8.252   6.311  0.0914  0.1242  0.1878
 1137YOPC   C2B16140   4.238   8.064   6.726  0.0145  0.1851 -0.2116
 1137YOPC   D3B16141   4.311   8.258   7.157 -0.1342  0.1327 -0.0550
 1137YOPC   C4B16142   4.633   8.242   7.400 -0.0659 -0.0629 -0.0951
 1138YOPC   NC316143   6.452  14.653   5.171  0.0173  0.2267  0.0141
 1138YOPC   PO416144   6.074  14.482   5.420 -0.0345  0.0440 -0.0106
 1138YOPC   GL116145   6.043  14.699   5.774 -0.3211 -0.2047 -0.0686
 1138YOPC   GL216146   6.267  14.889   5.954 -0.0592  0.2423 -0.0770
 1138YOPC   C1A16147   5.761  14.639   6.077  0.3109 -0.0770  0.0784
 1138YOPC   D2A16148   5.341  14.431   6.060  0.1667  0.0452 -0.2298
 1138YOPC   C3A16149   4.935  14.517   6.252  0.2318 -0.4230 -0.0637
 1138YOPC   C4A16150   4.809  14.464   6.655  0.0786 -0.2297 -0.0644
 1138YOPC   C1B16151   6.170  14.787   6.457  0.1692  0.0610  0.3328
 1138YOPC   C2B16152   6.253  14.925   6.892  0.3694 -0.1947 -0.0684
 1138YOPC   D3B16153   6.450  14.608   7.161  0.0381  0.2572  0.0993
 1138YOPC   C4B16154   6.512  14.456   7.535  0.1991 -0.0905  0.0998
 1139YOPC   NC316155  12.821   0.977   5.173 -0.2430 -0.1658 -0.2511
 1139YOPC   PO416156  12.945   1.338   5.231  0.3061 -0.1129 -0.0648
 1139YOPC   GL116157  12.873   1.285   5.671  0.0205 -0.0632  0.0090
 1139YOPC   GL216158  12.498   1.400   5.676 -0.1257 -0.1586 -0.0560
 1139YOPC   C1A16159  13.148   1.392   5.978  0.1122  0.2935 -0.3018
 1139YOPC   D2A16160  13.368   1.391   6.340  0.0276  0.0049  0.2014
 1139YOPC   C3A16161  13.248   1.241   6.675  0.2686 -0.0828  0.0915
 1139YOPC   C4A16162  12.724   1.226   6.759  0.3556  0.0830  0.1586
 1139YOPC   C1B16163  12.641   1.466   6.069 -0.0313  0.1776  0.0410
 1139YOPC   C2B16164  12.451   1.669   6.463 -0.4278 -0.0935 -0.1675
 1139YOPC   D3B16165  12.620   2.099   6.467  0.0215 -0.2917 -0.2296
 1139YOPC   C4B16166  12.637   2.545   6.351  0.0754  0.1005  0.1987
 1140YOPC   NC316167   2.769  16.079   5.871 -0.3393 -0.0828 -0.1482
 1140YOPC   PO416168   3.236  15.854   5.845  0.1743 -0.2259 -0.1817
 1140YOPC   GL116169   3.087  16.108   6.260  0.3054  0.0278  0.1906
 1140YOPC   GL216170   2.875  16.396   6.258  0.2860  0.0751 -0.0355
 1140YOPC   C1A16171   3.308  16.051   6.666 -0.2654  0.1309  0.0398
 1140YOPC   D2A16172   3.255  16.112   7.239 -0.0287  0.0550  0.5300
 1140YOPC   C3A16173   3.486  16.158   7.616 -0.1539 -0.1927  0.0413
 1140YOPC   C4A16174   3.818  16.229   7.861 -0.1743  0.1869  0.1590
 1140YOPC   C1B16175   2.711  16.180   6.586  0.0174 -0.2280  0.1507
 1140YOPC   C2B16176   2.894  16.305   6.955 -0.0037 -0.0531  0.0736
 1140YOPC   D3B16177   2.982  16.496   7.420 -0.3343  0.5157  0.0853
 1140YOPC   C4B16178   2.891  16.540   7.825 -0.0712  0.3490  0.0486
 1141YOPC   NC316179   8.928  13.046   5.793 -0.0305 -0.0899  0.0388
 1141YOPC   PO416180   9.276  13.178   5.885  0.2906 -0.1936  0.0200
 1141YOPC   GL116181   9.294  13.125   6.360 -0.0080 -0.0625  0.0927
 1141YOPC   GL216182   9.215  13.394   6.418 -0.1220 -0.0262  0.2701
 1141YOPC   C1A16183   9.207  13.003   6.799 -0.1730 -0.0836 -0.2993
 1141YOPC   D2A16184   9.585  13.061   7.073 -0.3719  0.2279  0.0708
 1141YOPC   C3A16185   9.598  12.815   7.431 -0.1987 -0.0487 -0.2060
 1141YOPC   C4A16186   9.663  12.471   7.747 -0.0668 -0.0217  0.2315
 1141YOPC   C1B16187   8.919  13.524   6.696 -0.1146 -0.1505 -0.0527
 1141YOPC   C2B16188   8.729  13.563   7.099 -0.5254 -0.1320 -0.1439
 1141YOPC   D3B16189   8.332  13.534   7.365  0.0628 -0.3127 -0.2548
 1141YOPC   C4B16190   8.104  13.829   7.363 -0.1927 -0.1680 -0.0209
 1142YOPC   NC316191  14.759   9.766   5.711  0.0244  0.0296 -0.1958
 1142YOPC   PO416192  14.594   9.332   5.631 -0.1075  0.0231 -0.2364
 1142YOPC   GL116193  14.684   9.219   6.014  0.0583  0.0783 -0.1170
 1142YOPC   GL216194  14.720   8.977   6.021  0.3153  0.1055 -0.0525
 1142YOPC   C1A16195  14.798   9.286   6.419 -0.2921  0.1126 -0.1434
 1142YOPC   D2A16196  14.745   9.247   6.835 -0.1057 -0.4817 -0.0749
 1142YOPC   C3A16197  14.650   8.880   7.006 -0.0494 -0.1513 -0.0892
 1142YOPC   C4A16198  14.475   8.694   7.409  0.1273  0.1066 -0.0194
 1142YOPC   C1B16199  14.639   8.796   6.486  0.1584  0.0647 -0.1206
 1142YOPC   C2B16200  14.269   8.668   6.666 -0.1432 -0.0515  0.0390
 1142YOPC   D3B16201  14.161   8.457   7.046  0.1011 -0.0796  0.0021
 1142YOPC   C4B16202  14.101   8.320   7.439 -0.1085  0.2013 -0.2525
 1143ERGO   ROH16203   6.232   0.099   6.507 -0.1640  0.1672 -0.0678
 1143ERGO    R116204   6.045   0.258   6.649 -0.1254  0.1098  0.0488
 1143ERGO    R216205   5.990   0.220   6.917  0.1104  0.1427  0.1024
 1143ERGO    R316206   6.052   0.484   6.933 -0.0013  0.1769 -0.0062
 1143ERGO    R416207   5.919   0.423   7.187  0.2312  0.1629  0.1194
 1143ERGO    R516208   5.866   0.582   7.048  0.0411  0.1100  0.1250
 1143ERGO    C116209   5.936   0.789   7.360  0.1966  0.2067  0.0274
 1143ERGO    C216210   5.996   0.952   7.674 -0.1390  0.2190  0.0398
 1144ERGO   ROH16211   9.849   6.455   6.259 -0.2454 -0.0583 -0.1585
 1144ERGO    R116212   9.980   6.428   6.508 -0.2563  0.0648 -0.1375
 1144ERGO    R216213   9.927   6.592   6.723 -0.4473  0.0166 -0.1407
 1144ERGO    R316214   9.883   6.357   6.852 -0.2461 -0.0293 -0.1549
 1144ERGO    R416215   9.926   6.553   7.066 -0.2469 -0.0472 -0.1469
 1144ERGO    R516216  10.032   6.364   7.040 -0.1546  0.0203 -0.2320
 1144ERGO    C116217   9.884   6.308   7.387  0.0587 -0.1274 -0.1639
 1144ERGO    C216218   9.926   6.329   7.681  0.3798 -0.2265 -0.0822
 1145ERGO   ROH16219   1.244  18.056   6.226 -0.1791  0.0812 -0.1730
 1145ERGO    R116220   0.994  17.934   6.276 -0.1232  0.0157 -0.0310
 1145ERGO    R216221   0.889  17.907   6.531  0.0256 -0.0282  0.0448
 1145ERGO    R316222   0.675  18.033   6.421 -0.0536 -0.0618  0.1668
 1145ERGO    R416223   0.560  17.858   6.625  0.0652 -0.1729  0.1010
 1145ERGO    R516224   0.504  17.867   6.415  0.0040 -0.1017  0.1386
 1145ERGO    C116225   0.168  17.948   6.577  0.0140 -0.2890  0.2482
 1145ERGO    C216226  -0.023  17.975   6.712  0.2704 -0.1718 -0.3951
 1146ERGO   ROH16227  15.788   3.343   6.275 -0.1010 -0.0139 -0.0739
 1146ERGO    R116228  15.722   3.228   6.525 -0.0150  0.0002 -0.0444
 1146ERGO    R216229  15.860   3.013   6.631  0.0170  0.0026 -0.0831
 1146ERGO    R316230  15.887   3.177   6.845  0.0976  0.0117 -0.0998
 1146ERGO    R416231  15.894   2.907   6.958  0.0244  0.0165 -0.0793
 1146ERGO    R516232  15.763   3.070   7.019  0.0841  0.0649 -0.0754
 1146ERGO    C116233  15.939   3.000   7.350  0.1044  0.0331 -0.0928
 1146ERGO    C216234  16.170   2.744   7.541 -0.2719  0.0976  0.2384
 1147ERGO   ROH16235  10.028   5.479   6.254 -0.1655 -0.1076  0.0336
 1147ERGO    R116236   9.996   5.464   6.535 -0.0797  0.2004  0.0627
 1147ERGO    R216237  10.098   5.255   6.685 -0.4158  0.1320  0.1968
 1147ERGO    R316238  10.215   5.456   6.825  0.0325  0.0382 -0.0235
 1147ERGO    R416239  10.192   5.236   7.017 -0.2628  0.2174  0.1602
 1147ERGO    R516240  10.120   5.440   7.044  0.1188  0.3793  0.0480
 1147ERGO    C116241  10.357   5.414   7.342  0.2473  0.1790 -0.0679
 1147ERGO    C216242  10.470   5.268   7.659 -0.4057  0.0885 -0.3255
 1148ERGO   ROH16243  15.439  14.253   6.264 -0.0164 -0.2593  0.0067
 1148ERGO    R116244  15.650  14.305   6.445 -0.0699 -0.2967  0.0806
 1148ERGO    R216245  15.727  14.561   6.516  0.1989 -0.2961 -0.1894
 1148ERGO    R316246  15.688  14.468   6.768 -0.0850  0.0612 -0.0939
 1148ERGO    R416247  15.853  14.708   6.802  0.1872 -0.0934 -0.2869
 1148ERGO    R516248  15.896  14.509   6.880 -0.1066 -0.0565 -0.0086
 1148ERGO    C116249  15.889  14.707   7.206 -0.0864  0.3602 -0.2541
 1148ERGO    C216250  15.999  15.045   7.461  0.1267  0.0660 -0.3361
 1149ERGO   ROH16251   6.535  13.894   5.867  0.0693  0.0130 -0.0937
 1149ERGO    R116252   6.372  13.824   6.087  0.2214 -0.1070 -0.0160
 1149ERGO    R216253   6.476  13.754   6.334  0.3863  0.2475  0.0251
 1149ERGO    R316254   6.311  13.951   6.423  0.0630  0.0411 -0.1004
 1149ERGO    R416255   6.362  13.786   6.659  0.0651  0.0960 -0.0693
 1149ERGO    R516256   6.167  13.843   6.580  0.0607 -0.1418 -0.2304
 1149ERGO    C116257   6.141  13.989   6.931 -0.4255 -0.1859 -0.2420
 1149ERGO    C216258   6.139  14.148   7.314  0.0251  0.0278 -0.1413
 1150ERGO   ROH16259  15.938   6.145   6.192 -0.4060 -0.0521 -0.0739
 1150ERGO    R116260  15.888   6.265   6.443 -0.2820 -0.0196 -0.0645
 1150ERGO    R216261  15.747   6.137   6.643 -0.1915  0.0115  0.0164
 1150ERGO    R316262  15.968   6.193   6.791 -0.1208  0.0210 -0.0915
 1150ERGO    R416263  15.769   6.103   6.987  0.0131 -0.1159 -0.0081
 1150ERGO    R516264  15.883   6.289   6.993 -0.0371 -0.0811 -0.0033
 1150ERGO    C116265  15.991   6.135   7.325  0.1987 -0.1811 -0.1236
 1150ERGO    C216266  16.013   5.855   7.581  0.1709 -0.1053  0.2556
 1151ERGO   ROH16267  12.897  11.468   6.442 -0.4182  0.1101  0.0560
 1151ERGO    R116268  12.889  11.258   6.630 -0.0437  0.1088  0.0792
 1151ERGO    R216269  13.012  11.274   6.877 -0.2221  0.4339  0.1561
 1151ERGO    R316270  12.765  11.211   6.969 -0.1462 -0.1272  0.0106
 1151ERGO    R416271  12.944  11.158   7.195 -0.1420  0.1787  0.0821
 1151ERGO    R516272  12.800  11.019   7.108  0.1919 -0.1051 -0.0382
 1151ERGO    C116273  12.672  11.032   7.467 -0.0242 -0.4968 -0.0977
 1151ERGO    C216274  12.705  10.986   7.770 -0.2620 -0.2731  0.0258
 1152ERGO   ROH16275   7.789   7.770   6.388 -0.1570 -0.0046  0.0354
 1152ERGO    R116276   7.894   7.687   6.638 -0.3093 -0.2239  0.0280
 1152ERGO    R216277   7.981   7.866   6.829  0.0893 -0.3996  0.0110
 1152ERGO    R316278   7.807   7.731   6.989 -0.1893 -0.0300  0.0367
 1152ERGO    R416279   7.927   7.934   7.164  0.2978 -0.2770  0.0226
 1152ERGO    R516280   7.919   7.719   7.201 -0.1669 -0.2757  0.0192
 1152ERGO    C116281   7.733   7.846   7.508  0.1576  0.1413  0.0534
 1152ERGO    C216282   7.591   7.862   7.754 -0.2163  0.1623  0.1018
 1153ERGO   ROH16283   9.197   7.719   6.323 -0.1443  0.0448 -0.1751
 1153ERGO    R116284   9.215   7.777   6.599  0.0093  0.0952 -0.1949
 1153ERGO    R216285   9.075   7.983   6.718 -0.0375  0.0263 -0.1299
 1153ERGO    R316286   8.987   7.786   6.883  0.1955 -0.0048 -0.0392
 1153ERGO    R416287   8.954   8.033   7.038  0.1226  0.0017 -0.0648
 1153ERGO    R516288   9.061   7.854   7.100  0.2828  0.0844 -0.0957
 1153ERGO    C116289   8.802   7.877   7.379  0.4346 -0.0417  0.0582
 1153ERGO    C216290   8.696   7.818   7.802  0.4986  0.0660  0.0568
 1154ERGO   ROH16291   1.146   1.533   6.216 -0.1316 -0.1931 -0.0741
 1154ERGO    R116292   1.166   1.642   6.476  0.0566 -0.3005 -0.0418
 1154ERGO    R216293   0.985   1.827   6.575  0.3599 -0.0273  0.0163
 1154ERGO    R316294   0.961   1.647   6.777  0.0683 -0.0521 -0.0347
 1154ERGO    R416295   0.834   1.889   6.880  0.3419  0.0931 -0.0165
 1154ERGO    R516296   0.993   1.775   6.976  0.1726 -0.1360  0.0065
 1154ERGO    C116297   0.725   1.756   7.247  0.0578  0.1399 -0.0835
 1154ERGO    C216298   0.493   1.674   7.549  0.1237  0.4344 -0.1411
 1155ERGO   ROH16299  14.796   8.190   6.043  0.1378 -0.1168  0.0916
 1155ERGO    R116300  14.809   8.346   6.278  0.1101 -0.0446  0.0459
 1155ERGO    R216301  14.666   8.285   6.506  0.0625  0.0388  0.0421
 1155ERGO    R316302  14.911   8.296   6.624  0.0438  0.0513  0.0788
 1155ERGO    R416303  14.723   8.381   6.833 -0.0022 -0.1175  0.0999
 1155ERGO    R516304  14.900   8.490   6.765 -0.0292 -0.0288  0.1802
 1155ERGO    C116305  14.986   8.447   7.134 -0.0575 -0.1966  0.1679
 1155ERGO    C216306  14.969   8.673   7.508  0.0565  0.2041 -0.1720
 1156ERGO   ROH16307   4.108   4.215   6.136 -0.1451  0.1807  0.1407
 1156ERGO    R116308   4.135   4.182   6.416 -0.0306  0.1352  0.1244
 1156ERGO    R216309   4.247   3.956   6.529 -0.2006  0.0126  0.0469
 1156ERGO    R316310   4.408   4.137   6.652  0.0519 -0.1593 -0.0208
 1156ERGO    R416311   4.380   3.919   6.846 -0.2100 -0.0767  0.0414
 1156ERGO    R516312   4.341   4.131   6.881  0.0672 -0.0107 -0.0097
 1156ERGO    C116313   4.609   4.068   7.146  0.0217 -0.2900 -0.0253
 1156ERGO    C216314   4.855   4.053   7.397  0.0046 -0.0189  0.2097
 1157ERGO   ROH16315   4.713   6.565   5.799  0.1563 -0.2347  0.0960
 1157ERGO    R116316   4.605   6.628   6.053  0.0965 -0.1072  0.0398
 1157ERGO    R216317   4.481   6.440   6.213  0.0809 -0.0333  0.1168
 1157ERGO    R316318   4.661   6.526   6.398  0.0341  0.0847  0.1080
 1157ERGO    R416319   4.406   6.512   6.543  0.0399 -0.0321  0.1070
 1157ERGO    R516320   4.539   6.684   6.530 -0.0509  0.0367  0.0871
 1157ERGO    C116321   4.531   6.633   6.908 -0.0280  0.0793  0.0929
 1157ERGO    C216322   4.343   6.615   7.236 -0.0448 -0.2803 -0.1314
 1158ERGO   ROH16323  13.965  15.806   6.351  0.2065 -0.0296  0.0958
 1158ERGO    R116324  13.969  15.858   6.629  0.0999 -0.0527  0.1018
 1158ERGO    R216325  14.183  15.980   6.755  0.0573 -0.0783  0.1959
 1158ERGO    R316326  13.991  16.151   6.843  0.0354 -0.0722  0.1367
 1158ERGO    R416327  14.193  16.153   7.054 -0.0064 -0.0538  0.1842
 1158ERGO    R516328  13.981  16.114   7.079 -0.0149 -0.0541  0.1398
 1158ERGO    C116329  14.019  16.415   7.310 -0.0640 -0.0340  0.1218
 1158ERGO    C216330  14.004  16.473   7.481 -0.0425  0.1295 -0.0538
 1159ERGO   ROH16331   1.282   0.855   5.996  0.1056 -0.0312  0.1356
 1159ERGO    R116332   1.234   0.765   6.260  0.0578  0.0437  0.1531
 1159ERGO    R216333   1.313   0.515   6.348 -0.2571 -0.0671  0.1388
 1159ERGO    R316334   1.436   0.659   6.544  0.0002 -0.2235  0.0966
 1159ERGO    R416335   1.374   0.401   6.669 -0.4743 -0.0768  0.1777
 1159ERGO    R516336   1.319   0.598   6.744 -0.1200  0.0513  0.1130
 1159ERGO    C116337   1.524   0.469   7.039 -0.3591 -0.2292  0.1608
 1159ERGO    C216338   1.589   0.423   7.300  0.0898  0.1206  0.2294
 1160ERGO   ROH16339  14.025  11.500   6.332  0.2107  0.1909  0.0319
 1160ERGO    R116340  14.039  11.590   6.601  0.1045  0.0655  0.0808
 1160ERGO    R216341  13.860  11.506   6.795  0.0356 -0.0383 -0.0238
 1160ERGO    R316342  14.088  11.437   6.927 -0.0095 -0.0867  0.0278
 1160ERGO    R416343  13.880  11.444   7.134 -0.0893 -0.2101 -0.0472
 1160ERGO    R516344  14.071  11.550   7.138 -0.0993 -0.1957  0.0795
 1160ERGO    C116345  14.105  11.342   7.456 -0.2044 -0.3556 -0.0124
 1160ERGO    C216346  14.167  11.201   7.733 -0.2660 -0.0280 -0.1614
 1161ERGO   ROH16347  11.861  10.750   6.351 -0.0560 -0.0756  0.0051
 1161ERGO    R116348  11.694  10.749   6.581 -0.1205 -0.1646 -0.0408
 1161ERGO    R216349  11.604  10.516   6.699  0.0315 -0.2157 -0.0229
 1161ERGO    R316350  11.715  10.624   6.922 -0.1158 -0.0849 -0.0115
 1161ERGO    R416351  11.494  10.460   7.021  0.0371 -0.3166 -0.0387
 1161ERGO    R516352  11.529  10.671   7.065 -0.1908 -0.2738 -0.0440
 1161ERGO    C116353  11.534  10.529   7.419 -0.0978 -0.2527 -0.0373
 1161ERGO    C216354  11.488  10.434   7.790 -0.1164 -0.2719  0.2386
 1162ERGO   ROH16355   6.215   2.617   6.017  0.0283 -0.2622 -0.1434
 1162ERGO    R116356   6.272   2.448   6.237  0.0385 -0.0925 -0.0129
 1162ERGO    R216357   6.526   2.352   6.289  0.0716  0.0704  0.1407
 1162ERGO    R316358   6.482   2.461   6.534 -0.0727  0.2078  0.0549
 1162ERGO    R416359   6.734   2.315   6.562 -0.0757  0.2466  0.2792
 1162ERGO    R516360   6.558   2.295   6.688 -0.1424  0.3042  0.1939
 1162ERGO    C116361   6.815   2.397   6.951 -0.2969  0.4782  0.2793
 1162ERGO    C216362   6.999   2.422   7.305 -0.3177  0.2551  0.2732
 1163ERGO   ROH16363  13.487  12.533   6.562 -0.0076 -0.1364 -0.0755
 1163ERGO    R116364  13.311  12.457   6.770 -0.0104 -0.0396 -0.0422
 1163ERGO    R216365  13.374  12.262   6.956 -0.0180  0.0384  0.0419
 1163ERGO    R316366  13.314  12.458   7.133 -0.0104  0.1178 -0.0423
 1163ERGO    R416367  13.358  12.220   7.298 -0.0404  0.1831  0.0594
 1163ERGO    R516368  13.183  12.349   7.301 -0.0290  0.1996 -0.0033
 1163ERGO    C116369  13.293  12.380   7.665 -0.0464  0.3421 -0.0094
 1163ERGO    C216370  13.159  12.275   8.004 -0.0282 -0.0128  0.0890
 1164ERGO   ROH16371   9.750  12.625   6.480  0.1505  0.1309 -0.0909
 1164ERGO    R116372   9.550  12.670   6.674  0.1884  0.0687 -0.0365
 1164ERGO    R216373   9.387  12.469   6.771  0.1343  0.0560 -0.1496
 1164ERGO    R316374   9.478  12.556   7.012  0.1929 -0.1310 -0.1026
 1164ERGO    R416375   9.199  12.479   7.060  0.0732  0.2349 -0.1943
 1164ERGO    R516376   9.291  12.671   7.107  0.3238  0.0995 -0.1197
 1164ERGO    C116377   9.174  12.566   7.455  0.0927  0.1638 -0.1762
 1164ERGO    C216378   9.033  12.423   7.745 -0.2307 -0.2808 -0.0642
 1165ERGO   ROH16379   2.232  13.756   6.248  0.2366  0.1075  0.1486
 1165ERGO    R116380   2.081  13.628   6.450  0.1866  0.0792  0.0946
 1165ERGO    R216381   2.055  13.730   6.705  0.0358  0.1002  0.0770
 1165ERGO    R316382   1.790  13.707   6.654  0.0680  0.0084 -0.0475
 1165ERGO    R416383   1.805  13.770   6.940 -0.0948  0.0398 -0.0521
 1165ERGO    R516384   1.700  13.601   6.849  0.0056  0.0003 -0.0845
 1165ERGO    C116385   1.409  13.771   7.028 -0.1406 -0.0817 -0.2442
 1165ERGO    C216386   1.266  13.807   7.338 -0.2186 -0.3527 -0.1942
 1166ERGO   ROH16387  18.013  12.368   6.405 -0.0062  0.1004 -0.0241
 1166ERGO    R116388  18.076  12.220   6.638 -0.0344  0.0528 -0.0473
 1166ERGO    R216389  18.069  12.331   6.892 -0.0548  0.0031 -0.0281
 1166ERGO    R316390  17.904  12.122   6.943 -0.0671 -0.0016 -0.0826
 1166ERGO    R416391  17.976  12.225   7.207  0.0894 -0.1896 -0.0473
 1166ERGO    R516392  17.995  12.019   7.139  0.0172 -0.1501 -0.1960
 1166ERGO    C116393  17.766  11.968   7.439  0.1621 -0.3063 -0.1096
 1166ERGO    C216394  17.621  11.864   7.724  0.1511 -0.1236 -0.1544
 1167ERGO   ROH16395  12.256  14.950   6.292 -0.0089  0.2413 -0.1651
 1167ERGO    R116396  12.340  15.143   6.481  0.1266  0.1666 -0.1473
 1167ERGO    R216397  12.373  15.085   6.749 -0.0103  0.1421 -0.1357
 1167ERGO    R316398  12.621  15.187   6.708  0.1056 -0.1033 -0.0651
 1167ERGO    R416399  12.591  15.179   7.000 -0.1775  0.3651 -0.0711
 1167ERGO    R516400  12.646  15.353   6.879  0.0620  0.1451 -0.2915
 1167ERGO    C116401  12.951  15.331   7.107 -0.1660  0.2648  0.0327
 1167ERGO    C216402  13.143  15.364   7.329  0.3388  0.1742  0.0058
 1168ERGO   ROH16403   7.249  15.492   5.945  0.1913  0.2910  0.0870
 1168ERGO    R116404   7.175  15.449   6.214  0.3045  0.1847  0.1013
 1168ERGO    R216405   7.110  15.198   6.312  0.0062  0.1965 -0.0616
 1168ERGO    R316406   7.302  15.256   6.496  0.2147 -0.2288 -0.1310
 1168ERGO    R416407   7.118  15.077   6.636 -0.2169  0.2637 -0.0286
 1168ERGO    R516408   7.183  15.273   6.703  0.3016  0.1334 -0.1017
 1168ERGO    C116409   7.302  15.060   6.996 -0.1511 -0.0965 -0.0745
 1168ERGO    C216410   7.377  14.802   7.254 -0.2541 -0.2812 -0.0901
 1169ERGO   ROH16411  16.700  12.163   5.863  0.2305 -0.0685  0.0358
 1169ERGO    R116412  16.615  11.966   6.048  0.1842 -0.1688 -0.0907
 1169ERGO    R216413  16.786  11.776   6.153  0.2141 -0.0762  0.0266
 1169ERGO    R316414  16.696  11.872   6.390 -0.0790 -0.1928 -0.0313
 1169ERGO    R416415  16.743  11.587   6.439  0.2898 -0.1380 -0.0023
 1169ERGO    R516416  16.559  11.697   6.478  0.1038 -0.3897 -0.1228
 1169ERGO    C116417  16.635  11.568   6.829  0.0590 -0.2835 -0.0736
 1169ERGO    C216418  16.629  11.452   7.137  0.1235 -0.1333  0.1759
 1170ERGO   ROH16419   4.886   0.294   6.058 -0.0063 -0.1972  0.0847
 1170ERGO    R116420   4.767   0.341   6.310 -0.0785 -0.0961  0.0324
 1170ERGO    R216421   4.519   0.239   6.379 -0.0423 -0.1751  0.0467
 1170ERGO    R316422   4.655   0.138   6.591 -0.0328  0.0251  0.1386
 1170ERGO    R416423   4.380   0.164   6.686 -0.1006 -0.2217  0.0094
 1170ERGO    R516424   4.558   0.245   6.782 -0.2229 -0.0143  0.0643
 1170ERGO    C116425   4.427   0.025   7.064 -0.1256 -0.0610  0.0741
 1170ERGO    C216426   4.300  -0.264   7.147 -0.0178  0.1092 -0.1539
 1171ERGO   ROH16427  10.035  13.969   6.406  0.0998  0.0198 -0.0397
 1171ERGO    R116428   9.954  13.939   6.676  0.1106  0.0993 -0.0263
 1171ERGO    R216429   9.907  13.691   6.790 -0.1848  0.1411 -0.0384
 1171ERGO    R316430  10.086  13.780   6.975 -0.0315 -0.0992 -0.0682
 1171ERGO    R416431   9.903  13.608   7.126 -0.0980 -0.0299 -0.0792
 1171ERGO    R516432   9.955  13.814   7.173  0.0866 -0.0983  0.0076
 1171ERGO    C116433  10.067  13.642   7.494  0.0963 -0.3549 -0.1310
 1171ERGO    C216434  10.257  13.668   7.753 -0.1533 -0.0951 -0.2658
 1172ERGO   ROH16435  10.226   3.559   6.073 -0.1992 -0.0701 -0.1325
 1172ERGO    R116436  10.155   3.335   6.230 -0.0592 -0.0344 -0.0161
 1172ERGO    R216437  10.301   3.257   6.452 -0.0007  0.1628  0.0212
 1172ERGO    R316438  10.060   3.274   6.576 -0.0079  0.0863  0.0183
 1172ERGO    R416439  10.240   3.162   6.778 -0.0099  0.0516 -0.0124
 1172ERGO    R516440  10.050   3.078   6.713  0.0099  0.0456 -0.0448
 1172ERGO    C116441   9.979   3.123   7.086 -0.0222 -0.0849 -0.0348
 1172ERGO    C216442   9.923   3.150   7.482  0.2792 -0.0621  0.1123
 1173ERGO   ROH16443  14.071  15.311   6.569 -0.3732 -0.1739  0.0354
 1173ERGO    R116444  13.991  15.411   6.821 -0.1927 -0.0341  0.0397
 1173ERGO    R216445  14.157  15.409   7.042 -0.0862 -0.0509 -0.0420
 1173ERGO    R316446  14.098  15.674   7.048  0.0720 -0.0124 -0.1061
 1173ERGO    R416447  14.225  15.621   7.307  0.0165 -0.0336 -0.0811
 1173ERGO    R516448  14.031  15.715   7.274  0.0742  0.0764 -0.1201
 1173ERGO    C116449  14.208  15.993   7.467  0.2247  0.0127 -0.1641
 1173ERGO    C216450  14.371  16.218   7.646  0.1178  0.4443 -0.0146
 1174ERGO   ROH16451  11.751  16.016   6.210 -0.1773 -0.0372  0.1557
 1174ERGO    R116452  11.749  16.001   6.492  0.0071 -0.0062  0.1605
 1174ERGO    R216453  11.980  15.984   6.643  0.1105  0.0934  0.0171
 1174ERGO    R316454  11.876  16.202   6.768  0.1118  0.0710  0.0568
 1174ERGO    R416455  12.070  16.093   6.958  0.2218  0.1245 -0.0250
 1174ERGO    R516456  11.860  16.137   6.998  0.2285  0.0736  0.0655
 1174ERGO    C116457  12.024  16.360   7.260  0.2878  0.1212 -0.0123
 1174ERGO    C216458  12.126  16.559   7.382 -0.0695 -0.1082 -0.0835
 1175ERGO   ROH16459   2.403   3.287   6.360  0.1673 -0.2257  0.0988
 1175ERGO    R116460   2.287   3.275   6.618  0.0721 -0.1531  0.0595
 1175ERGO    R216461   2.418   3.364   6.845  0.0136 -0.1501  0.0897
 1175ERGO    R316462   2.193   3.513   6.877  0.0395 -0.0865 -0.0119
 1175ERGO    R416463   2.334   3.534   7.134  0.0128  0.0013  0.0016
 1175ERGO    R516464   2.127   3.472   7.104  0.0007  0.0302  0.0010
 1175ERGO    C116465   2.074   3.773   7.332  0.0367  0.1492 -0.1449
 1175ERGO    C216466   2.181   4.046   7.545  0.2824  0.0436  0.1065
 1176ERGO   ROH16467   7.117  17.093   6.170 -0.1181 -0.1868 -0.0209
 1176ERGO    R116468   7.084  17.129   6.449 -0.0346 -0.3356  0.0080
 1176ERGO    R216469   7.267  17.036   6.634  0.2505 -0.0406 -0.1255
 1176ERGO    R316470   7.264  17.295   6.718 -0.2025 -0.0626 -0.0417
 1176ERGO    R416471   7.304  17.138   6.962  0.3739 -0.0840 -0.1241
 1176ERGO    R516472   7.150  17.288   6.928  0.0144 -0.3804  0.0798
 1176ERGO    C116473   7.323  17.441   7.232  0.0204 -0.1300 -0.0446
 1176ERGO    C216474   7.484  17.387   7.569  0.1196  0.0088  0.3674
 1177ERGO   ROH16475  15.227  13.333   6.666 -0.0917 -0.1158  0.0497
 1177ERGO    R116476  15.416  13.395   6.868 -0.0302  0.2236 -0.1046
 1177ERGO    R216477  15.427  13.643   6.990 -0.4508  0.2198 -0.0370
 1177ERGO    R316478  15.406  13.496   7.217  0.0715  0.0867 -0.0622
 1177ERGO    R416479  15.454  13.769   7.310 -0.4331  0.1671 -0.0182
 1177ERGO    R516480  15.567  13.592   7.366  0.0054  0.3844 -0.1785
 1177ERGO    C116481  15.450  13.705   7.711  0.0676  0.0115 -0.0311
 1177ERGO    C216482  15.433  13.836   8.107 -0.1506  0.2440 -0.1439
 1178ERGO   ROH16483   0.676   2.956   6.095 -0.3665  0.1926 -0.0827
 1178ERGO    R116484   0.774   2.899   6.355 -0.2286  0.1839 -0.1366
 1178ERGO    R216485   0.798   3.093   6.550 -0.1875  0.1623 -0.1264
 1178ERGO    R316486   0.647   2.921   6.695 -0.0715  0.1041 -0.0709
 1178ERGO    R416487   0.803   3.069   6.894 -0.1194  0.2331 -0.1210
 1178ERGO    R516488   0.790   2.852   6.874 -0.0022  0.2181 -0.0782
 1178ERGO    C116489   0.663   2.893   7.231  0.0292  0.2198 -0.0656
 1178ERGO    C216490   0.527   2.998   7.559 -0.2305  0.2548  0.0480
 1179ERGO   ROH16491   7.878   3.042   5.979  0.0011 -0.0346 -0.1627
 1179ERGO    R116492   8.035   2.851   6.117 -0.0727  0.0525  0.0461
 1179ERGO    R216493   8.300   2.803   6.055 -0.1340 -0.2328 -0.0133
 1179ERGO    R316494   8.338   2.855   6.319  0.0262  0.1349 -0.1023
 1179ERGO    R416495   8.544   2.656   6.251 -0.2177 -0.2027  0.1135
 1179ERGO    R516496   8.398   2.642   6.413 -0.1722  0.2068  0.2006
 1179ERGO    C116497   8.722   2.619   6.613 -0.1159  0.1599  0.1039
 1179ERGO    C216498   9.080   2.747   6.710 -0.0453  0.2113  0.1736
 1180ERGO   ROH16499   2.067  14.555   5.965 -0.0967  0.0719  0.0786
 1180ERGO    R116500   1.955  14.618   6.218 -0.0948  0.0717  0.0793
 1180ERGO    R216501   1.733  14.781   6.246 -0.1100  0.0491  0.0791
 1180ERGO    R316502   1.636  14.569   6.385 -0.0841  0.0461  0.0930
 1180ERGO    R416503   1.482  14.798   6.482  0.0138  0.0659  0.2111
 1180ERGO    R516504   1.593  14.656   6.604  0.0469  0.0203  0.1310
 1180ERGO    C116505   1.244  14.609   6.751  0.1102  0.0729  0.3011
 1180ERGO    C216506   1.029  14.759   6.866  0.1816 -0.0538 -0.2672
 1181ERGO   ROH16507  12.897  13.405   6.345  0.4514  0.0158 -0.1599
 1181ERGO    R116508  12.833  13.386   6.620  0.3427  0.2189 -0.1694
 1181ERGO    R216509  12.858  13.150   6.762 -0.0327  0.2377 -0.0643
 1181ERGO    R316510  13.010  13.304   6.927  0.1400  0.0921 -0.0848
 1181ERGO    R416511  12.830  13.158   7.107 -0.0314  0.3220 -0.0657
 1181ERGO    R516512  12.859  13.374   7.100  0.2140  0.2906 -0.0983
 1181ERGO    C116513  12.957  13.307   7.462  0.1316  0.2344 -0.0858
 1181ERGO    C216514  12.932  13.382   7.776 -0.3172  0.1295  0.1635
 1182ERGO   ROH16515   4.726  15.406   6.001  0.1341  0.0893 -0.2752
 1182ERGO    R116516   4.689  15.572   6.227  0.2707  0.0872 -0.2512
 1182ERGO    R216517   4.547  15.491   6.449  0.0664  0.2276 -0.3308
 1182ERGO    R316518   4.774  15.560   6.581  0.1117 -0.1168 -0.2173
 1182ERGO    R416519   4.565  15.563   6.787 -0.0614  0.4945 -0.3776
 1182ERGO    R516520   4.703  15.725   6.740  0.3136  0.1791 -0.4220
 1182ERGO    C116521   4.789  15.669   7.107 -0.0933  0.3266 -0.2984
 1182ERGO    C216522   4.621  15.583   7.430  0.0377 -0.1007  0.0247
 1183ERGO   ROH16523   8.958   6.894   6.531  0.1840  0.0429  0.1249
 1183ERGO    R116524   8.894   6.769   6.777  0.2358 -0.0467  0.0937
 1183ERGO    R216525   8.950   6.884   7.021  0.1389 -0.0599  0.1236
 1183ERGO    R316526   8.684   6.844   7.065  0.1584 -0.2333  0.0873
 1183ERGO    R416527   8.798   6.880   7.332  0.0421  0.2165  0.0820
 1183ERGO    R516528   8.675   6.713   7.265  0.2084  0.0194  0.2580
 1183ERGO    C116529   8.461   6.840   7.553  0.0040  0.2146  0.0237
 1183ERGO    C216530   8.335   6.906   7.958 -0.0607  0.1525 -0.2969
 1184ERGO   ROH16531   0.766  12.621   6.407 -0.0267  0.3756 -0.0573
 1184ERGO    R116532   0.586  12.652   6.623 -0.0237  0.0785 -0.0065
 1184ERGO    R216533   0.551  12.458   6.817  0.3320  0.0028 -0.0019
 1184ERGO    R316534   0.607  12.663   6.986  0.0604  0.0898 -0.0139
 1184ERGO    R416535   0.472  12.464   7.153  0.4492 -0.1314  0.0281
 1184ERGO    R516536   0.418  12.674   7.132  0.0994 -0.2207  0.0578
 1184ERGO    C116537   0.480  12.660   7.508  0.2624 -0.1277  0.0342
 1184ERGO    C216538   0.494  12.736   7.849 -0.1554 -0.2110 -0.0272
 1185ERGO   ROH16539   6.340   5.660   6.144  0.0326 -0.1770 -0.0025
 1185ERGO    R116540   6.397   5.600   6.414 -0.0246 -0.1034  0.0261
 1185ERGO    R216541   6.424   5.795   6.608 -0.1012 -0.0531 -0.0142
 1185ERGO    R316542   6.234   5.650   6.736 -0.1107 -0.0503 -0.0250
 1185ERGO    R416543   6.401   5.760   6.951 -0.0596 -0.1339 -0.0194
 1185ERGO    R516544   6.350   5.550   6.921 -0.1026 -0.1180 -0.0655
 1185ERGO    C116545   6.208   5.602   7.271 -0.0443 -0.1784 -0.0325
 1185ERGO    C216546   6.041   5.803   7.482  0.1085 -0.0728 -0.0910
 1186ERGO   ROH16547   5.568  16.945   5.955 -0.0196  0.1666 -0.0042
 1186ERGO    R116548   5.672  16.975   6.216  0.1264 -0.0221 -0.0388
 1186ERGO    R216549   5.516  17.052   6.431  0.3179  0.1801  0.0312
 1186ERGO    R316550   5.615  16.825   6.542  0.0281  0.0146 -0.0384
 1186ERGO    R416551   5.542  16.994   6.770  0.2112  0.0279  0.0139
 1186ERGO    R516552   5.736  16.901   6.735  0.1038 -0.2000  0.0020
 1186ERGO    C116553   5.649  16.746   7.073 -0.1231 -0.2160 -0.0615
 1186ERGO    C216554   5.586  16.558   7.293  0.1620  0.1338  0.2556
 1187ERGO   ROH16555   9.120  13.993   6.473  0.0271 -0.1049 -0.0732
 1187ERGO    R116556   8.970  14.014   6.712  0.0818 -0.1787 -0.0332
 1187ERGO    R216557   9.070  13.934   6.957  0.1858 -0.1331 -0.0636
 1187ERGO    R316558   9.003  14.187   7.031  0.0830 -0.1654 -0.0396
 1187ERGO    R416559   8.947  14.023   7.267  0.1233 -0.2191 -0.0622
 1187ERGO    R516560   8.809  14.160   7.168  0.0786 -0.2578 -0.0597
 1187ERGO    C116561   8.813  14.314   7.517 -0.0095 -0.2996 -0.0388
 1187ERGO    C216562   8.929  14.543   7.823  0.1419 -0.1275 -0.1731
 1188ERGO   ROH16563  17.506   9.254   6.287 -0.0510  0.1144  0.0311
 1188ERGO    R116564  17.436   9.300   6.557 -0.1413  0.0224  0.0239
 1188ERGO    R216565  17.437   9.100   6.747 -0.0631 -0.0122 -0.0140
 1188ERGO    R316566  17.599   9.271   6.881 -0.1979  0.0623  0.0565
 1188ERGO    R416567  17.558   9.047   7.066  0.1323 -0.1436 -0.1079
 1188ERGO    R516568  17.524   9.258   7.109 -0.0894 -0.2118  0.0813
 1188ERGO    C116569  17.782   9.177   7.378  0.1195 -0.1501 -0.0965
 1188ERGO    C216570  17.907   9.037   7.606  0.0163 -0.1180 -0.3101
 1189ERGO   ROH16571   5.188  10.603   6.230  0.0103  0.1183 -0.1342
 1189ERGO    R116572   5.230  10.542   6.503 -0.0034  0.0617 -0.1448
 1189ERGO    R216573   5.442  10.387   6.590  0.0383  0.1123 -0.1592
 1189ERGO    R316574   5.491  10.602   6.750 -0.0552  0.0872 -0.0955
 1189ERGO    R416575   5.617  10.375   6.888  0.0900  0.1079 -0.1895
 1189ERGO    R516576   5.473  10.515   6.973  0.0250  0.0017 -0.1207
 1189ERGO    C116577   5.766  10.570   7.211  0.0324  0.0818 -0.1474
 1189ERGO    C216578   5.945  10.417   7.505 -0.2074  0.0327 -0.2092
 1190ERGO   ROH16579  18.446   9.386   6.284  0.1494 -0.1301 -0.1115
 1190ERGO    R116580  18.490   9.308   6.552  0.2118 -0.0649 -0.1032
 1190ERGO    R216581  18.409   9.064   6.651  0.0596  0.0394  0.0247
 1190ERGO    R316582  18.670   9.042   6.724  0.0778 -0.1468 -0.0864
 1190ERGO    R416583  18.540   8.804   6.837 -0.0648 -0.0278  0.0208
 1190ERGO    R516584  18.662   8.950   6.945  0.0988 -0.0952 -0.0608
 1190ERGO    C116585  18.862   8.632   7.014 -0.1201 -0.2417 -0.0858
 1190ERGO    C216586  19.158   8.440   7.111 -0.1765  0.0665  0.3880
 1191ERGO   ROH16587  12.940   6.280   6.040  0.0887  0.1356 -0.0224
 1191ERGO    R116588  12.974   6.176   6.301 -0.0117  0.1586 -0.0005
 1191ERGO    R216589  13.219   6.170   6.429 -0.0439  0.0795  0.0550
 1191ERGO    R316590  13.084   6.304   6.624 -0.0350  0.1591  0.0078
 1191ERGO    R416591  13.342   6.234   6.745 -0.0781  0.0914  0.0664
 1191ERGO    R516592  13.145   6.190   6.826 -0.1094  0.1719  0.0389
 1191ERGO    C116593  13.288   6.397   7.112 -0.0895  0.1731  0.0288
 1191ERGO    C216594  13.512   6.433   7.282 -0.1712  0.1785 -0.0197
 1192ERGO   ROH16595  17.726   1.403   6.333 -0.0595 -0.0887 -0.0195
 1192ERGO    R116596  17.679   1.546   6.573 -0.0832 -0.0666 -0.0375
 1192ERGO    R216597  17.499   1.461   6.764  0.0268 -0.1427  0.0318
 1192ERGO    R316598  17.713   1.481   6.930  0.0612  0.0330 -0.0321
 1192ERGO    R416599  17.485   1.438   7.109  0.1448 -0.1513  0.0363
 1192ERGO    R516600  17.630   1.600   7.120  0.0186 -0.0312 -0.0087
 1192ERGO    C116601  17.679   1.444   7.465  0.2455  0.0087 -0.0210
 1192ERGO    C216602  17.684   1.480   7.798  0.0918  0.0524  0.3405
 1193ERGO   ROH16603   2.751   3.507   6.162  0.0085  0.0488  0.0668
 1193ERGO    R116604   2.904   3.502   6.400  0.0958 -0.0431  0.0096
 1193ERGO    R216605   2.798   3.425   6.644  0.1339  0.0433  0.0550
 1193ERGO    R316606   3.007   3.251   6.643  0.0144 -0.1015 -0.0159
 1193ERGO    R416607   2.963   3.312   6.926  0.1364 -0.0892  0.0009
 1193ERGO    R516608   3.151   3.330   6.817  0.1186 -0.2122 -0.0509
 1193ERGO    C116609   3.254   3.083   7.089  0.0256 -0.3024 -0.0972
 1193ERGO    C216610   3.227   2.847   7.305 -0.0255  0.0088 -0.2203
 1194ERGO   ROH16611   5.755  15.198   5.967 -0.2269  0.0040  0.0170
 1194ERGO    R116612   5.793  15.232   6.245  0.0439 -0.1024 -0.0081
 1194ERGO    R216613   5.583  15.248   6.424  0.2183  0.1440  0.1513
 1194ERGO    R316614   5.715  15.045   6.548  0.0433 -0.0538  0.0294
 1194ERGO    R416615   5.525  15.143   6.748  0.5343  0.4706  0.3234
 1194ERGO    R516616   5.740  15.120   6.774  0.5713  0.0621 -0.0355
 1194ERGO    C116617   5.615  14.892   7.053  0.5540  0.4752  0.3093
 1194ERGO    C216618   5.583  14.558   7.295 -0.0436  0.0168 -0.2467
 1195ERGO   ROH16619   8.390   5.408   6.832  0.1069 -0.0954 -0.0451
 1195ERGO    R116620   8.521   5.296   7.056  0.2814  0.1856 -0.0023
 1195ERGO    R216621   8.604   5.449   7.271 -0.1635  0.3690  0.0515
 1195ERGO    R316622   8.458   5.270   7.414  0.1877  0.0009 -0.0314
 1195ERGO    R416623   8.651   5.379   7.606 -0.1975  0.5147  0.0868
 1195ERGO    R516624   8.617   5.168   7.561  0.3616  0.4101  0.0772
 1195ERGO    C116625   8.542   5.170   7.935  0.1123  0.2538  0.0296
 1195ERGO    C216626   8.604   5.124   8.288 -0.1766  0.1102  0.0078
 1196ERGO   ROH16627  13.010   7.967   6.230 -0.0170 -0.0270  0.1363
 1196ERGO    R116628  13.045   7.956   6.511 -0.0690  0.0197  0.1442
 1196ERGO    R216629  12.878   8.088   6.687 -0.0682  0.0909  0.0870
 1196ERGO    R316630  12.852   7.841   6.796 -0.1440  0.1193  0.1352
 1196ERGO    R416631  12.873   8.022   7.026  0.4411  0.1122  0.1064
 1196ERGO    R516632  12.995   7.845   6.988  0.1961 -0.0224 -0.1032
 1196ERGO    C116633  12.846   7.751   7.326  0.6666  0.1513  0.1629
 1196ERGO    C216634  12.981   7.845   7.623  0.1750  0.0525  0.0333
 1197ERGO   ROH16635  14.056  13.639   6.626 -0.0534  0.1406 -0.1161
 1197ERGO    R116636  14.087  13.550   6.893 -0.1041  0.1393 -0.1101
 1197ERGO    R216637  14.333  13.535   7.017 -0.1022 -0.0554 -0.1284
 1197ERGO    R316638  14.212  13.690   7.205  0.0409  0.0661 -0.1356
 1197ERGO    R416639  14.480  13.639   7.312 -0.0136 -0.1823 -0.1277
 1197ERGO    R516640  14.290  13.602   7.414 -0.0484  0.0012 -0.1318
 1197ERGO    C116641  14.452  13.844   7.660  0.1722 -0.1421 -0.1341
 1197ERGO    C216642  14.657  14.037   7.831  0.0623 -0.3237 -0.0545
 1198ERGO   ROH16643   8.090  12.562   6.170  0.0908 -0.0009 -0.0033
 1198ERGO    R116644   8.156  12.528   6.443  0.1499  0.0413 -0.0121
 1198ERGO    R216645   8.022  12.352   6.608  0.1029  0.1574  0.0759
 1198ERGO    R316646   8.271  12.256   6.655  0.0668  0.0396  0.0313
 1198ERGO    R416647   8.121  12.192   6.898  0.0747  0.0914  0.0494
 1198ERGO    R516648   8.309  12.300   6.887  0.1227  0.0059  0.0285
 1198ERGO    C116649   8.413  12.009   7.111  0.0245 -0.0576 -0.0080
 1198ERGO    C216650   8.486  11.849   7.379  0.1566  0.0324 -0.0700
 1199ERGO   ROH16651   4.886  18.320   5.931  0.3293 -0.0595  0.0603
 1199ERGO    R116652   4.743  18.316   6.175  0.3600  0.0582  0.0801
 1199ERGO    R216653   4.656  18.082   6.293  0.0279  0.1398 -0.0018
 1199ERGO    R316654   4.792  18.177   6.507  0.2049 -0.1481  0.0198
 1199ERGO    R416655   4.625  17.963   6.616 -0.2614  0.1777 -0.0123
 1199ERGO    R516656   4.635  18.168   6.687  0.1535  0.1658 -0.0007
 1199ERGO    C116657   4.735  17.984   7.005 -0.2637 -0.0705  0.0018
 1199ERGO    C216658   4.756  17.797   7.281  0.0457 -0.1448  0.0984
 1200ERGO   ROH16659  11.448  17.786   6.239  0.1948  0.2581 -0.2872
 1200ERGO    R116660  11.582  17.901   6.459  0.0089  0.2717 -0.1778
 1200ERGO    R216661  11.449  17.998   6.681 -0.1678  0.0780 -0.1909
 1200ERGO    R316662  11.616  17.831   6.815 -0.0975  0.1467 -0.1932
 1200ERGO    R416663  11.504  18.005   7.022 -0.2394  0.0281 -0.1786
 1200ERGO    R516664  11.715  17.968   6.984 -0.2131  0.1621 -0.1415
 1200ERGO    C116665  11.692  17.852   7.346 -0.2151  0.0636 -0.1738
 1200ERGO    C216666  11.576  17.908   7.690  0.0353 -0.0566 -0.0233
 1201ERGO   ROH16667  12.170  16.876   6.057  0.0145 -0.1937  0.0918
 1201ERGO    R116668  12.341  16.872   6.282 -0.0285 -0.4139  0.1230
 1201ERGO    R216669  12.370  17.088   6.451  0.4533 -0.3302 -0.0489
 1201ERGO    R316670  12.304  16.907   6.643 -0.0160 -0.0303  0.0900
 1201ERGO    R416671  12.381  17.149   6.791  0.5847 -0.0940 -0.0932
 1201ERGO    R516672  12.461  16.948   6.819  0.0843 -0.2874  0.0631
 1201ERGO    C116673  12.325  17.015   7.169  0.2206  0.3249  0.0113
 1201ERGO    C216674  12.279  17.029   7.447 -0.0095  0.1558  0.0088
 1202ERGO   ROH16675  13.033  12.623   6.339 -0.0896 -0.1097 -0.0984
 1202ERGO    R116676  12.961  12.734   6.589  0.0699 -0.0608 -0.0737
 1202ERGO    R216677  12.735  12.655   6.727  0.0076  0.1649 -0.0478
 1202ERGO    R316678  12.912  12.611   6.929 -0.0058 -0.0488 -0.0796
 1202ERGO    R416679  12.649  12.569   7.051 -0.0319  0.1233 -0.0686
 1202ERGO    R516680  12.805  12.702   7.123  0.0863 -0.0268 -0.0373
 1202ERGO    C116681  12.765  12.477   7.428 -0.0672 -0.1016 -0.1105
 1202ERGO    C216682  12.709  12.374   7.766 -0.1543 -0.1483  0.1308
 1203ERGO   ROH16683  14.071  10.537   6.496 -0.2874  0.1214  0.0672
 1203ERGO    R116684  13.906  10.518   6.725 -0.1475  0.2223  0.1776
 1203ERGO    R216685  13.866  10.281   6.862 -0.2646  0.2276  0.1555
 1203ERGO    R316686  13.949  10.428   7.075  0.0146  0.1131  0.1305
 1203ERGO    R416687  13.897  10.161   7.185 -0.1139  0.1293  0.1057
 1203ERGO    R516688  13.815  10.350   7.257  0.0897  0.1781  0.2139
 1203ERGO    C116689  13.992  10.229   7.573  0.2358 -0.0356  0.0533
 1203ERGO    C216690  14.184  10.113   7.828 -0.1285 -0.3170 -0.1073
 1204ERGO   ROH16691   4.466  14.003   5.897 -0.2362 -0.0234  0.0165
 1204ERGO    R116692   4.466  13.897   6.159 -0.1704  0.0892  0.0617
 1204ERGO    R216693   4.662  13.724   6.249 -0.1811  0.0886  0.0672
 1204ERGO    R316694   4.687  13.907   6.448 -0.0717  0.1638 -0.0139
 1204ERGO    R416695   4.885  13.701   6.512 -0.2429  0.0257  0.1162
 1204ERGO    R516696   4.729  13.776   6.644 -0.2116  0.2141  0.0559
 1204ERGO    C116697   5.039  13.859   6.852 -0.1763  0.0598  0.0685
 1204ERGO    C216698   5.275  13.918   7.169  0.0439  0.2005 -0.0456
 1205ERGO   ROH16699  16.575   2.275   6.491 -0.1743  0.0833 -0.0123
 1205ERGO    R116700  16.484   2.388   6.734 -0.0850 -0.0077  0.0622
 1205ERGO    R216701  16.522   2.264   6.979  0.0543 -0.0692  0.0019
 1205ERGO    R316702  16.635   2.502   7.045  0.0313 -0.0641  0.0297
 1205ERGO    R416703  16.545   2.390   7.300  0.3533 -0.2804  0.0685
 1205ERGO    R516704  16.497   2.587   7.221  0.1809 -0.2394  0.2450
 1205ERGO    C116705  16.665   2.686   7.549  0.5059 -0.3986  0.1334
 1205ERGO    C216706  16.719   2.667   7.870  0.0908 -0.1096  0.0142
 1206ERGO   ROH16707  14.926   9.830   6.225 -0.2220 -0.1732 -0.0681
 1206ERGO    R116708  15.083   9.807   6.459 -0.0961 -0.1016 -0.1445
 1206ERGO    R216709  15.315   9.952   6.498 -0.1737  0.0445 -0.2359
 1206ERGO    R316710  15.190  10.028   6.728 -0.1130 -0.0665 -0.1652
 1206ERGO    R416711  15.468   9.974   6.807 -0.0457  0.0448 -0.2985
 1206ERGO    R516712  15.288   9.889   6.897  0.0292 -0.0626 -0.2392
 1206ERGO    C116713  15.441  10.058   7.203  0.0858 -0.0591 -0.2688
 1206ERGO    C216714  15.505  10.117   7.581  0.0980  0.3687 -0.2435
 1207ERGO   ROH16715  16.546  15.135   6.199  0.0044 -0.0054 -0.0803
 1207ERGO    R116716  16.566  15.166   6.479  0.0495  0.0663 -0.0913
 1207ERGO    R216717  16.676  14.972   6.642 -0.0385  0.0551 -0.0469
 1207ERGO    R316718  16.834  15.177   6.726  0.0811 -0.0052 -0.1215
 1207ERGO    R416719  16.839  14.985   6.947 -0.2847  0.2039  0.0818
 1207ERGO    R516720  16.788  15.196   6.960 -0.1032  0.2700 -0.1745
 1207ERGO    C116721  17.082  15.185   7.202 -0.3158  0.2339  0.0867
 1207ERGO    C216722  17.327  15.198   7.398  0.1047 -0.1083  0.1769
 1208ERGO   ROH16723  10.030  16.112   6.339 -0.0137  0.2865 -0.0023
 1208ERGO    R116724   9.977  16.015   6.600  0.1411  0.1963 -0.0021
 1208ERGO    R216725  10.132  16.082   6.818  0.0425  0.4423 -0.0008
 1208ERGO    R316726   9.893  16.159   6.924 -0.0853  0.0660 -0.0010
 1208ERGO    R416727  10.068  16.117   7.156 -0.0641  0.2057  0.0047
 1208ERGO    R516728   9.871  16.027   7.123  0.0633 -0.0530 -0.0637
 1208ERGO    C116729   9.807  16.209   7.452 -0.2462 -0.2853  0.0077
 1208ERGO    C216730   9.818  16.378   7.756  0.0552 -0.1713  0.0646
 1209ERGO   ROH16731  11.051  11.749   6.400 -0.3559  0.2648 -0.0327
 1209ERGO    R116732  10.927  11.755   6.655 -0.2331  0.0693  0.0346
 1209ERGO    R216733  11.036  11.630   6.876 -0.0084  0.0864 -0.0601
 1209ERGO    R316734  11.012  11.877   6.987 -0.1687  0.0308  0.0317
 1209ERGO    R416735  11.118  11.709   7.202  0.0651  0.0505 -0.0702
 1209ERGO    R516736  10.941  11.835   7.212 -0.0364 -0.1019  0.0486
 1209ERGO    C116737  11.144  11.987   7.496 -0.0425 -0.0226  0.0100
 1209ERGO    C216738  11.220  12.031   7.821 -0.3090  0.0011  0.1264
 1210ERGO   ROH16739   0.447   7.309   6.062  0.0171  0.1507  0.1486
 1210ERGO    R116740   0.473   7.178   6.311 -0.0368  0.1178  0.1371
 1210ERGO    R216741   0.708   7.182   6.457 -0.0292 -0.0075  0.1281
 1210ERGO    R316742   0.546   7.275   6.655  0.0235  0.0554  0.1425
 1210ERGO    R416743   0.798   7.211   6.790  0.0085 -0.0566  0.1223
 1210ERGO    R516744   0.600   7.139   6.844 -0.0194  0.0252  0.1342
 1210ERGO    C116745   0.698   7.315   7.169  0.0799 -0.0262  0.1325
 1210ERGO    C216746   0.906   7.439   7.322 -0.0390 -0.2552 -0.1443
 1211ERGO   ROH16747   3.023   5.363   6.293  0.1500  0.1097 -0.0968
 1211ERGO    R116748   3.190   5.301   6.513 -0.0136 -0.0721 -0.0208
 1211ERGO    R216749   3.377   5.479   6.612  0.2382 -0.3259 -0.0337
 1211ERGO    R316750   3.247   5.434   6.847  0.0914 -0.0325 -0.0533
 1211ERGO    R416751   3.520   5.508   6.925  0.1249 -0.1992  0.0077
 1211ERGO    R516752   3.411   5.329   6.986 -0.0557 -0.0644  0.1025
 1211ERGO    C116753   3.481   5.483   7.328 -0.0789  0.1500  0.0135
 1211ERGO    C216754   3.562   5.490   7.675 -0.0171 -0.1601  0.1825
 1212ERGO   ROH16755   5.597   6.461   6.033  0.1385 -0.1500  0.0756
 1212ERGO    R116756   5.435   6.408   6.259  0.0627 -0.0707  0.0403
 1212ERGO    R216757   5.530   6.276   6.482 -0.0381 -0.0759  0.0800
 1212ERGO    R316758   5.438   6.496   6.613  0.0000 -0.0306  0.0312
 1212ERGO    R416759   5.492   6.301   6.825 -0.0285  0.0080  0.0752
 1212ERGO    R516760   5.305   6.408   6.792 -0.0119  0.0314  0.0536
 1212ERGO    C116761   5.384   6.522   7.147  0.0128  0.0993  0.0266
 1212ERGO    C216762   5.390   6.608   7.587  0.2310  0.1637  0.0186
 1213ERGO   ROH16763  14.534   6.648   5.943  0.2814 -0.1566 -0.0261
 1213ERGO    R116764  14.399   6.598   6.187  0.1406 -0.0129 -0.0733
 1213ERGO    R216765  14.504   6.437   6.385 -0.0793 -0.0877 -0.0150
 1213ERGO    R316766  14.463   6.656   6.541  0.0535 -0.0334 -0.0541
 1213ERGO    R416767  14.530   6.442   6.730  0.1271  0.0112 -0.0298
 1213ERGO    R516768  14.353   6.570   6.736  0.1536  0.0447  0.0376
 1213ERGO    C116769  14.505   6.650   7.077  0.3718  0.1198 -0.0752
 1213ERGO    C216770  14.495   6.577   7.365 -0.1521  0.1907  0.0057
 1214ERGO   ROH16771   9.172  16.654   6.530 -0.1977  0.0658  0.0327
 1214ERGO    R116772   9.193  16.802   6.770 -0.1546  0.0688  0.0273
 1214ERGO    R216773   8.972  16.872   6.921 -0.1360  0.1519  0.0165
 1214ERGO    R316774   9.111  16.751   7.121 -0.1854  0.1120  0.0267
 1214ERGO    R416775   8.940  16.947   7.257 -0.0875  0.2138  0.0076
 1214ERGO    R516776   9.156  16.927   7.277 -0.0948  0.1128  0.0009
 1214ERGO    C116777   9.051  16.876   7.641 -0.1055  0.2124  0.0119
 1214ERGO    C216778   8.963  16.739   7.957 -0.1435  0.0094  0.3350
 1215ERGO   ROH16779  14.920  17.161   6.441 -0.3390  0.1295  0.0209
 1215ERGO    R116780  14.946  17.392   6.601 -0.2618  0.1397 -0.0055
 1215ERGO    R216781  14.769  17.452   6.806 -0.0488  0.0463  0.2109
 1215ERGO    R316782  14.996  17.465   6.954  0.1280  0.1580 -0.0606
 1215ERGO    R416783  14.816  17.660   7.078  0.0876 -0.0935  0.2954
 1215ERGO    R516784  15.019  17.697   7.009 -0.0273  0.1458  0.0654
 1215ERGO    C116785  15.056  17.792   7.376  0.3331 -0.0699  0.0898
 1215ERGO    C216786  15.229  17.879   7.601  0.0073 -0.2777  0.2619
 1216ERGO   ROH16787  10.787  15.484   6.639 -0.2537  0.0782 -0.0382
 1216ERGO    R116788  10.720  15.407   6.903  0.1569  0.1701  0.1016
 1216ERGO    R216789  10.875  15.475   7.122  0.2111  0.7447 -0.0863
 1216ERGO    R316790  10.641  15.575   7.216  0.0474  0.3006  0.0014
 1216ERGO    R416791  10.812  15.551   7.453  0.1643  0.6178 -0.0666
 1216ERGO    R516792  10.612  15.469   7.428  0.3137  0.2416  0.0031
 1216ERGO    C116793  10.555  15.690   7.734 -0.0166  0.1269  0.0272
 1216ERGO    C216794  10.487  15.653   8.170  0.2320  0.2776 -0.2995
 1217ERGO   ROH16795   0.236   2.114   5.948  0.0354 -0.0358  0.0175
 1217ERGO    R116796   0.118   2.265   6.156 -0.0585 -0.1048  0.0168
 1217ERGO    R216797  -0.064   2.157   6.333  0.0156 -0.2216  0.0317
 1217ERGO    R316798   0.110   2.251   6.520 -0.0343 -0.1004  0.0160
 1217ERGO    R416799  -0.132   2.183   6.671  0.0441 -0.2919  0.0421
 1217ERGO    R516800  -0.028   2.375   6.672 -0.1042 -0.2160  0.0413
 1217ERGO    C116801  -0.008   2.287   7.043  0.0137 -0.2191  0.0334
 1217ERGO    C216802  -0.070   2.399   7.325 -0.1362 -0.3577 -0.0304
 1218ERGO   ROH16803  10.961  12.716   6.531  0.2304  0.0960  0.1560
 1218ERGO    R116804  10.944  12.745   6.812  0.0391  0.3048  0.1255
 1218ERGO    R216805  10.863  12.980   6.932 -0.4221  0.2766 -0.1098
 1218ERGO    R316806  10.683  12.818   7.055 -0.2130  0.0712 -0.0687
 1218ERGO    R416807  10.766  13.007   7.262 -0.3533  0.1476 -0.0784
 1218ERGO    R516808  10.770  12.790   7.276 -0.1152  0.1470 -0.0958
 1218ERGO    C116809  10.541  12.870   7.570 -0.1171 -0.1202 -0.0216
 1218ERGO    C216810  10.513  12.725   7.904 -0.1311 -0.0107 -0.1630
 1219ERGO   ROH16811  18.285  10.392   6.434 -0.2049  0.2514 -0.0658
 1219ERGO    R116812  18.210  10.308   6.693 -0.1230  0.0854 -0.0948
 1219ERGO    R216813  18.394  10.231   6.884 -0.0500  0.1698 -0.1350
 1219ERGO    R316814  18.269  10.420   7.035 -0.2064  0.0034 -0.0521
 1219ERGO    R416815  18.460  10.293   7.218  0.0740  0.2310 -0.1698
 1219ERGO    R516816  18.246  10.318   7.250  0.0534 -0.0456 -0.0408
 1219ERGO    C116817  18.380  10.507   7.553 -0.0007  0.1104 -0.1123
 1219ERGO    C216818  18.538  10.461   7.929 -0.1402 -0.1279  0.0406
 1220ERGO   ROH16819   3.104   4.120   6.233  0.2620  0.0196  0.0350
 1220ERGO    R116820   3.118   4.114   6.515  0.1868 -0.0952  0.0370
 1220ERGO    R216821   3.105   3.879   6.660  0.1613 -0.1568 -0.0613
 1220ERGO    R316822   3.338   3.970   6.767  0.1283 -0.1858  0.0360
 1220ERGO    R416823   3.228   3.791   6.971  0.0757 -0.2494 -0.0532
 1220ERGO    R516824   3.290   3.998   7.000  0.0627 -0.2594  0.0299
 1220ERGO    C116825   3.519   3.825   7.252 -0.0052 -0.3305  0.0428
 1220ERGO    C216826   3.645   3.875   7.563  0.1409 -0.2827 -0.1267
 1221ERGO   ROH16827   3.913   0.878   5.981 -0.0454  0.0427  0.0093
 1221ERGO    R116828   3.773   0.884   6.227 -0.2143  0.0119 -0.0842
 1221ERGO    R216829   3.543   0.736   6.271 -0.0057 -0.3353 -0.1176
 1221ERGO    R316830   3.683   0.644   6.485  0.0170  0.0646  0.0482
 1221ERGO    R416831   3.409   0.673   6.583 -0.0702 -0.1825 -0.1134
 1221ERGO    R516832   3.588   0.758   6.673 -0.2182  0.1418 -0.1136
 1221ERGO    C116833   3.462   0.549   6.966 -0.0864  0.2819  0.0445
 1221ERGO    C216834   3.377   0.463   7.247  0.1660 -0.1004  0.0187
 1222ERGO   ROH16835   0.307   0.481   6.147  0.2045  0.0531  0.1179
 1222ERGO    R116836   0.216   0.462   6.415 -0.0036  0.0239  0.0474
 1222ERGO    R216837   0.377   0.371   6.620 -0.2209 -0.1806  0.1332
 1222ERGO    R316838   0.308   0.607   6.736 -0.1176 -0.1672  0.1678
 1222ERGO    R416839   0.391   0.436   6.959 -0.0640 -0.1887  0.1288
 1222ERGO    R516840   0.202   0.544   6.941 -0.0458 -0.1451  0.2108
 1222ERGO    C116841   0.334   0.696   7.265  0.1243 -0.1808  0.1589
 1222ERGO    C216842   0.315   0.800   7.551 -0.1877 -0.0660  0.1484
 1223ERGO   ROH16843   5.545   2.054   6.471 -0.0263 -0.0756  0.0363
 1223ERGO    R116844   5.629   2.085   6.739 -0.0815  0.0055  0.0450
 1223ERGO    R216845   5.478   1.999   6.954 -0.0385 -0.1077  0.0332
 1223ERGO    R316846   5.706   1.865   7.019  0.0633  0.0780  0.0624
 1223ERGO    R416847   5.547   1.863   7.265  0.0026 -0.1204  0.0183
 1223ERGO    R516848   5.752   1.932   7.244 -0.0534  0.0655  0.0888
 1223ERGO    C116849   5.801   1.659   7.506  0.1220  0.0465  0.0370
 1223ERGO    C216850   5.960   1.404   7.643 -0.1725 -0.2463  0.1311
 1224ERGO   ROH16851  12.866   9.880   6.495  0.2344 -0.2397  0.1009
 1224ERGO    R116852  12.946   9.935   6.761  0.0977 -0.1235  0.1191
 1224ERGO    R216853  12.787  10.076   6.937  0.0401  0.0282 -0.0473
 1224ERGO    R316854  12.823   9.857   7.095 -0.1258  0.0974  0.0909
 1224ERGO    R416855  12.914  10.082   7.258  0.1652  0.1147 -0.0981
 1224ERGO    R516856  13.027   9.901   7.212 -0.0371 -0.0323 -0.0155
 1224ERGO    C116857  13.023   9.881   7.593  0.0823  0.2301  0.0019
 1224ERGO    C216858  13.034   9.873   7.994 -0.1871  0.2467 -0.2852
 1225ERGO   ROH16859  15.953   1.462   5.995  0.2889  0.2112  0.0532
 1225ERGO    R116860  15.947   1.339   6.250 -0.0668  0.0619 -0.0224
 1225ERGO    R216861  16.076   1.445   6.469  0.0238 -0.3088  0.1058
 1225ERGO    R316862  15.829   1.426   6.583 -0.0751  0.0746 -0.0271
 1225ERGO    R416863  16.013   1.466   6.809 -0.1017 -0.3130  0.0837
 1225ERGO    R516864  15.867   1.305   6.786 -0.3760 -0.0654 -0.0435
 1225ERGO    C116865  15.745   1.461   7.113 -0.2675  0.0445 -0.0540
 1225ERGO    C216866  15.908   1.569   7.341 -0.0033  0.2853  0.5410
 1226ERGO   ROH16867   1.654   1.511   6.314  0.0839  0.1081 -0.0876
 1226ERGO    R116868   1.741   1.632   6.555  0.1053  0.0306 -0.0554
 1226ERGO    R216869   1.882   1.495   6.748  0.0832 -0.0456 -0.0896
 1226ERGO    R316870   2.060   1.698   6.717  0.1173 -0.0681 -0.0400
 1226ERGO    R416871   2.111   1.595   6.987 -0.1811  0.1338  0.0941
 1226ERGO    R516872   2.069   1.802   6.933 -0.1233  0.0922 -0.1050
 1226ERGO    C116873   2.411   1.845   7.096 -0.3031  0.2171  0.2476
 1226ERGO    C216874   2.599   2.071   7.300  0.1120  0.2734  0.1020
 1227ERGO   ROH16875  16.745   0.740   5.871  0.0618 -0.3343 -0.0931
 1227ERGO    R116876  16.578   0.686   6.093  0.0473 -0.4616 -0.1338
 1227ERGO    R216877  16.573   0.441   6.220  0.4359 -0.3749  0.0631
 1227ERGO    R316878  16.623   0.591   6.441  0.0547 -0.0972 -0.0329
 1227ERGO    R416879  16.484   0.354   6.542  0.4312 -0.2671  0.0916
 1227ERGO    R516880  16.429   0.562   6.578  0.0370 -0.3324 -0.1090
 1227ERGO    C116881  16.478   0.443   6.937  0.0707  0.0564  0.0180
 1227ERGO    C216882  16.345   0.251   7.154  0.0423 -0.1752  0.1753
 1228ERGO   ROH16883  17.537  16.096   6.321 -0.1823  0.4165 -0.0580
 1228ERGO    R116884  17.584  16.079   6.599 -0.1189  0.2649 -0.0765
 1228ERGO    R216885  17.589  16.301   6.764  0.0375  0.1911  0.0273
 1228ERGO    R316886  17.403  16.161   6.904 -0.0001  0.2207  0.0060
 1228ERGO    R416887  17.504  16.358   7.094  0.0362  0.1722  0.0297
 1228ERGO    R516888  17.494  16.143   7.124 -0.0157  0.1746  0.0062
 1228ERGO    C116889  17.280  16.260   7.418  0.0003  0.1891  0.0110
 1228ERGO    C216890  16.972  16.402   7.625 -0.2673 -0.0625 -0.1087
 1229ERGO   ROH16891  16.577  10.463   6.221 -0.1370 -0.5397 -0.0513
 1229ERGO    R116892  16.719  10.396   6.456 -0.1064 -0.2990  0.0021
 1229ERGO    R216893  16.818  10.586   6.630 -0.2446 -0.1233 -0.1076
 1229ERGO    R316894  16.677  10.444   6.814 -0.1619 -0.1045 -0.0295
 1229ERGO    R416895  16.870  10.599   6.972 -0.1384 -0.0332 -0.1266
 1229ERGO    R516896  16.840  10.383   6.980 -0.0987 -0.0370 -0.0661
 1229ERGO    C116897  16.768  10.473   7.343  0.0009  0.0370 -0.0645
 1229ERGO    C216898  16.692  10.477   7.633 -0.0056 -0.1112 -0.1627
 1230ERGO   ROH16899   1.830   9.451   5.800  0.0270 -0.0459 -0.1127
 1230ERGO    R116900   1.843   9.289   6.031  0.0793  0.0401 -0.0541
 1230ERGO    R216901   1.907   9.389   6.280 -0.0089  0.1610 -0.0772
 1230ERGO    R316902   1.673   9.271   6.352  0.0411  0.0633 -0.0737
 1230ERGO    R416903   1.830   9.285   6.600  0.0166  0.1683 -0.0688
 1230ERGO    R516904   1.738   9.107   6.515  0.1043  0.1155 -0.0482
 1230ERGO    C116905   1.566   9.114   6.855  0.0784  0.0807 -0.0605
 1230ERGO    C216906   1.424   8.975   7.165 -0.0496 -0.2476 -0.0388
 1231ERGO   ROH16907  10.405   9.714   6.561 -0.1178  0.0354 -0.0312
 1231ERGO    R116908  10.588   9.590   6.738 -0.0043  0.0367 -0.1462
 1231ERGO    R216909  10.620   9.671   7.000  0.1625  0.0381 -0.1674
 1231ERGO    R316910  10.568   9.409   7.054  0.1977  0.0380 -0.1316
 1231ERGO    R416911  10.678   9.516   7.304  0.2039  0.0835 -0.1517
 1231ERGO    R516912  10.749   9.341   7.195  0.2174  0.0778 -0.1359
 1231ERGO    C116913  10.665   9.180   7.530  0.2610  0.1101 -0.1088
 1231ERGO    C216914  10.503   9.090   7.813 -0.4634 -0.0750 -0.2090
 1232ERGO   ROH16915  15.311  11.363   6.180 -0.1409  0.2446 -0.0082
 1232ERGO    R116916  15.519  11.444   6.354 -0.0699  0.0303  0.0082
 1232ERGO    R216917  15.489  11.649   6.537  0.1235  0.0545  0.0125
 1232ERGO    R316918  15.571  11.461   6.714 -0.0757 -0.0353  0.0123
 1232ERGO    R416919  15.611  11.715   6.853  0.0632 -0.0871  0.0667
 1232ERGO    R516920  15.760  11.559   6.823 -0.0399 -0.1917  0.0944
 1232ERGO    C116921  15.759  11.577   7.204 -0.1589 -0.2539  0.0980
 1232ERGO    C216922  15.875  11.669   7.512  0.1176 -0.2787 -0.0252
 1233ERGO   ROH16923  15.620   1.849   6.116 -0.0300 -0.0684 -0.0581
 1233ERGO    R116924  15.741   1.857   6.372  0.0360 -0.1275 -0.0881
 1233ERGO    R216925  15.715   2.073   6.543  0.1208 -0.1495 -0.0542
 1233ERGO    R316926  15.628   1.883   6.717  0.1308 -0.1546 -0.0532
 1233ERGO    R416927  15.698   2.112   6.885  0.0196 -0.1027 -0.0637
 1233ERGO    R516928  15.770   1.908   6.908  0.0773 -0.0829 -0.0178
 1233ERGO    C116929  15.606   1.958   7.249 -0.0299 -0.0804 -0.0683
 1233ERGO    C216930  15.720   1.990   7.512  0.1860  0.0090  0.2480
 1234ERGO   ROH16931   6.536   1.172   6.142  0.1249 -0.2095  0.0864
 1234ERGO    R116932   6.577   1.089   6.410 -0.0081 -0.0372  0.1639
 1234ERGO    R216933   6.815   1.131   6.543  0.0504 -0.2385  0.1507
 1234ERGO    R316934   6.653   1.250   6.727  0.1809  0.1436  0.0252
 1234ERGO    R416935   6.895   1.177   6.876 -0.0564 -0.2668  0.1796
 1234ERGO    R516936   6.690   1.124   6.928 -0.1798  0.1536  0.0913
 1234ERGO    C116937   6.791   1.314   7.243  0.0039  0.0755  0.0787
 1234ERGO    C216938   6.787   1.441   7.593 -0.1712  0.0328 -0.0883
 1235ERGO   ROH16939  11.577  14.065   6.744 -0.0420 -0.1278 -0.0588
 1235ERGO    R116940  11.637  14.135   7.011  0.0711 -0.2363 -0.0556
 1235ERGO    R216941  11.460  14.272   7.173  0.2472 -0.0550 -0.0161
 1235ERGO    R316942  11.501  14.062   7.341  0.0255 -0.1284 -0.0493
 1235ERGO    R416943  11.396  14.276   7.513 -0.0659 -0.1503 -0.0704
 1235ERGO    R516944  11.580  14.163   7.544 -0.1266 -0.2213  0.0607
 1235ERGO    C116945  11.398  14.081   7.868 -0.4564 -0.2749 -0.1333
 1235ERGO    C216946  11.423  14.042   8.197  0.2527  0.1311  0.0542
 1236ERGO   ROH16947  16.749   3.454   6.128  0.4241  0.0805  0.0155
 1236ERGO    R116948  16.812   3.497   6.400  0.0553 -0.0271  0.1247
 1236ERGO    R216949  16.993   3.689   6.484  0.2472 -0.3140  0.4158
 1236ERGO    R316950  16.785   3.770   6.638  0.1138  0.0205  0.0743
 1236ERGO    R416951  17.024   3.855   6.785 -0.0082 -0.0793  0.3161
 1236ERGO    R516952  16.860   3.734   6.863 -0.2228  0.1465  0.2082
 1236ERGO    C116953  16.846   4.027   7.107 -0.2820  0.3714 -0.0626
 1236ERGO    C216954  16.795   4.113   7.311 -0.1307  0.2329  0.0705
 1237ERGO   ROH16955   5.936   5.443   6.252 -0.0600 -0.0620  0.0558
 1237ERGO    R116956   5.810   5.512   6.496 -0.4263 -0.3567 -0.0405
 1237ERGO    R216957   5.672   5.328   6.650  0.2059 -0.8000  0.0386
 1237ERGO    R316958   5.839   5.415   6.845 -0.1686 -0.0030  0.0400
 1237ERGO    R416959   5.642   5.249   6.985  0.2873 -0.4958  0.1193
 1237ERGO    R516960   5.696   5.455   7.033 -0.4102 -0.2398 -0.0907
 1237ERGO    C116961   5.782   5.286   7.364 -0.0168  0.4296  0.1677
 1237ERGO    C216962   5.848   5.244   7.743  0.0613  0.1199  0.0558
 1238ERGO   ROH16963  16.335   8.340   6.261 -0.1977 -0.0797  0.0760
 1238ERGO    R116964  16.392   8.554   6.437  0.0556 -0.0542 -0.0325
 1238ERGO    R216965  16.299   8.560   6.698  0.0972  0.1675 -0.0256
 1238ERGO    R316966  16.562   8.595   6.756  0.1455 -0.0823 -0.0751
 1238ERGO    R416967  16.423   8.638   7.010  0.2071  0.2214 -0.0815
 1238ERGO    R516968  16.564   8.774   6.915  0.3500  0.0162 -0.1802
 1238ERGO    C116969  16.743   8.717   7.247  0.3164  0.0183 -0.1605
 1238ERGO    C216970  16.896   8.605   7.500  0.1546  0.1160  0.1013
 1239ERGO   ROH16971   8.299  17.087   6.261 -0.0381 -0.0969  0.0351
 1239ERGO    R116972   8.265  17.116   6.540 -0.1410 -0.1495  0.0285
 1239ERGO    R216973   8.186  16.907   6.703  0.0289 -0.2440 -0.0064
 1239ERGO    R316974   8.411  16.971   6.841 -0.0698 -0.0215  0.0556
 1239ERGO    R416975   8.209  16.922   7.047 -0.0985 -0.1264 -0.0020
 1239ERGO    R516976   8.332  17.100   7.026 -0.2368 -0.0325 -0.0080
 1239ERGO    C116977   8.434  16.991   7.377 -0.2653  0.1510  0.0589
 1239ERGO    C216978   8.533  17.047   7.719  0.4230 -0.0834  0.1591
 1240ERGO   ROH16979  16.615   7.540   6.664 -0.0053  0.2513 -0.1858
 1240ERGO    R116980  16.596   7.597   6.940  0.0961  0.1555 -0.1584
 1240ERGO    R216981  16.397   7.757   7.046  0.1076  0.0817 -0.0240
 1240ERGO    R316982  16.353   7.541   7.206  0.2151  0.0200 -0.0765
 1240ERGO    R416983  16.178   7.751   7.313  0.2926 -0.0144  0.1278
 1240ERGO    R516984  16.326   7.635   7.425  0.3698 -0.0625 -0.0190
 1240ERGO    C116985  16.010   7.546   7.619  0.5010 -0.1282  0.1670
 1240ERGO    C216986  15.749   7.481   7.822  0.0264  0.2687  0.0296
 1241ERGO   ROH16987   0.162  14.931   6.241 -0.0418 -0.0063  0.0545
 1241ERGO    R116988   0.187  14.968   6.521 -0.2064 -0.0300  0.0713
 1241ERGO    R216989   0.338  15.171   6.631  0.0391 -0.2718  0.1721
 1241ERGO    R316990   0.106  15.229   6.761  0.0255  0.1214 -0.0080
 1241ERGO    R416991   0.318  15.314   6.945  0.0469 -0.2224  0.1518
 1241ERGO    R516992   0.153  15.179   6.991 -0.2244  0.0463  0.0356
 1241ERGO    C116993   0.089  15.451   7.251  0.0388  0.1756 -0.0293
 1241ERGO    C216994  -0.154  15.529   7.613  0.2808  0.2168  0.2526
 1242ERGO   ROH16995   5.331   4.562   6.096 -0.0540  0.1245  0.0230
 1242ERGO    R116996   5.340   4.554   6.379 -0.1253 -0.0126  0.0228
 1242ERGO    R216997   5.312   4.319   6.522  0.0103 -0.1092 -0.1030
 1242ERGO    R316998   5.548   4.397   6.633 -0.0761  0.0127 -0.0024
 1242ERGO    R416999   5.414   4.245   6.844  0.0025 -0.2346 -0.1296
 1242ERGO    R517000   5.494   4.447   6.861 -0.1657 -0.1792  0.0188
 1242ERGO    C117001   5.694   4.274   7.135 -0.0832 -0.1932 -0.0507
 1242ERGO    C217002   5.707   4.221   7.520 -0.0561 -0.1194  0.0931
 1243ERGO   ROH17003  16.344  13.736   6.215 -0.4192 -0.2222  0.0433
 1243ERGO    R117004  16.413  13.779   6.486 -0.2191 -0.1764 -0.0146
 1243ERGO    R217005  16.244  13.714   6.695 -0.1254 -0.0027  0.1105
 1243ERGO    R317006  16.460  13.575   6.783 -0.1555 -0.1074  0.0252
 1243ERGO    R417007  16.312  13.644   7.027  0.0461  0.1048  0.1002
 1243ERGO    R517008  16.523  13.684   6.987  0.0529 -0.0507 -0.0622
 1243ERGO    C117009  16.555  13.473   7.303  0.1176  0.0691  0.0142
 1243ERGO    C217010  16.567  13.487   7.613  0.0037  0.0189 -0.2208
 1244ERGO   ROH17011   6.573  16.277   5.991  0.2323 -0.0974 -0.1063
 1244ERGO    R117012   6.657  16.134   6.220  0.2685 -0.0126 -0.0664
 1244ERGO    R217013   6.873  16.212   6.374  0.0699  0.2536  0.0833
 1244ERGO    R317014   6.691  16.202   6.576 -0.0523 -0.0008 -0.0345
 1244ERGO    R417015   6.953  16.208   6.710 -0.1394  0.2592  0.1347
 1244ERGO    R517016   6.794  16.061   6.740  0.0022  0.0711 -0.0053
 1244ERGO    C117017   6.829  16.196   7.096 -0.3758  0.0238  0.0539
 1244ERGO    C217018   6.799  16.202   7.449 -0.0352  0.1627  0.2101
 1245ERGO   ROH17019  13.740  16.699   6.152  0.2191  0.0847  0.0550
 1245ERGO    R117020  13.717  16.629   6.425  0.1365  0.0474  0.0381
 1245ERGO    R217021  13.935  16.611   6.594  0.0855  0.0121  0.0973
 1245ERGO    R317022  13.791  16.785   6.746  0.0519 -0.0027  0.0833
 1245ERGO    R417023  13.996  16.679   6.927  0.1494  0.1354  0.0615
 1245ERGO    R517024  13.780  16.681   6.961  0.1547  0.0540  0.1186
 1245ERGO    C117025  13.896  16.882   7.264  0.1550  0.1934  0.0276
 1245ERGO    C217026  13.816  16.927   7.598  0.0934 -0.6047 -0.0193
 1246ERGO   ROH17027   8.721  17.469   6.144  0.0627 -0.2436  0.1217
 1246ERGO    R117028   8.575  17.665   6.287 -0.0072 -0.1534 -0.0709
 1246ERGO    R217029   8.545  17.657   6.561 -0.2457 -0.0515 -0.0939
 1246ERGO    R317030   8.644  17.910   6.547 -0.1641 -0.0828 -0.0934
 1246ERGO    R417031   8.560  17.878   6.826 -0.0863 -0.0924 -0.0676
 1246ERGO    R517032   8.501  18.038   6.690 -0.0768 -0.0531 -0.0292
 1246ERGO    C117033   8.663  18.244   6.967  0.0831 -0.1457 -0.0517
 1246ERGO    C217034   8.729  18.285   7.255  0.2822 -0.2073 -0.0827
 1247ERGO   ROH17035  13.534   6.896   6.000 -0.0958 -0.0229 -0.0236
 1247ERGO    R117036  13.581   7.128   6.154 -0.0683 -0.0333 -0.0186
 1247ERGO    R217037  13.600   7.123   6.430  0.0876 -0.0679 -0.0349
 1247ERGO    R317038  13.838   7.245   6.384  0.0315  0.0045 -0.1452
 1247ERGO    R417039  13.774   7.313   6.661  0.0199  0.1732 -0.1770
 1247ERGO    R517040  13.823   7.452   6.502 -0.0551  0.0867 -0.2876
 1247ERGO    C117041  14.099   7.537   6.752 -0.0722  0.3815 -0.3633
 1247ERGO    C217042  14.218   7.487   7.102 -0.0667 -0.1769 -0.1188
 1248ERGO   ROH17043   9.914  14.997   6.319 -0.1226  0.0194 -0.1278
 1248ERGO    R117044   9.841  14.818   6.525  0.1622 -0.0124 -0.0520
 1248ERGO    R217045   9.938  14.840   6.783 -0.0118  0.3675 -0.0216
 1248ERGO    R317046   9.674  14.840   6.847 -0.0552 -0.1690 -0.1487
 1248ERGO    R417047   9.807  14.732   7.084  0.0838  0.1547 -0.0540
 1248ERGO    R517048   9.643  14.640   6.975  0.3127 -0.2213 -0.1189
 1248ERGO    C117049   9.484  14.669   7.320  0.0988 -0.4729 -0.1923
 1248ERGO    C217050   9.317  14.550   7.517  0.1070  0.1380 -0.2117
 1249ERGO   ROH17051  10.508  17.573   6.293 -0.0308  0.1651  0.1976
 1249ERGO    R117052  10.418  17.723   6.515  0.0230  0.1765  0.2137
 1249ERGO    R217053  10.363  17.608   6.760 -0.1040  0.1552  0.1845
 1249ERGO    R317054  10.538  17.795   6.851  0.0074  0.0186  0.2514
 1249ERGO    R417055  10.438  17.662   7.093 -0.0082 -0.0414  0.1957
 1249ERGO    R517056  10.437  17.877   7.053  0.0950 -0.0282  0.3069
 1249ERGO    C117057  10.645  17.871   7.373  0.1522 -0.2842  0.2651
 1249ERGO    C217058  10.702  17.913   7.638 -0.2309  0.0970 -0.1275
 1250ERGO   ROH17059  11.394  11.993   6.625  0.1947 -0.1787 -0.1253
 1250ERGO    R117060  11.527  12.137   6.829  0.1009 -0.0978 -0.1215
 1250ERGO    R217061  11.441  12.137   7.092 -0.0317  0.0240 -0.1667
 1250ERGO    R317062  11.697  12.058   7.141 -0.0599  0.0302  0.0016
 1250ERGO    R417063  11.585  12.116   7.406 -0.2647 -0.0407 -0.0610
 1250ERGO    R517064  11.769  12.198   7.322 -0.2044 -0.0050  0.0918
 1250ERGO    C117065  11.909  12.030   7.634 -0.4269 -0.0723  0.1585
 1250ERGO    C217066  12.005  12.060   7.950  0.1760  0.2257 -0.2063
 1251ERGO   ROH17067   6.431   4.228   6.069  0.2867  0.0759  0.0980
 1251ERGO    R117068   6.518   4.188   6.335  0.2071  0.0416  0.1196
 1251ERGO    R217069   6.365   4.058   6.524  0.1592 -0.0021  0.0528
 1251ERGO    R317070   6.586   3.903   6.551  0.1637  0.0137  0.0957
 1251ERGO    R417071   6.452   3.888   6.812  0.1055 -0.0122  0.0627
 1251ERGO    R517072   6.660   3.943   6.775  0.1084  0.0052  0.1145
 1251ERGO    C117073   6.711   3.643   7.004  0.0786 -0.0034  0.1088
 1251ERGO    C217074   6.856   3.454   7.156 -0.1822  0.2338 -0.0711
 1252ERGO   ROH17075  15.790  12.141   6.095  0.1537  0.2189  0.0581
 1252ERGO    R117076  15.633  12.154   6.330  0.0800  0.2530  0.0078
 1252ERGO    R217077  15.730  12.078   6.577 -0.0891  0.0150  0.0044
 1252ERGO    R317078  15.651  12.328   6.650  0.1460  0.0613  0.1100
 1252ERGO    R417079  15.688  12.185   6.903 -0.1808 -0.1485  0.0472
 1252ERGO    R517080  15.509  12.293   6.840 -0.0205  0.0963 -0.0052
 1252ERGO    C117081  15.589  12.482   7.161 -0.0134 -0.2001  0.1712
 1252ERGO    C217082  15.677  12.655   7.447 -0.3890  0.0982  0.0031
 1253ERGO   ROH17083   8.077   5.664   6.522  0.3426 -0.2846  0.0584
 1253ERGO    R117084   8.113   5.808   6.763  0.1985 -0.1738  0.0199
 1253ERGO    R217085   8.000   5.728   7.004  0.1051 -0.1188  0.0097
 1253ERGO    R317086   8.257   5.741   7.091  0.0797 -0.0185  0.1065
 1253ERGO    R417087   8.096   5.769   7.333 -0.0293 -0.2018  0.0566
 1253ERGO    R517088   8.253   5.903   7.266 -0.0681 -0.0872  0.1681
 1253ERGO    C117089   8.393   5.805   7.607 -0.1316 -0.1560  0.1748
 1253ERGO    C217090   8.617   5.913   7.820 -0.0580  0.1949 -0.1556
 1254ERGO   ROH17091  14.964  10.806   6.362  0.2301 -0.2144  0.1460
 1254ERGO    R117092  14.904  10.917   6.616  0.2449 -0.0024  0.0603
 1254ERGO    R217093  14.861  10.760   6.839 -0.2090  0.1567  0.0986
 1254ERGO    R317094  15.056  10.916   6.947  0.0090 -0.1577  0.1701
 1254ERGO    R417095  14.887  10.841   7.174 -0.3377  0.3070  0.0728
 1254ERGO    R517096  14.944  11.044   7.116  0.1093  0.1657 -0.0020
 1254ERGO    C117097  15.085  11.034   7.470 -0.2081  0.0993  0.1249
 1254ERGO    C217098  15.289  10.991   7.724 -0.2765 -0.1996  0.1247
 1255ERGO   ROH17099  14.802  17.489   6.132 -0.0980 -0.0515 -0.1270
 1255ERGO    R117100  14.816  17.739   6.265 -0.1848 -0.0879 -0.0475
 1255ERGO    R217101  14.640  17.810   6.465 -0.1308 -0.2641  0.0687
 1255ERGO    R317102  14.869  17.854   6.606 -0.0848 -0.1763 -0.0335
 1255ERGO    R417103  14.657  17.973   6.770 -0.0556 -0.2804  0.0728
 1255ERGO    R517104  14.839  18.071   6.702 -0.1312 -0.1983 -0.0033
 1255ERGO    C117105  14.882  18.109   7.079  0.0314 -0.2074 -0.0209
 1255ERGO    C217106  15.028  18.274   7.305 -0.1429  0.0140 -0.3026
 1256ERGO   ROH17107  13.227  18.424   5.646 -0.2328 -0.0939  0.0643
 1256ERGO    R117108  13.221  18.506   5.917 -0.0251 -0.0026  0.0432
 1256ERGO    R217109  13.143  18.337   6.122 -0.2072  0.1686  0.1180
 1256ERGO    R317110  13.384  18.406   6.227 -0.0663 -0.1508  0.0180
 1256ERGO    R417111  13.223  18.324   6.458 -0.1116  0.1390  0.0946
 1256ERGO    R517112  13.330  18.512   6.435  0.1559 -0.0169  0.0113
 1256ERGO    C117113  13.495  18.380   6.753  0.0764 -0.1778 -0.0129
 1256ERGO    C217114  13.567  18.321   7.035  0.2248 -0.0916 -0.1074
 1257ERGO   ROH17115   7.714  16.294   6.137  0.1724 -0.0715 -0.1091
 1257ERGO    R117116   7.706  16.130   6.368  0.0769 -0.0118 -0.0700
 1257ERGO    R217117   7.908  15.953   6.433  0.0006 -0.0722  0.0023
 1257ERGO    R317118   7.905  16.087   6.670  0.0168 -0.0138 -0.0301
 1257ERGO    R417119   7.942  15.806   6.744 -0.1888 -0.0235  0.0475
 1257ERGO    R517120   7.788  15.941   6.819 -0.1248  0.0960 -0.0300
 1257ERGO    C117121   7.959  15.846   7.147 -0.2837  0.0598  0.0435
 1257ERGO    C217122   7.928  15.933   7.441 -0.2548  0.0552 -0.0358
 1258ERGO   ROH17123   9.572  10.419   6.326 -0.0473  0.2728 -0.0976
 1258ERGO    R117124   9.431  10.522   6.549 -0.0002  0.2456 -0.0584
 1258ERGO    R217125   9.482  10.441   6.808 -0.0534  0.1001 -0.1027
 1258ERGO    R317126   9.514  10.708   6.850  0.0818  0.0678  0.0324
 1258ERGO    R417127   9.421  10.602   7.108 -0.2465  0.0190 -0.0940
 1258ERGO    R517128   9.332  10.766   6.996 -0.0309  0.1268 -0.1222
 1258ERGO    C117129   9.414  10.946   7.322 -0.2320 -0.0586  0.0380
 1258ERGO    C217130   9.414  10.983   7.715  0.1414 -0.3278  0.0036
 1259ERGO   ROH17131  12.301  14.580   6.758  0.3301  0.0270 -0.0820
 1259ERGO    R117132  12.446  14.642   6.994  0.0949  0.2711  0.0022
 1259ERGO    R217133  12.353  14.822   7.182 -0.3919  0.0096  0.0231
 1259ERGO    R317134  12.391  14.614   7.352 -0.0021  0.0291 -0.0285
 1259ERGO    R417135  12.355  14.845   7.527 -0.6133 -0.0870  0.0330
 1259ERGO    R517136  12.521  14.705   7.531 -0.2859  0.2762  0.0647
 1259ERGO    C117137  12.391  14.663   7.887 -0.3763 -0.1248 -0.0096
 1259ERGO    C217138  12.261  14.787   8.177  0.2256 -0.1272 -0.2582
 1260ERGO   ROH17139   0.705  17.474   6.571  0.0434 -0.0330 -0.0012
 1260ERGO    R117140   0.796  17.518   6.835 -0.1849  0.0147  0.0728
 1260ERGO    R217141   0.643  17.457   7.057 -0.2541 -0.2608 -0.0375
 1260ERGO    R317142   0.862  17.313   7.129 -0.0996  0.0115  0.0490
 1260ERGO    R417143   0.746  17.404   7.383 -0.2104 -0.0119 -0.0090
 1260ERGO    R517144   0.952  17.432   7.317 -0.2408  0.1853  0.0020
 1260ERGO    C117145   1.012  17.238   7.639 -0.0399  0.3884  0.0889
 1260ERGO    C217146   1.010  17.178   7.983  0.1726 -0.1364  0.3101
 1261ERGO   ROH17147   5.924   3.533   6.459 -0.0585 -0.0515  0.2451
 1261ERGO    R117148   6.144   3.456   6.619 -0.0013 -0.0803  0.1527
 1261ERGO    R217149   6.190   3.561   6.871  0.1472 -0.0483  0.1105
 1261ERGO    R317150   6.193   3.300   6.945  0.1169 -0.0356  0.1579
 1261ERGO    R417151   6.287   3.445   7.181 -0.0705  0.0205  0.2067
 1261ERGO    R517152   6.388   3.279   7.082  0.0208  0.0099  0.3079
 1261ERGO    C117153   6.346   3.132   7.432 -0.2258  0.0725  0.3072
 1261ERGO    C217154   6.284   3.038   7.728  0.0964  0.0135  0.1785
 1262ERGO   ROH17155   1.165   4.423   5.954 -0.2882  0.1909  0.0725
 1262ERGO    R117156   1.009   4.326   6.169 -0.1058 -0.0394  0.1053
 1262ERGO    R217157   1.080   4.104   6.317  0.2748  0.0892  0.1202
 1262ERGO    R317158   1.053   4.275   6.527  0.0261  0.0715  0.1068
 1262ERGO    R417159   0.999   4.010   6.640  0.1367  0.0242  0.0681
 1262ERGO    R517160   0.871   4.186   6.654  0.0036 -0.0598 -0.0092
 1262ERGO    C117161   0.927   4.117   7.025 -0.1772 -0.0302  0.0253
 1262ERGO    C217162   0.982   4.025   7.327  0.3891  0.2739  0.0868
 1263ERGO   ROH17163  17.967   5.593   6.224  0.2502 -0.1198 -0.0820
 1263ERGO    R117164  18.002   5.523   6.496 -0.1740  0.2756  0.0905
 1263ERGO    R217165  17.800   5.546   6.683 -0.7365 -0.1665 -0.4109
 1263ERGO    R317166  17.856   5.284   6.728  0.0122  0.0348 -0.0407
 1263ERGO    R417167  17.715   5.372   6.969 -0.7130 -0.1379 -0.3886
 1263ERGO    R517168  17.909   5.273   6.961 -0.3722  0.4510  0.0723
 1263ERGO    C117169  17.718   5.025   7.178  0.0036  0.0678 -0.0282
 1263ERGO    C217170  17.568   4.996   7.480  0.1411 -0.0201 -0.2999
 1264ERGO   ROH17171   8.071   1.302   6.431  0.2264  0.1055  0.0491
 1264ERGO    R117172   8.071   1.143   6.665 -0.0400  0.0352  0.0049
 1264ERGO    R217173   8.289   1.128   6.834 -0.0624 -0.3721  0.0056
 1264ERGO    R317174   8.107   1.200   7.023  0.0482 -0.1225  0.0227
 1264ERGO    R417175   8.345   1.124   7.175  0.0272 -0.2654 -0.0070
 1264ERGO    R517176   8.144   1.046   7.203 -0.0389 -0.0758  0.0835
 1264ERGO    C117177   8.207   1.188   7.551  0.1833  0.0311  0.0015
 1264ERGO    C217178   8.318   1.103   7.860 -0.1284  0.0550 -0.0252
 1265ERGO   ROH17179   5.597   9.499   6.247  0.0410  0.1924  0.1295
 1265ERGO    R117180   5.575   9.503   6.529  0.1348  0.2020  0.1364
 1265ERGO    R217181   5.495   9.282   6.675  0.0032  0.2616  0.1535
 1265ERGO    R317182   5.728   9.326   6.808  0.0833  0.0698  0.0820
 1265ERGO    R417183   5.565   9.170   6.995  0.0170  0.1924  0.1270
 1265ERGO    R517184   5.661   9.361   7.035  0.1837  0.1146  0.1054
 1265ERGO    C117185   5.824   9.146   7.305  0.1003 -0.0282  0.0445
 1265ERGO    C217186   5.839   9.049   7.622 -0.2501 -0.1001  0.2429
 1266ERGO   ROH17187  11.902  17.600   6.395  0.0856 -0.1323 -0.0471
 1266ERGO    R117188  12.105  17.567   6.589  0.1086 -0.0893 -0.0627
 1266ERGO    R217189  12.374  17.559   6.523  0.1080 -0.0349 -0.0843
 1266ERGO    R317190  12.391  17.758   6.708  0.0783 -0.0289 -0.0891
 1266ERGO    R417191  12.662  17.647   6.693  0.0340 -0.1590  0.1078
 1266ERGO    R517192  12.542  17.673   6.873 -0.0763 -0.0868  0.0222
 1266ERGO    C117193  12.846  17.885   6.965 -0.0369 -0.2257  0.2152
 1266ERGO    C217194  13.104  18.085   6.907 -0.0667 -0.1273  0.1193
 1267ERGO   ROH17195  11.867   0.185   5.916 -0.2062  0.1035  0.0775
 1267ERGO    R117196  11.987   0.096   6.156 -0.1195  0.1278  0.0435
 1267ERGO    R217197  12.240   0.175   6.234 -0.0654  0.0846 -0.0875
 1267ERGO    R317198  12.112   0.250   6.462  0.0550  0.1653 -0.0447
 1267ERGO    R417199  12.375   0.159   6.552  0.0629  0.0877 -0.1412
 1267ERGO    R517200  12.182   0.090   6.626  0.0683  0.1657 -0.0494
 1267ERGO    C117201  12.333   0.220   6.951  0.2507  0.1653 -0.1323
 1267ERGO    C217202  12.672   0.236   7.230  0.1639 -0.2164 -0.0407
 1268ERGO   ROH17203   3.717  10.591   6.317  0.0899  0.1956  0.1951
 1268ERGO    R117204   3.766  10.458   6.562 -0.2258  0.0622  0.1910
 1268ERGO    R217205   3.920  10.569   6.763  0.0987 -0.3288  0.1691
 1268ERGO    R317206   3.699  10.520   6.914 -0.0263  0.2481  0.1999
 1268ERGO    R417207   3.901  10.618   7.105  0.3318 -0.3941  0.1931
 1268ERGO    R517208   3.787  10.432   7.119 -0.2151 -0.0914  0.1467
 1268ERGO    C117209   3.683  10.600   7.446  0.3503  0.1094  0.2358
 1268ERGO    C217210   3.701  10.808   7.635  0.2556  0.0710  0.3187
 1269ERGO   ROH17211  13.333  16.876   6.130  0.0250  0.0471 -0.1538
 1269ERGO    R117212  13.247  16.920   6.397 -0.0233  0.1092 -0.1792
 1269ERGO    R217213  13.361  16.789   6.613 -0.2602 -0.0663 -0.1557
 1269ERGO    R317214  13.396  17.042   6.705  0.0141 -0.1192 -0.1047
 1269ERGO    R417215  13.407  16.874   6.945 -0.4584 -0.1567 -0.1032
 1269ERGO    R517216  13.278  17.046   6.914 -0.1841  0.0329 -0.2171
 1269ERGO    C117217  13.467  17.160   7.225 -0.3163 -0.2592 -0.0247
 1269ERGO    C217218  13.385  17.308   7.429 -0.1072  0.0530  0.1347
 1270ERGO   ROH17219  10.872  15.024   6.642  0.1155 -0.1038  0.0246
 1270ERGO    R117220  10.848  14.922   6.905 -0.0907 -0.0915  0.0121
 1270ERGO    R217221  10.969  15.041   7.123 -0.0805 -0.2060  0.0659
 1270ERGO    R317222  10.717  15.038   7.223 -0.1277  0.0140 -0.0399
 1270ERGO    R417223  10.887  15.108   7.452 -0.1634 -0.0337  0.0113
 1270ERGO    R517224  10.741  14.946   7.443 -0.2829  0.0667  0.0042
 1270ERGO    C117225  10.602  15.145   7.738 -0.2560  0.2731 -0.1198
 1270ERGO    C217226  10.598  15.132   8.081 -0.2879  0.1617 -0.1655
 1271ERGO   ROH17227   2.721   8.875   5.900  0.1562 -0.1468 -0.0704
 1271ERGO    R117228   2.688   8.975   6.163  0.1440 -0.0153 -0.1221
 1271ERGO    R217229   2.591   8.820   6.370  0.0436  0.1173 -0.0731
 1271ERGO    R317230   2.820   8.899   6.494  0.0490  0.0835 -0.0598
 1271ERGO    R417231   2.664   8.765   6.703  0.0517  0.0197 -0.0903
 1271ERGO    R517232   2.749   8.965   6.713  0.0526  0.0211 -0.0364
 1271ERGO    C117233   2.922   8.806   7.013  0.0615 -0.0689 -0.0878
 1271ERGO    C217234   3.085   8.646   7.313  0.2822 -0.1311  0.0797
 1272ERGO   ROH17235  18.112   5.062   6.162 -0.0968 -0.1403  0.0256
 1272ERGO    R117236  18.170   5.112   6.435 -0.1349  0.1407 -0.0137
 1272ERGO    R217237  18.325   4.940   6.588 -0.5014  0.0723  0.3018
 1272ERGO    R317238  18.469   5.165   6.635 -0.1250 -0.1073  0.0380
 1272ERGO    R417239  18.432   5.046   6.899 -0.1582  0.1708  0.1540
 1272ERGO    R517240  18.384   5.250   6.842  0.1246  0.1979  0.0196
 1272ERGO    C117241  18.630   5.318   7.124  0.3948  0.0596 -0.1797
 1272ERGO    C217242  18.771   5.298   7.287  0.2657 -0.1158  0.1628
 1273ERGO   ROH17243  17.765  13.996   6.360 -0.3600 -0.3648  0.1484
 1273ERGO    R117244  17.723  13.903   6.624 -0.1336 -0.3000  0.2098
 1273ERGO    R217245  17.917  13.769   6.768  0.0599 -0.0853  0.1527
 1273ERGO    R317246  17.868  13.963   6.952  0.0050 -0.0545  0.1063
 1273ERGO    R417247  18.024  13.761   7.097 -0.1667 -0.1058  0.2280
 1273ERGO    R517248  17.831  13.844   7.156 -0.1798 -0.0295  0.0904
 1273ERGO    C117249  18.041  13.939   7.461 -0.3501 -0.0888  0.2283
 1273ERGO    C217250  18.028  13.994   7.869  0.1731 -0.1086  0.2725
 1274ERGO   ROH17251   7.168  13.169   6.221 -0.0009 -0.2271 -0.0192
 1274ERGO    R117252   7.265  13.222   6.482  0.2156 -0.0824 -0.1250
 1274ERGO    R217253   7.127  13.148   6.709  0.1551  0.4709  0.0416
 1274ERGO    R317254   7.362  13.026   6.772 -0.0482  0.0830  0.0763
 1274ERGO    R417255   7.251  13.110   7.030  0.0000  0.1246  0.0651
 1274ERGO    R517256   7.450  13.155   6.953  0.0926 -0.1427  0.1645
 1274ERGO    C117257   7.543  12.974   7.276 -0.2811 -0.4412  0.1113
 1274ERGO    C217258   7.566  12.940   7.538 -0.1851  0.1843  0.0739
 1275ERGO   ROH17259  17.508   7.996   6.005 -0.0646 -0.1614 -0.0768
 1275ERGO    R117260  17.522   7.890   6.267 -0.2182 -0.1273 -0.0537
 1275ERGO    R217261  17.404   7.650   6.337 -0.1889 -0.1591 -0.1128
 1275ERGO    R317262  17.655   7.590   6.424 -0.2296 -0.0658  0.0752
 1275ERGO    R417263  17.495   7.352   6.486 -0.1808 -0.1396 -0.0786
 1275ERGO    R517264  17.620   7.464   6.625 -0.3348 -0.1046  0.0334
 1275ERGO    C117265  17.784   7.121   6.654 -0.2142 -0.0407  0.1178
 1275ERGO    C217266  18.060   6.968   6.728  0.1336  0.0585 -0.1869
 1276ERGO   ROH17267  13.251   9.001   6.248 -0.2445  0.0354  0.1020
 1276ERGO    R117268  13.368   8.938   6.498 -0.2326 -0.1017  0.0640
 1276ERGO    R217269  13.404   9.127   6.697  0.1348 -0.1152  0.0258
 1276ERGO    R317270  13.266   8.947   6.847 -0.0818  0.1110  0.1032
 1276ERGO    R417271  13.488   9.032   7.018  0.1644 -0.2722 -0.0284
 1276ERGO    R517272  13.436   8.827   6.967 -0.2145 -0.1823 -0.0028
 1276ERGO    C117273  13.408   8.807   7.347 -0.0218 -0.1513  0.0127
 1276ERGO    C217274  13.496   8.750   7.736 -0.0635 -0.0525 -0.3202
 1277ERGO   ROH17275  12.437   9.463   6.380  0.3709 -0.2466  0.0329
 1277ERGO    R117276  12.376   9.472   6.656  0.1775 -0.0228 -0.0137
 1277ERGO    R217277  12.488   9.298   6.839 -0.1097 -0.0166  0.1780
 1277ERGO    R317278  12.559   9.528   6.965  0.0067 -0.0001  0.0835
 1277ERGO    R417279  12.562   9.324   7.176 -0.1050  0.0916  0.1685
 1277ERGO    R517280  12.454   9.513   7.180 -0.0054  0.1481  0.0864
 1277ERGO    C117281  12.672   9.556   7.490  0.0069  0.1702  0.0744
 1277ERGO    C217282  12.720   9.525   7.695 -0.3042  0.1787  0.1010
 1278ERGO   ROH17283   4.300  16.733   6.149  0.0217 -0.0452 -0.0602
 1278ERGO    R117284   4.295  16.707   6.431 -0.0397 -0.0362 -0.0616
 1278ERGO    R217285   4.114  16.544   6.562 -0.0035 -0.1024 -0.1051
 1278ERGO    R317286   4.339  16.439   6.673  0.0096 -0.0076 -0.0363
 1278ERGO    R417287   4.122  16.356   6.852 -0.0140 -0.0564 -0.0735
 1278ERGO    R517288   4.305  16.460   6.909 -0.0590  0.0193 -0.0441
 1278ERGO    C117289   4.338  16.148   7.124 -0.0078  0.0596  0.0095
 1278ERGO    C217290   4.354  15.988   7.346  0.1634  0.2336  0.1247
 1279ERGO   ROH17291  10.950  10.523   6.501 -0.1488 -0.1419 -0.0591
 1279ERGO    R117292  11.082  10.489   6.749 -0.0864 -0.1426 -0.0926
 1279ERGO    R217293  11.109  10.693   6.932 -0.0229 -0.1381 -0.1087
 1279ERGO    R317294  10.994  10.514   7.101  0.0080 -0.1228 -0.0693
 1279ERGO    R417295  11.056  10.745   7.270 -0.2245  0.0150 -0.1614
 1279ERGO    R517296  11.116  10.539   7.306 -0.1070  0.0685 -0.0196
 1279ERGO    C117297  10.918  10.607   7.625 -0.3128  0.1185 -0.1551
 1279ERGO    C217298  10.963  10.613   7.891 -0.0131 -0.2323 -0.1727
 1280ERGO   ROH17299  16.643   7.018   6.328 -0.1058  0.0455 -0.1149
 1280ERGO    R117300  16.545   6.986   6.592 -0.1178  0.1180 -0.1107
 1280ERGO    R217301  16.711   6.924   6.805 -0.1493  0.0363 -0.1128
 1280ERGO    R317302  16.599   7.146   6.915 -0.0185  0.1071 -0.1207
 1280ERGO    R417303  16.603   6.951   7.133 -0.0166  0.1474 -0.0775
 1280ERGO    R517304  16.430   7.062   7.062 -0.0002  0.2042 -0.0395
 1280ERGO    C117305  16.436   7.176   7.426  0.1833  0.2786 -0.0645
 1280ERGO    C217306  16.355   7.201   7.738  0.1753 -0.0607 -0.1470
 1281ERGO   ROH17307   0.782   6.962   6.032  0.1066  0.1739 -0.0137
 1281ERGO    R117308   0.737   6.787   6.250  0.0793  0.0648 -0.1059
 1281ERGO    R217309   0.939   6.634   6.361  0.0938  0.1004 -0.0777
 1281ERGO    R317310   0.859   6.753   6.591 -0.0609 -0.0252 -0.0649
 1281ERGO    R417311   1.044   6.543   6.677  0.1393  0.1485 -0.0791
 1281ERGO    R517312   0.840   6.573   6.748  0.0989 -0.0727 -0.1018
 1281ERGO    C117313   1.030   6.602   7.078  0.0206  0.0586 -0.0678
 1281ERGO    C217314   1.076   6.457   7.472  0.0228 -0.1439 -0.1717
 1282ERGO   ROH17315  16.224  16.508   6.073  0.2026 -0.1092 -0.0872
 1282ERGO    R117316  16.107  16.627   6.302  0.2638  0.0804 -0.1524
 1282ERGO    R217317  15.940  16.487   6.473  0.0142  0.3201 -0.1945
 1282ERGO    R317318  16.116  16.573   6.661  0.0532  0.1243 -0.1389
 1282ERGO    R417319  15.891  16.462   6.814 -0.0549  0.2435 -0.2093
 1282ERGO    R517320  15.978  16.660   6.836  0.0937  0.1724 -0.1303
 1282ERGO    C117321  16.028  16.527   7.190 -0.0587  0.0154 -0.1657
 1282ERGO    C217322  16.068  16.624   7.522 -0.3453  0.2898  0.0115
 1283ERGO   ROH17323   7.612   9.260   6.275 -0.0732 -0.0326  0.0921
 1283ERGO    R117324   7.620   9.423   6.506 -0.0973 -0.0239  0.0878
 1283ERGO    R217325   7.391   9.518   6.630 -0.1161 -0.1121  0.1293
 1283ERGO    R317326   7.501   9.401   6.849 -0.0277 -0.0666  0.1084
 1283ERGO    R417327   7.345   9.625   6.955 -0.0533 -0.1018  0.1340
 1283ERGO    R517328   7.555   9.584   6.993 -0.0352 -0.0450  0.0802
 1283ERGO    C117329   7.421   9.578   7.350  0.0663 -0.0531  0.1172
 1283ERGO    C217330   7.188   9.599   7.505  0.1196 -0.2771 -0.0764
 1284ERGO   ROH17331  15.129   2.596   6.105 -0.2644 -0.1577  0.1230
 1284ERGO    R117332  15.033   2.523   6.361 -0.0428 -0.1238  0.2193
 1284ERGO    R217333  15.145   2.619   6.595  0.0238  0.0845  0.1112
 1284ERGO    R317334  14.889   2.694   6.649 -0.0114 -0.1111  0.2253
 1284ERGO    R417335  15.015   2.665   6.912  0.1891  0.2156  0.1606
 1284ERGO    R517336  14.830   2.571   6.845  0.2327 -0.0077  0.3630
 1284ERGO    C117337  14.699   2.764   7.146  0.2524  0.1083  0.2964
 1284ERGO    C217338  14.555   2.855   7.302 -0.1359  0.0492  0.1109
 1285ERGO   ROH17339   3.579   4.184   6.150  0.0943  0.0241 -0.0676
 1285ERGO    R117340   3.571   4.101   6.421 -0.0064  0.1807 -0.0220
 1285ERGO    R217341   3.774   3.954   6.537 -0.1651  0.0393  0.0678
 1285ERGO    R317342   3.772   4.155   6.719  0.0306  0.1405 -0.0376
 1285ERGO    R417343   3.925   3.941   6.847 -0.4193 -0.0727  0.1909
 1285ERGO    R517344   3.753   4.044   6.931 -0.3218  0.2662  0.0081
 1285ERGO    C117345   4.012   4.123   7.199 -0.3836 -0.0429  0.1635
 1285ERGO    C217346   4.128   3.980   7.439 -0.0453  0.3031  0.0491
 1286ERGO   ROH17347   2.257  12.421   6.562  0.0797  0.0536 -0.0222
 1286ERGO    R117348   2.062  12.495   6.754  0.1365 -0.0422  0.0746
 1286ERGO    R217349   2.097  12.454   7.025  0.3383  0.0720  0.0720
 1286ERGO    R317350   2.045  12.720   7.039  0.1347  0.0360  0.0116
 1286ERGO    R417351   1.973  12.617   7.304  0.3557  0.0707  0.0798
 1286ERGO    R517352   1.846  12.736   7.172  0.1941 -0.0737  0.1090
 1286ERGO    C117353   1.852  12.962   7.478  0.1746  0.0363  0.0275
 1286ERGO    C217354   1.851  13.089   7.687 -0.0171  0.2001 -0.1785
 1287ERGO   ROH17355  14.521   9.890   6.408 -0.2949  0.2672  0.1109
 1287ERGO    R117356  14.588   9.728   6.631 -0.0785  0.1420 -0.0413
 1287ERGO    R217357  14.783   9.800   6.814  0.0081  0.1047 -0.1122
 1287ERGO    R317358  14.582   9.761   6.993  0.1351 -0.1093 -0.0133
 1287ERGO    R417359  14.826   9.763   7.154  0.2015  0.2019 -0.1250
 1287ERGO    R517360  14.673   9.608   7.152  0.3857  0.0216 -0.0311
 1287ERGO    C117361  14.663   9.705   7.521  0.4333  0.0575 -0.0397
 1287ERGO    C217362  14.470   9.573   7.907  0.2640 -0.1726 -0.0026
 1288ERGO   ROH17363  10.804  14.495   6.410 -0.0720 -0.1937 -0.0030
 1288ERGO    R117364  10.744  14.553   6.680 -0.1036 -0.1208 -0.0242
 1288ERGO    R217365  10.686  14.357   6.865  0.0077 -0.0846  0.0577
 1288ERGO    R317366  10.887  14.475   7.005 -0.0551  0.0857  0.0045
 1288ERGO    R417367  10.706  14.366   7.210 -0.0779  0.2346  0.0556
 1288ERGO    R517368  10.777  14.572   7.195 -0.1201  0.2338 -0.1115
 1288ERGO    C117369  10.905  14.483   7.543 -0.1866  0.5802  0.0044
 1288ERGO    C217370  11.016  14.421   7.832  0.0676 -0.2392  0.2687
 1289ERGO   ROH17371   8.936   9.107   6.388  0.1361  0.0064 -0.0192
 1289ERGO    R117372   8.857   8.978   6.627 -0.0450  0.0126 -0.0729
 1289ERGO    R217373   9.026   8.950   6.844 -0.0728 -0.3481 -0.0874
 1289ERGO    R317374   8.822   9.070   6.977  0.1189 -0.0976 -0.0296
 1289ERGO    R417375   8.952   8.902   7.178 -0.1138 -0.3577 -0.0995
 1289ERGO    R517376   8.741   8.902   7.127 -0.1140 -0.0282 -0.0812
 1289ERGO    C117377   8.718   8.986   7.498  0.0424 -0.1280 -0.0523
 1289ERGO    C217378   8.829   9.125   7.835 -0.1891 -0.2285 -0.0412
 1290ERGO   ROH17379   5.440   1.179   6.166 -0.0665  0.1094  0.0698
 1290ERGO    R117380   5.530   1.027   6.387 -0.0236  0.1199  0.0607
 1290ERGO    R217381   5.590   1.140   6.632 -0.0294  0.1259  0.0640
 1290ERGO    R317382   5.413   0.957   6.724  0.0084  0.0904  0.0644
 1290ERGO    R417383   5.589   1.009   6.952  0.0090  0.0984  0.0524
 1290ERGO    R517384   5.542   0.815   6.866  0.0359  0.1010  0.0441
 1290ERGO    C117385   5.422   0.760   7.224  0.0669  0.0491  0.0459
 1290ERGO    C217386   5.438   0.778   7.507 -0.1042  0.0475  0.0781
 1291ERGO   ROH17387   0.618   5.416   6.031 -0.0656 -0.1043 -0.0573
 1291ERGO    R117388   0.679   5.251   6.253  0.1989 -0.1955 -0.1929
 1291ERGO    R217389   0.937   5.213   6.343  0.2572  0.2821 -0.1244
 1291ERGO    R317390   0.832   5.294   6.580 -0.0349 -0.1727 -0.0852
 1291ERGO    R417391   1.109   5.220   6.643  0.0825  0.2967 -0.0238
 1291ERGO    R517392   0.929   5.146   6.742  0.1647 -0.1628 -0.1944
 1291ERGO    C117393   1.110   5.300   7.040 -0.2935 -0.1217  0.0716
 1291ERGO    C217394   1.352   5.290   7.298 -0.1792 -0.0143 -0.1200
 1292ERGO   ROH17395   3.488  17.147   6.530 -0.0366 -0.0516  0.0062
 1292ERGO    R117396   3.404  17.030   6.774 -0.1114 -0.0972 -0.0410
 1292ERGO    R217397   3.474  17.133   7.021  0.0086 -0.2768  0.0032
 1292ERGO    R317398   3.205  17.132   7.061  0.0098 -0.0605  0.0302
 1292ERGO    R417399   3.318  17.045   7.317 -0.0406 -0.3614 -0.0477
 1292ERGO    R517400   3.167  16.941   7.201 -0.1502 -0.1335 -0.1118
 1292ERGO    C117401   2.976  16.992   7.527 -0.0681 -0.2077 -0.0520
 1292ERGO    C217402   2.876  17.022   7.859 -0.2153 -0.0613 -0.0522
 1293ERGO   ROH17403   2.080  11.009   6.174 -0.1984 -0.2521 -0.0384
 1293ERGO    R117404   1.976  10.967   6.434 -0.1504 -0.0346  0.0190
 1293ERGO    R217405   2.009  10.730   6.571 -0.3754 -0.0317  0.0970
 1293ERGO    R317406   2.111  10.893   6.764 -0.1062 -0.0705 -0.0095
 1293ERGO    R417407   2.052  10.641   6.902 -0.0892 -0.0180  0.0652
 1293ERGO    R517408   1.983  10.840   6.959  0.0668  0.0120  0.1205
 1293ERGO    C117409   2.172  10.742   7.276  0.3301 -0.0466 -0.0533
 1293ERGO    C217410   2.212  10.722   7.496 -0.1297 -0.2807  0.0700
 1294ERGO   ROH17411   3.022   2.470   6.000  0.3718  0.1257 -0.0101
 1294ERGO    R117412   3.108   2.363   6.248  0.2426  0.1258  0.0361
 1294ERGO    R217413   3.328   2.197   6.270  0.1641  0.0320  0.1362
 1294ERGO    R317414   3.408   2.381   6.453  0.1824  0.0263  0.1330
 1294ERGO    R417415   3.586   2.152   6.495  0.1090 -0.0213  0.1884
 1294ERGO    R517416   3.465   2.252   6.647  0.1091  0.0282  0.1559
 1294ERGO    C117417   3.812   2.299   6.798  0.0941 -0.0576  0.2159
 1294ERGO    C217418   4.188   2.213   6.960 -0.1248 -0.1338 -0.0688
 1295ERGO   ROH17419  13.982  12.523   6.327 -0.2263 -0.0219  0.0200
 1295ERGO    R117420  13.946  12.432   6.593  0.0010  0.0340  0.0708
 1295ERGO    R217421  14.048  12.568   6.811 -0.1064  0.2678 -0.0262
 1295ERGO    R317422  13.790  12.559   6.896 -0.0661 -0.0630  0.0786
 1295ERGO    R417423  13.941  12.651   7.129 -0.0777  0.1244  0.0223
 1295ERGO    R517424  13.804  12.482   7.122  0.1287 -0.0556  0.0743
 1295ERGO    C117425  13.636  12.690   7.394 -0.0230 -0.2699  0.1489
 1295ERGO    C217426  13.649  12.730   7.779  0.1263  0.1908  0.2480
 1296ERGO   ROH17427  11.221   3.969   5.742 -0.0417  0.0053 -0.0389
 1296ERGO    R117428  11.484   3.979   5.847 -0.0746 -0.0532  0.0496
 1296ERGO    R217429  11.619   4.217   5.886  0.0098 -0.0898 -0.0185
 1296ERGO    R317430  11.646   4.122   6.140 -0.1200  0.0218  0.0382
 1296ERGO    R417431  11.781   4.382   6.143  0.0219 -0.0506 -0.0512
 1296ERGO    R517432  11.865   4.192   6.207 -0.1018 -0.0657  0.0705
 1296ERGO    C117433  11.900   4.390   6.530 -0.0928  0.0771 -0.0170
 1296ERGO    C217434  12.045   4.645   6.672  0.1927  0.3260 -0.0579
 1297ERGO   ROH17435  16.472   7.446   6.261  0.2436 -0.1424  0.0626
 1297ERGO    R117436  16.263   7.463   6.451  0.1477 -0.1562 -0.0397
 1297ERGO    R217437  16.158   7.241   6.577  0.1831 -0.1531 -0.0010
 1297ERGO    R317438  16.218   7.380   6.803  0.0220 -0.0385 -0.0278
 1297ERGO    R417439  16.022   7.179   6.889  0.0443 -0.0648 -0.0433
 1297ERGO    R517440  16.009   7.395   6.921 -0.0424 -0.0561 -0.1401
 1297ERGO    C117441  15.999   7.274   7.282 -0.1877  0.0942 -0.0932
 1297ERGO    C217442  15.916   7.082   7.497  0.1265 -0.1564  0.1002
 1298ERGO   ROH17443  14.473   2.488   6.226  0.2189 -0.0073 -0.1051
 1298ERGO    R117444  14.501   2.495   6.508  0.1309 -0.1824 -0.0915
 1298ERGO    R217445  14.366   2.677   6.666  0.3271 -0.0715 -0.0541
 1298ERGO    R317446  14.282   2.454   6.796 -0.0296 -0.0215 -0.1869
 1298ERGO    R417447  14.215   2.675   6.977  0.5116 -0.0202  0.0378
 1298ERGO    R517448  14.332   2.497   7.026  0.2032 -0.2972 -0.1772
 1298ERGO    C117449  14.048   2.463   7.280  0.2841  0.0567 -0.0335
 1298ERGO    C217450  13.919   2.263   7.485  0.4137  0.1682 -0.3165
 1299ERGO   ROH17451   2.967  17.879   6.170  0.0992  0.2763  0.0746
 1299ERGO    R117452   2.995  17.721   6.403  0.0135  0.1097 -0.0255
 1299ERGO    R217453   3.230  17.589   6.466 -0.0277  0.0143 -0.0622
 1299ERGO    R317454   3.204  17.724   6.700 -0.0504 -0.1385  0.0237
 1299ERGO    R417455   3.373  17.493   6.765 -0.0856 -0.1989 -0.1019
 1299ERGO    R517456   3.189  17.552   6.866 -0.0944 -0.2467 -0.0920
 1299ERGO    C117457   3.432  17.564   7.160 -0.1408 -0.4664 -0.0444
 1299ERGO    C217458   3.594  17.593   7.410 -0.1231  0.2164 -0.1866
 1300ERGO   ROH17459  15.813  10.951   7.987  0.0399 -0.0149 -0.1157
 1300ERGO    R117460  15.893  11.200   8.094 -0.0466 -0.0142 -0.0522
 1300ERGO    R217461  16.071  11.367   7.964  0.0521 -0.0136  0.0871
 1300ERGO    R317462  15.872  11.550   7.994  0.0268 -0.0131 -0.0680
 1300ERGO    R417463  16.119  11.707   8.002  0.0494 -0.0473  0.4237
 1300ERGO    R517464  15.960  11.708   8.151 -0.1789 -0.1450  0.1930
 1300ERGO    C117465  15.960  12.077   8.053  0.0243 -0.0664  0.4742
 1300ERGO    C217466  15.987  12.470   8.147 -0.1096  0.0004  0.2350
 1301ERGO   ROH17467  11.615   8.804   6.491 -0.0242 -0.0365  0.0456
 1301ERGO    R117468  11.612   8.700   6.754 -0.0878 -0.0871  0.0250
 1301ERGO    R217469  11.773   8.799   6.956 -0.0449 -0.2099  0.0519
 1301ERGO    R317470  11.537   8.825   7.088 -0.0359 -0.1149  0.0468
 1301ERGO    R417471  11.737   8.797   7.300 -0.0259  0.0789  0.0582
 1301ERGO    R517472  11.556   8.678   7.275 -0.0164  0.0469  0.1714
 1301ERGO    C117473  11.493   8.820   7.623 -0.0065  0.3364  0.0571
 1301ERGO    C217474  11.354   8.834   7.970  0.1216  0.2232 -0.1755
 1302ERGO   ROH17475  10.225  17.107   6.403 -0.1577 -0.0895  0.0060
 1302ERGO    R117476  10.265  17.023   6.670 -0.2436 -0.2466 -0.0303
 1302ERGO    R217477  10.335  17.198   6.873  0.1698 -0.4354 -0.0014
 1302ERGO    R317478  10.116  17.093   6.995 -0.0116 -0.0357  0.0338
 1302ERGO    R417479  10.275  17.208   7.213  0.3078 -0.4483  0.0247
 1302ERGO    R517480  10.200  17.004   7.201 -0.1209 -0.2952 -0.0316
 1302ERGO    C117481  10.035  17.116   7.526  0.2178 -0.0804  0.0729
 1302ERGO    C217482   9.966  16.857   7.795 -0.2569  0.1314 -0.0358
 1303ERGO   ROH17483  11.848  13.282   6.724 -0.0155  0.0383  0.0106
 1303ERGO    R117484  11.843  13.147   6.972  0.0407  0.1714  0.0858
 1303ERGO    R217485  11.992  13.230   7.190 -0.0610  0.4068  0.0724
 1303ERGO    R317486  11.751  13.228   7.315 -0.0851  0.2946  0.0227
 1303ERGO    R417487  11.942  13.294   7.526 -0.1391  0.1433  0.1126
 1303ERGO    R517488  11.796  13.133   7.530 -0.1271  0.1326 -0.0412
 1303ERGO    C117489  11.686  13.329   7.839 -0.2071 -0.1155  0.0894
 1303ERGO    C217490  11.776  13.318   8.088 -0.3435 -0.3133 -0.0892
 1304ERGO   ROH17491   1.198  11.684   6.389 -0.0088  0.2408  0.0581
 1304ERGO    R117492   1.345  11.705   6.630 -0.1302 -0.1151  0.1705
 1304ERGO    R217493   1.401  11.948   6.750  0.4639 -0.2237  0.1426
 1304ERGO    R317494   1.286  11.830   6.967 -0.0509  0.1479  0.0906
 1304ERGO    R417495   1.426  12.063   7.075  0.6029 -0.2275  0.1331
 1304ERGO    R517496   1.447  11.857   7.142 -0.0646 -0.3050  0.1905
 1304ERGO    C117497   1.333  12.020   7.467  0.2005  0.1189  0.0788
 1304ERGO    C217498   1.208  11.968   7.831  0.0876  0.0849 -0.2163
 1305ERGO   ROH17499  16.000   8.612   6.242 -0.0866  0.0679  0.0119
 1305ERGO    R117500  15.978   8.815   6.438 -0.1607  0.0705  0.0017
 1305ERGO    R217501  15.736   8.933   6.503 -0.1958  0.0391 -0.0555
 1305ERGO    R317502  15.804   8.857   6.755 -0.2399  0.0515 -0.0403
 1305ERGO    R417503  15.581   9.043   6.792 -0.3256 -0.0535 -0.0892
 1305ERGO    R517504  15.777   9.055   6.887 -0.3639  0.0245 -0.0311
 1305ERGO    C117505  15.554   9.037   7.196 -0.4427 -0.0959 -0.0946
 1305ERGO    C217506  15.446   8.966   7.563 -0.3750 -0.2589  0.0499
 1306ERGO   ROH17507   7.609   1.152   6.341 -0.0012  0.0847 -0.0155
 1306ERGO    R117508   7.557   0.957   6.541  0.0222  0.0326 -0.0601
 1306ERGO    R217509   7.759   0.837   6.686  0.0311  0.0912 -0.0244
 1306ERGO    R317510   7.614   0.925   6.899 -0.0628 -0.0009 -0.0492
 1306ERGO    R417511   7.820   0.752   7.015  0.0082  0.1022 -0.0172
 1306ERGO    R517512   7.605   0.736   7.046  0.0084 -0.0170 -0.0640
 1306ERGO    C117513   7.720   0.785   7.407 -0.0931  0.0221 -0.0364
 1306ERGO    C217514   7.696   0.849   7.685  0.0859  0.1974  0.1291
 1307ERGO   ROH17515   6.808   6.656   6.302  0.1576 -0.1557  0.0928
 1307ERGO    R117516   6.707   6.816   6.512  0.1504 -0.1094  0.0543
 1307ERGO    R217517   6.553   6.713   6.717  0.0337 -0.0414  0.0023
 1307ERGO    R317518   6.742   6.829   6.874  0.0280 -0.1184  0.0665
 1307ERGO    R417519   6.493   6.851   7.028 -0.0753  0.2439 -0.1418
 1307ERGO    R517520   6.628   7.014   6.976  0.1308  0.0721 -0.1552
 1307ERGO    C117521   6.634   7.040   7.357 -0.1441  0.3377 -0.1654
 1307ERGO    C217522   6.508   7.124   7.751  0.1061 -0.0132 -0.0253
 1308ERGO   ROH17523   3.478  18.161   6.154  0.0870 -0.0657 -0.1412
 1308ERGO    R117524   3.457  18.040   6.409 -0.0282 -0.1011 -0.1688
 1308ERGO    R217525   3.678  17.957   6.553 -0.0954 -0.0684 -0.0623
 1308ERGO    R317526   3.570  18.115   6.747 -0.2337 -0.1225 -0.0912
 1308ERGO    R417527   3.747  17.929   6.890  0.0220  0.1109 -0.0688
 1308ERGO    R517528   3.536  17.965   6.932 -0.0220 -0.1141 -0.0341
 1308ERGO    C117529   3.688  18.060   7.269 -0.0396  0.1646 -0.0996
 1308ERGO    C217530   3.906  18.243   7.500 -0.0494 -0.2093 -0.1213
 1309ERGO   ROH17531  17.035  12.634   6.620 -0.1219 -0.1289 -0.0245
 1309ERGO    R117532  17.077  12.592   6.897 -0.1240 -0.0132 -0.0063
 1309ERGO    R217533  16.874  12.617   7.084 -0.1388  0.0071 -0.0251
 1309ERGO    R317534  16.951  12.365   7.152 -0.0787  0.0517  0.0743
 1309ERGO    R417535  16.861  12.487   7.404 -0.1158  0.1261  0.0249
 1309ERGO    R517536  17.053  12.391   7.367 -0.0912  0.1593  0.0679
 1309ERGO    C117537  16.925  12.175   7.654 -0.0462  0.2373  0.1474
 1309ERGO    C217538  16.767  12.022   8.007  0.2264 -0.2160  0.0610
 1310ERGO   ROH17539  15.439  16.375   6.735  0.1731  0.2299 -0.0889
 1310ERGO    R117540  15.482  16.385   7.014  0.0756  0.0742 -0.0679
 1310ERGO    R217541  15.561  16.615   7.145  0.0444 -0.0046  0.0843
 1310ERGO    R317542  15.342  16.566   7.297 -0.0105 -0.0723 -0.0141
 1310ERGO    R417543  15.451  16.816   7.404  0.0615 -0.2049  0.2504
 1310ERGO    R517544  15.405  16.636   7.517 -0.0314 -0.3022  0.0713
 1310ERGO    C117545  15.181  16.887   7.698  0.0199 -0.3851  0.2547
 1310ERGO    C217546  15.060  16.911   7.934 -0.1088  0.2590 -0.0361
 1311ERGO   ROH17547   2.769   4.457   6.373  0.0236 -0.2535 -0.1753
 1311ERGO    R117548   2.795   4.499   6.652  0.1051 -0.0257 -0.2149
 1311ERGO    R217549   2.730   4.306   6.839 -0.0453  0.1979 -0.0273
 1311ERGO    R317550   2.984   4.350   6.925  0.0113  0.0439 -0.1119
 1311ERGO    R417551   2.849   4.223   7.153 -0.0008  0.1592 -0.0549
 1311ERGO    R517552   2.958   4.412   7.155  0.1229  0.0887 -0.1115
 1311ERGO    C117553   3.156   4.217   7.417  0.0783 -0.0080 -0.1503
 1311ERGO    C217554   3.266   4.107   7.782  0.2593 -0.0184 -0.1748
 1312ERGO   ROH17555   2.662  13.437   6.231 -0.0917  0.0913 -0.0160
 1312ERGO    R117556   2.558  13.568   6.459 -0.0349  0.1541 -0.0271
 1312ERGO    R217557   2.455  13.430   6.675 -0.0254  0.2176  0.0091
 1312ERGO    R317558   2.634  13.580   6.815  0.0157  0.2145 -0.0374
 1312ERGO    R417559   2.407  13.544   6.998  0.0894  0.1257  0.0603
 1312ERGO    R517560   2.498  13.733   6.939  0.0345  0.1628  0.0606
 1312ERGO    C117561   2.547  13.751   7.317  0.1949  0.0694  0.0463
 1312ERGO    C217562   2.410  13.913   7.545  0.1171 -0.1217  0.0848
 1313ERGO   ROH17563   8.443   6.767   6.593  0.0690 -0.0591  0.1218
 1313ERGO    R117564   8.276   6.870   6.797 -0.0794 -0.1531  0.0487
 1313ERGO    R217565   8.080   6.718   6.920  0.0691 -0.3173  0.0810
 1313ERGO    R317566   8.209   6.793   7.147 -0.0531 -0.0732  0.0723
 1313ERGO    R417567   7.936   6.730   7.233  0.0152 -0.4267  0.0613
 1313ERGO    R517568   8.044   6.916   7.270 -0.2398 -0.2608  0.0193
 1313ERGO    C117569   7.972   6.809   7.629 -0.1307 -0.2612  0.0417
 1313ERGO    C217570   8.028   6.536   7.890  0.1152 -0.1437  0.1027
 1314ERGO   ROH17571  18.196   4.004   6.304  0.0262 -0.1276 -0.0290
 1314ERGO    R117572  18.079   4.139   6.523 -0.0450 -0.1426 -0.0590
 1314ERGO    R217573  17.941   4.007   6.723  0.0432 -0.1730 -0.0244
 1314ERGO    R317574  18.116   4.139   6.885 -0.0314 -0.0276 -0.0587
 1314ERGO    R417575  17.920   4.020   7.068  0.1580 -0.2902 -0.0110
 1314ERGO    R517576  17.978   4.230   7.059 -0.0680 -0.2188  0.0193
 1314ERGO    C117577  18.071   4.151   7.420  0.1550 -0.2219 -0.0355
 1314ERGO    C217578  17.945   4.001   7.768 -0.0077  0.0900  0.2302
 1315ERGO   ROH17579  12.254   6.667   5.998  0.2967 -0.0763 -0.0234
 1315ERGO    R117580  12.274   6.822   6.234  0.2466 -0.0261 -0.0515
 1315ERGO    R217581  12.092   6.803   6.441  0.0585  0.1984 -0.1892
 1315ERGO    R317582  12.315   6.758   6.590 -0.0986  0.0366  0.0022
 1315ERGO    R417583  12.111   6.838   6.785 -0.1417  0.4293 -0.1988
 1315ERGO    R517584  12.309   6.926   6.760 -0.0152  0.1718 -0.1283
 1315ERGO    C117585  12.332   6.815   7.124 -0.4057  0.4119 -0.0247
 1315ERGO    C217586  12.492   6.676   7.347  0.1072  0.3276  0.0286
 1316ERGO   ROH17587   0.273   3.176   6.147 -0.1724 -0.1421  0.0446
 1316ERGO    R117588   0.384   3.204   6.406 -0.0937  0.0144 -0.0045
 1316ERGO    R217589   0.368   3.440   6.550 -0.1770  0.0585 -0.0814
 1316ERGO    R317590   0.260   3.278   6.741 -0.0157  0.0622  0.0140
 1316ERGO    R417591   0.402   3.486   6.891 -0.0654  0.1870 -0.1096
 1316ERGO    R517592   0.426   3.270   6.913  0.0573  0.2066 -0.0488
 1316ERGO    C117593   0.321   3.360   7.268  0.1510  0.2653 -0.0366
 1316ERGO    C217594   0.229   3.528   7.585  0.0052  0.2364 -0.2124
 1317ERGO   ROH17595   5.895   7.871   6.162  0.0060  0.0593  0.0724
 1317ERGO    R117596   5.851   7.790   6.430  0.0289 -0.0219  0.0516
 1317ERGO    R217597   5.599   7.746   6.533  0.0370 -0.0125  0.0708
 1317ERGO    R317598   5.702   7.504   6.599  0.0035 -0.0527 -0.0213
 1317ERGO    R417599   5.570   7.598   6.843  0.3212  0.0383  0.1249
 1317ERGO    R517600   5.777   7.531   6.825  0.2748 -0.0583 -0.1046
 1317ERGO    C117601   5.650   7.284   7.086  0.4551  0.0301  0.0700
 1317ERGO    C217602   5.657   7.023   7.393  0.4736  0.1266 -0.1684
 1318ERGO   ROH17603  10.492  10.625   6.462 -0.2333  0.1079  0.0458
 1318ERGO    R117604  10.480  10.520   6.725  0.0265  0.0737  0.0467
 1318ERGO    R217605  10.625  10.626   6.934  0.0049  0.2361 -0.0200
 1318ERGO    R317606  10.381  10.639   7.054  0.0449 -0.0683  0.1049
 1318ERGO    R417607  10.574  10.640   7.276  0.1605  0.1178  0.0091
 1318ERGO    R517608  10.405  10.504   7.251  0.3026 -0.0778  0.0716
 1318ERGO    C117609  10.316  10.661   7.587  0.2887 -0.2367  0.1432
 1318ERGO    C217610  10.505  10.788   7.846 -0.0453 -0.3628  0.0523
 1319ERGO   ROH17611   7.805   8.223   6.471 -0.2062 -0.1020 -0.2120
 1319ERGO    R117612   7.614   8.280   6.671 -0.0956  0.0710 -0.1546
 1319ERGO    R217613   7.577   8.119   6.892 -0.2508  0.0417 -0.2053
 1319ERGO    R317614   7.617   8.351   7.028  0.0642 -0.0515 -0.1300
 1319ERGO    R417615   7.514   8.165   7.229 -0.1462  0.0032 -0.1793
 1319ERGO    R517616   7.435   8.362   7.182  0.0954  0.1252 -0.1011
 1319ERGO    C117617   7.516   8.410   7.552  0.2105 -0.1067 -0.0935
 1319ERGO    C217618   7.592   8.679   7.824 -0.1503  0.3714 -0.0932
 1320ERGO   ROH17619   3.105   0.459   6.025  0.0325  0.5381 -0.0369
 1320ERGO    R117620   3.134   0.465   6.307 -0.0143  0.4341 -0.0309
 1320ERGO    R217621   2.922   0.513   6.477 -0.0812  0.1557 -0.0425
 1320ERGO    R317622   3.001   0.279   6.590  0.1196  0.1773 -0.1307
 1320ERGO    R417623   2.925   0.450   6.817 -0.2126 -0.0207 -0.0714
 1320ERGO    R517624   3.115   0.346   6.790 -0.0693  0.2058 -0.0231
 1320ERGO    C117625   3.002   0.193   7.121 -0.1006 -0.1031 -0.1711
 1320ERGO    C217626   2.927   0.293   7.542 -0.0288 -0.2079  0.1093
 1321ERGO   ROH17627  11.068   5.064   6.282  0.0793  0.1677  0.0547
 1321ERGO    R117628  11.157   4.947   6.524  0.0315  0.0671  0.0243
 1321ERGO    R217629  11.155   5.084   6.764  0.0107 -0.0229  0.0750
 1321ERGO    R317630  11.012   4.869   6.849 -0.0241 -0.0403 -0.0259
 1321ERGO    R417631  11.168   4.952   7.083 -0.0454 -0.1471  0.0268
 1321ERGO    R517632  11.162   4.752   6.995 -0.0558 -0.1132 -0.0507
 1321ERGO    C117633  11.041   4.673   7.349 -0.1108 -0.2358 -0.0961
 1321ERGO    C217634  10.992   4.517   7.649 -0.3224 -0.0056  0.2244
 1322ERGO   ROH17635   4.146   5.677   6.121 -0.0201  0.0031  0.0284
 1322ERGO    R117636   4.232   5.541   6.354  0.1417 -0.0422 -0.0567
 1322ERGO    R217637   4.499   5.522   6.425  0.1659  0.2417 -0.0617
 1322ERGO    R317638   4.409   5.626   6.660  0.0266 -0.0187  0.0038
 1322ERGO    R417639   4.686   5.549   6.714  0.1134  0.2546 -0.0291
 1322ERGO    R517640   4.510   5.489   6.828  0.1673 -0.0228 -0.0825
 1322ERGO    C117641   4.711   5.661   7.103 -0.0478  0.0178  0.0514
 1322ERGO    C217642   4.907   5.737   7.327  0.0070  0.1172  0.0038
 1323ERGO   ROH17643   5.695  17.993   6.466 -0.1179 -0.1555 -0.1137
 1323ERGO    R117644   5.696  17.838   6.703 -0.1463  0.0017 -0.0102
 1323ERGO    R217645   5.920  17.810   6.861 -0.1197 -0.0320 -0.0585
 1323ERGO    R317646   5.754  17.898   7.057 -0.0072  0.2008 -0.0636
 1323ERGO    R417647   5.985  17.788   7.200 -0.1458 -0.1078 -0.0579
 1323ERGO    R517648   5.776  17.735   7.232 -0.2236  0.1719 -0.0571
 1323ERGO    C117649   5.867  17.858   7.581 -0.0555  0.0669 -0.0625
 1323ERGO    C217650   6.143  17.861   7.839  0.1268  0.2639 -0.1327
 1324ERGO   ROH17651  14.871   3.954   6.215 -0.0361 -0.0520 -0.1363
 1324ERGO    R117652  14.823   3.957   6.494 -0.0458  0.0079 -0.1374
 1324ERGO    R217653  15.013   4.040   6.676  0.0636 -0.2435 -0.1230
 1324ERGO    R317654  14.815   4.208   6.757  0.2762  0.0219 -0.1393
 1324ERGO    R417655  14.977   4.164   6.997  0.1580 -0.2379 -0.1152
 1324ERGO    R517656  14.762   4.135   6.979  0.1232  0.0646 -0.1656
 1324ERGO    C117657  14.770   4.393   7.260  0.4126  0.0146 -0.1260
 1324ERGO    C217658  14.884   4.337   7.571 -0.0984  0.1808 -0.1769
 1325ERGO   ROH17659   1.940   3.259   6.197  0.1085 -0.1904  0.0909
 1325ERGO    R117660   1.760   3.277   6.414  0.0906 -0.0085  0.0618
 1325ERGO    R217661   1.794   3.134   6.648 -0.0565  0.0044  0.0902
 1325ERGO    R317662   1.775   3.380   6.763  0.1216  0.0410  0.0461
 1325ERGO    R417663   1.785   3.192   6.989 -0.1025  0.0656  0.0793
 1325ERGO    R517664   1.633   3.345   6.953  0.0369  0.1916  0.0126
 1325ERGO    C117665   1.761   3.457   7.295  0.0379  0.1356  0.0315
 1325ERGO    C217666   1.686   3.480   7.727 -0.0814  0.1134  0.3529
 1326ERGO   ROH17667   4.536   2.516   6.178  0.3202  0.0701 -0.0102
 1326ERGO    R117668   4.649   2.566   6.432  0.2379  0.0450  0.0310
 1326ERGO    R217669   4.513   2.701   6.632  0.1793  0.0368 -0.0059
 1326ERGO    R317670   4.572   2.480   6.777  0.1192  0.0239  0.0002
 1326ERGO    R417671   4.485   2.677   6.975 -0.0297 -0.0127 -0.0244
 1326ERGO    R517672   4.672   2.565   6.978 -0.0142  0.0110  0.0745
 1326ERGO    C117673   4.525   2.455   7.312 -0.2078 -0.0536 -0.0294
 1326ERGO    C217674   4.535   2.274   7.654  0.1127 -0.2155  0.0565
 1327ERGO   ROH17675   9.496   5.529   6.414 -0.0233  0.0653  0.0225
 1327ERGO    R117676   9.488   5.383   6.657 -0.1874  0.0524  0.0109
 1327ERGO    R217677   9.685   5.404   6.849 -0.2016 -0.1272  0.0486
 1327ERGO    R317678   9.475   5.462   7.012 -0.1835  0.0373  0.0140
 1327ERGO    R417679   9.696   5.401   7.195 -0.2349 -0.0365  0.0501
 1327ERGO    R517680   9.498   5.310   7.195 -0.2864  0.0760  0.0586
 1327ERGO    C117681   9.505   5.454   7.548 -0.2373  0.1707  0.0185
 1327ERGO    C217682   9.412   5.594   7.889  0.0269  0.1481  0.1521
 1328ERGO   ROH17683   6.136  16.127   5.892  0.1337 -0.1377 -0.2145
 1328ERGO    R117684   6.098  16.053   6.163 -0.0028 -0.1439 -0.2342
 1328ERGO    R217685   6.274  15.889   6.298 -0.0608 -0.1341 -0.1431
 1328ERGO    R317686   6.279  16.094   6.476 -0.1685 -0.1352 -0.1390
 1328ERGO    R417687   6.372  15.861   6.628  0.1036 -0.0582 -0.1847
 1328ERGO    R517688   6.209  15.994   6.683  0.0064 -0.2051 -0.1122
 1328ERGO    C117689   6.433  16.037   6.988  0.0982 -0.0150 -0.2051
 1328ERGO    C217690   6.553  15.808   7.209  0.2253  0.0401 -0.1677
 1329ERGO   ROH17691   0.437  11.131   6.617 -0.2171  0.0370  0.0444
 1329ERGO    R117692   0.539  11.252   6.851 -0.0522  0.0233 -0.0196
 1329ERGO    R217693   0.407  11.243   7.094  0.0780  0.0795  0.0530
 1329ERGO    R317694   0.644  11.142   7.182  0.0974  0.0165 -0.0681
 1329ERGO    R417695   0.497  11.212   7.426  0.2428  0.0687  0.0087
 1329ERGO    R517696   0.698  11.277   7.372  0.2348  0.0107 -0.1006
 1329ERGO    C117697   0.771  11.100   7.702  0.3570  0.0033 -0.1309
 1329ERGO    C217698   0.850  11.056   7.987 -0.2080 -0.0579  0.0395
 1330ERGO   ROH17699  17.916  11.486   6.084 -0.1624  0.0678  0.1587
 1330ERGO    R117700  17.730  11.390   6.274 -0.2013  0.0457  0.1106
 1330ERGO    R217701  17.802  11.223   6.482 -0.2666 -0.0904  0.0299
 1330ERGO    R317702  17.682  11.413   6.635 -0.1888 -0.1159  0.1228
 1330ERGO    R417703  17.651  11.164   6.787 -0.1950 -0.1530  0.0529
 1330ERGO    R517704  17.492  11.302   6.729 -0.1829 -0.1061  0.1405
 1330ERGO    C117705  17.451  11.309   7.109 -0.0803 -0.2136  0.1534
 1330ERGO    C217706  17.425  11.409   7.475 -0.0692 -0.0865 -0.1861
 1331ERGO   ROH17707   8.828  14.659   5.991  0.1311  0.2124 -0.0815
 1331ERGO    R117708   8.906  14.827   6.205  0.0423  0.2460 -0.0736
 1331ERGO    R217709   8.756  15.044   6.285 -0.1296  0.1082  0.0044
 1331ERGO    R317710   8.769  14.924   6.528  0.0396  0.0716 -0.0234
 1331ERGO    R417711   8.705  15.204   6.587 -0.0606  0.0238  0.0597
 1331ERGO    R517712   8.871  15.088   6.670  0.0283  0.0872 -0.0399
 1331ERGO    C117713   8.689  15.184   6.992  0.1385 -0.0596  0.0658
 1331ERGO    C217714   8.725  15.342   7.320  0.0014  0.1928  0.1069
 1332ERGO   ROH17715  10.446   4.453   6.083  0.1149 -0.0419  0.0405
 1332ERGO    R117716  10.320   4.338   6.309  0.0468 -0.2821 -0.1132
 1332ERGO    R217717  10.412   4.107   6.429  0.3536 -0.1152  0.0069
 1332ERGO    R317718  10.413   4.261   6.653 -0.2240 -0.0887  0.0034
 1332ERGO    R417719  10.425   3.986   6.752  0.5211 -0.0496  0.0243
 1332ERGO    R517720  10.281   4.139   6.810  0.0386 -0.4616 -0.0656
 1332ERGO    C117721  10.434   4.061   7.151  0.0765  0.0134  0.0311
 1332ERGO    C217722  10.462   3.878   7.487 -0.0029 -0.3118  0.4343
 1333ERGO   ROH17723  13.083  13.817   6.503  0.1418  0.0812  0.1123
 1333ERGO    R117724  13.064  13.717   6.768  0.0851  0.1150  0.1220
 1333ERGO    R217725  13.216  13.817   6.976  0.0361  0.1486  0.1467
 1333ERGO    R317726  12.974  13.850   7.094  0.0066  0.1570  0.0825
 1333ERGO    R417727  13.168  13.900   7.308 -0.0516  0.2984  0.0966
 1333ERGO    R517728  13.002  13.759   7.314 -0.0221  0.2701  0.1308
 1333ERGO    C117729  12.913  13.980   7.612 -0.1305  0.3935  0.0070
 1333ERGO    C217730  12.735  14.245   7.774  0.1343  0.0595 -0.0946
 1334ERGO   ROH17731  12.009  11.707   6.371 -0.0364  0.0151 -0.1820
 1334ERGO    R117732  12.117  11.737   6.631  0.0754 -0.1894 -0.2041
 1334ERGO    R217733  11.973  11.846   6.841  0.3220  0.0879 -0.1793
 1334ERGO    R317734  12.040  11.613   6.965 -0.0934 -0.0454 -0.1867
 1334ERGO    R417735  12.026  11.811   7.180  0.3991  0.0237 -0.1967
 1334ERGO    R517736  12.194  11.679   7.136  0.1234 -0.3301 -0.2586
 1334ERGO    C117737  12.120  11.573   7.495  0.0540 -0.1389 -0.2138
 1334ERGO    C217738  12.164  11.611   7.804 -0.1040  0.2048 -0.2913
 1335ERGO   ROH17739  12.031   5.283   6.084  0.1189  0.1785  0.0195
 1335ERGO    R117740  12.134   5.308   6.347 -0.0866  0.2208  0.0994
 1335ERGO    R217741  11.973   5.294   6.572 -0.2334 -0.0133 -0.0064
 1335ERGO    R317742  12.149   5.101   6.646 -0.0720  0.1527  0.0488
 1335ERGO    R417743  11.982   5.144   6.883 -0.3791 -0.2254 -0.1032
 1335ERGO    R517744  12.199   5.151   6.874 -0.3802  0.0523  0.1377
 1335ERGO    C117745  12.152   4.875   7.134 -0.3124 -0.1931 -0.1078
 1335ERGO    C217746  11.978   4.692   7.452  0.0720  0.0701  0.0287
 1336ERGO   ROH17747   5.100   1.152   6.523 -0.1879  0.2024  0.0621
 1336ERGO    R117748   4.986   1.137   6.782 -0.1136  0.0770  0.0879
 1336ERGO    R217749   5.002   0.909   6.938  0.0427  0.0444  0.0250
 1336ERGO    R317750   5.108   1.081   7.120  0.0017  0.0501  0.0431
 1336ERGO    R417751   4.963   0.881   7.280 -0.0340  0.0503  0.0167
 1336ERGO    R517752   4.939   1.098   7.290 -0.0377  0.0521  0.0055
 1336ERGO    C117753   5.039   1.026   7.651 -0.1171  0.0590  0.0289
 1336ERGO    C217754   4.988   0.826   7.875  0.2006 -0.0817 -0.0095
 1337ERGO   ROH17755  11.262  16.902   6.410  0.0555 -0.0758 -0.0651
 1337ERGO    R117756  11.235  16.833   6.683  0.0844 -0.0937 -0.0668
 1337ERGO    R217757  11.423  16.901   6.874  0.0530 -0.0147 -0.0652
 1337ERGO    R317758  11.209  17.011   7.000  0.0041 -0.1119 -0.0622
 1337ERGO    R417759  11.390  16.932   7.216  0.1173  0.1079 -0.0694
 1337ERGO    R517760  11.180  16.877   7.196  0.1484 -0.0511  0.0038
 1337ERGO    C117761  11.169  17.053   7.534  0.1088  0.0880 -0.0691
 1337ERGO    C217762  11.093  17.099   7.916  0.0950  0.0413 -0.2446
 1338ERGO   ROH17763   1.984   5.408   5.966 -0.1355  0.0120  0.0356
 1338ERGO    R117764   2.086   5.441   6.228  0.0310  0.0274 -0.0289
 1338ERGO    R217765   1.942   5.372   6.454  0.0947  0.2219  0.0762
 1338ERGO    R317766   2.163   5.225   6.511  0.0104  0.0674  0.0070
 1338ERGO    R417767   2.059   5.308   6.772  0.3467  0.4406  0.0301
 1338ERGO    R517768   2.262   5.336   6.698  0.3049  0.1692 -0.2038
 1338ERGO    C117769   2.335   5.132   7.012  0.4145  0.4231 -0.0618
 1338ERGO    C217770   2.253   5.014   7.326  0.0127 -0.0243  0.1084
 1339ERGO   ROH17771  14.148   7.416   6.087 -0.1022  0.2678  0.1688
 1339ERGO    R117772  14.246   7.419   6.353  0.0180  0.0769  0.1276
 1339ERGO    R217773  14.371   7.201   6.468  0.2328  0.0530 -0.1466
 1339ERGO    R317774  14.569   7.380   6.516  0.1243  0.1532 -0.0598
 1339ERGO    R417775  14.571   7.203   6.750  0.2294  0.0365 -0.1431
 1339ERGO    R517776  14.557   7.421   6.752  0.0960  0.0311 -0.0376
 1339ERGO    C117777  14.874   7.372   6.959  0.1257  0.1208 -0.0596
 1339ERGO    C217778  15.037   7.260   7.250 -0.0575  0.2806  0.1124
 1340ERGO   ROH17779  14.980  15.089   6.453 -0.0227  0.1102  0.0155
 1340ERGO    R117780  15.121  15.273   6.614 -0.0074  0.1057  0.0054
 1340ERGO    R217781  14.996  15.440   6.795  0.0222  0.0170  0.1012
 1340ERGO    R317782  15.171  15.329   6.971  0.1303  0.0245  0.0015
 1340ERGO    R417783  15.022  15.527   7.128  0.2218  0.0450  0.0804
 1340ERGO    R517784  15.239  15.511   7.110  0.2172  0.0400 -0.0529
 1340ERGO    C117785  15.201  15.472   7.488  0.4395  0.0682 -0.0253
 1340ERGO    C217786  15.304  15.518   7.870 -0.0885 -0.0108  0.2102
 1341ERGO   ROH17787   8.857  14.266   6.204  0.1115 -0.0441  0.2084
 1341ERGO    R117788   8.831  14.440   6.426  0.0939  0.0689  0.1180
 1341ERGO    R217789   8.587  14.500   6.540  0.0914  0.0895  0.0964
 1341ERGO    R317790   8.709  14.416   6.768  0.1136  0.2314  0.1379
 1341ERGO    R417791   8.462  14.548   6.859 -0.0324  0.0275  0.0585
 1341ERGO    R517792   8.665  14.592   6.926 -0.0831  0.2203  0.1017
 1341ERGO    C117793   8.504  14.499   7.259 -0.0837  0.1246  0.0754
 1341ERGO    C217794   8.341  14.351   7.469 -0.2981 -0.1041 -0.4002
 1342ERGO   ROH17795  12.045   2.113   5.628 -0.1454 -0.1396  0.1583
 1342ERGO    R117796  11.977   2.183   5.894 -0.0940 -0.0794  0.1552
 1342ERGO    R217797  11.854   2.006   6.066  0.1053 -0.0996  0.2746
 1342ERGO    R317798  12.064   2.066   6.227  0.1219  0.1253  0.1737
 1342ERGO    R417799  11.848   1.995   6.412  0.3129 -0.2384  0.2759
 1342ERGO    R517800  11.966   2.178   6.415  0.0717 -0.0741  0.2724
 1342ERGO    C117801  12.042   2.044   6.764  0.4493 -0.1083  0.1818
 1342ERGO    C217802  12.090   2.066   7.087  0.2389  0.0616  0.0322
 1343ERGO   ROH17803   8.399   3.681   5.981 -0.1753  0.1962  0.2176
 1343ERGO    R117804   8.460   3.643   6.255 -0.1020  0.1213  0.1911
 1343ERGO    R217805   8.489   3.853   6.432 -0.0774  0.0718  0.2453
 1343ERGO    R317806   8.301   3.717   6.574 -0.0280  0.0122  0.2541
 1343ERGO    R417807   8.472   3.842   6.777 -0.1181  0.1535  0.2465
 1343ERGO    R517808   8.421   3.630   6.762 -0.0083  0.1220  0.2936
 1343ERGO    C117809   8.287   3.707   7.111 -0.0954  0.1451  0.2555
 1343ERGO    C217810   8.241   3.918   7.345 -0.0623  0.3545 -0.1119
 1344ERGO   ROH17811   4.195  11.998   5.982 -0.1918 -0.2353 -0.0440
 1344ERGO    R117812   4.156  11.935   6.256 -0.0371 -0.2667 -0.0287
 1344ERGO    R217813   4.014  12.098   6.427  0.2628 -0.1658  0.1295
 1344ERGO    R317814   3.872  11.870   6.474  0.0690 -0.0378  0.1817
 1344ERGO    R417815   3.809  12.045   6.701  0.3909 -0.0167  0.2569
 1344ERGO    R517816   3.884  11.841   6.711  0.1984 -0.0932  0.1688
 1344ERGO    C117817   3.557  11.801   6.904  0.2835  0.1901  0.3802
 1344ERGO    C217818   3.406  11.681   7.140 -0.2619  0.1944 -0.2330
 1345W        W17819  15.918   1.746  15.800  0.0631 -0.0740  0.2500
 1346W        W17820  17.176  16.975  10.064 -0.1372  0.1767 -0.1230
 1347W        W17821  17.984  13.648   3.690  0.1201 -0.2275  0.0490
 1348W        W17822  10.256   2.323  12.889  0.2502  0.0179 -0.0018
 1349W        W17823  18.313  11.972   2.712 -0.3072  0.0651 -0.0746
 1350W        W17824   3.009   2.413  12.294  0.0212 -0.0988  0.1084
 1351W        W17825   1.950   3.949   5.453 -0.0595  0.0231 -0.1713
 1352W        W17826   5.978  12.721  15.644  0.1994  0.1331  0.0558
 1353W        W17827  16.475  14.948   1.551 -0.2998 -0.1628  0.2078
 1354W        W17828   5.893   1.455   0.714 -0.1908 -0.0043  0.0175
 1355W        W17829   1.257   1.214   3.653 -0.0039 -0.0384  0.1766
 1356W        W17830   4.631   6.176  10.170 -0.0250 -0.0441 -0.1088
 1357W        W17831   7.927   7.351  14.757 -0.1738 -0.1108  0.2401
 1358W        W17832  15.045   4.794   3.675  0.1307 -0.3647 -0.0776
 1359W        W17833   4.589   9.181   0.897  0.1095 -0.1234 -0.0160
 1360W        W17834   8.288  10.949   4.900 -0.0300 -0.1260  0.0559
 1361W        W17835   7.580  17.301  13.857  0.2123 -0.1236 -0.1024
 1362W        W17836   8.686   2.117  15.133  0.1603 -0.2370  0.0421
 1363W        W17837   3.960  13.963  14.544  0.0277  0.0523  0.1312
 1364W        W17838  10.688   5.027   3.335 -0.1766 -0.1338 -0.1511
 1365W        W17839   2.200  12.345   5.216  0.0874 -0.2929  0.2247
 1366W        W17840  17.871   2.486   3.192  0.0564  0.1905 -0.2979
 1367W        W17841   1.135  15.056   1.752  0.0291 -0.0734  0.1813
 1368W        W17842   2.722   9.865   5.107  0.3741  0.1414  0.2716
 1369W        W17843   6.004  15.615  14.747  0.0899 -0.2029  0.3151
 1370W        W17844  15.289  12.102  14.725  0.0954 -0.3177  0.2288
 1371W        W17845   7.912   6.673   3.490  0.0302  0.4584 -0.0950
 1372W        W17846   7.129   5.383   2.003  0.0244  0.0394  0.0518
 1373W        W17847   1.429   7.894   0.096 -0.2578  0.0304  0.0393
 1374W        W17848  16.124   0.511  14.083 -0.0633  0.3457 -0.1802
 1375W        W17849   7.997   4.418  12.824  0.3399  0.0494  0.0701
 1376W        W17850  10.088  12.238   1.312  0.1707  0.1567  0.0831
 1377W        W17851  11.866   8.056  15.781 -0.0044 -0.0258  0.1711
 1378W        W17852  16.237  16.010   0.204  0.1853 -0.1670 -0.2859
 1379W        W17853   8.429   7.760  11.790  0.1626 -0.0246  0.1779
 1380W        W17854  11.405   5.174   1.982 -0.1741 -0.0577  0.5609
 1381W        W17855  11.319  16.526  15.123  0.2199  0.0808  0.1649
 1382W        W17856   1.728  13.479  15.208 -0.0318 -0.0514 -0.0933
 1383W        W17857  17.400   4.421   1.061 -0.1238  0.2370  0.0441
 1384W        W17858  12.014   7.999  13.101 -0.0072  0.3979 -0.3189
 1385W        W17859  14.011  17.757   0.379 -0.3297  0.0894  0.0698
 1386W        W17860   9.440  13.193  14.277  0.0457 -0.0892  0.3395
 1387W        W17861   4.392   6.265   4.372 -0.1368 -0.0234  0.2054
 1388W        W17862  14.478   9.512  14.731  0.3107 -0.0941 -0.0206
 1389W        W17863  17.629   3.808  12.256  0.2604 -0.0509 -0.1671
 1390W        W17864   8.821   0.501   4.711 -0.2247  0.2386  0.1537
 1391W        W17865   0.707  11.688  15.132 -0.0901  0.2676 -0.0272
 1392W        W17866   6.098   6.901   3.878  0.1776 -0.2908  0.2918
 1393W        W17867   1.577   0.439   3.926  0.1657  0.1348 -0.2716
 1394W        W17868   9.761  10.482  15.048  0.0479 -0.1541 -0.0013
 1395W        W17869   5.078  14.604   4.413  0.0431 -0.0736 -0.3958
 1396W        W17870  12.903  11.600  15.558 -0.0211 -0.0843  0.0087
 1397W        W17871   2.223  16.558   4.960  0.0327 -0.0176 -0.0393
 1398W        W17872   4.067   5.356  15.908  0.4405  0.3026 -0.1665
 1399W        W17873   5.534  14.490  12.877  0.2625 -0.0776 -0.2156
 1400W        W17874  10.037  11.934  12.918  0.0680  0.0768  0.2073
 1401W        W17875   2.254   3.508  15.011  0.0887  0.1154  0.4502
 1402W        W17876  10.064  14.149   4.588  0.1719 -0.0178 -0.2589
 1403W        W17877  10.599  12.466   1.934 -0.2824  0.0312  0.1841
 1404W        W17878  12.250  17.395   6.087 -0.3215  0.3557  0.3220
 1405W        W17879   6.993  17.828  13.127  0.2507 -0.1500 -0.0230
 1406W        W17880  17.285   2.277   3.524 -0.0992  0.6129  0.0118
 1407W        W17881   6.545  15.658  11.665 -0.1306  0.1315  0.0946
 1408W        W17882   3.333   5.404   2.455  0.0724  0.1515  0.1099
 1409W        W17883  18.059  13.126   3.009 -0.2007 -0.2474 -0.3052
 1410W        W17884   8.448  12.982  12.848  0.1359 -0.0872  0.1423
 1411W        W17885  14.788  14.277  11.790 -0.0048 -0.3297  0.1576
 1412W        W17886   4.287   2.061  12.778 -0.2437 -0.3386 -0.0578
 1413W        W17887  18.435   4.202  11.517 -0.0773  0.3234  0.1858
 1414W        W17888   7.932  11.725  13.458  0.1064  0.1091 -0.0120
 1415W        W17889   9.579  16.674   4.716  0.2123  0.0315  0.0328
 1416W        W17890   8.811   5.071  11.926 -0.1913 -0.0974  0.1307
 1417W        W17891  15.503  17.005  10.742  0.0028 -0.0158 -0.1252
 1418W        W17892  15.129  16.352   4.546  0.0488  0.0342 -0.0029
 1419W        W17893  13.225  11.825   5.232 -0.0366 -0.2185 -0.2005
 1420W        W17894   1.211  16.249  11.102 -0.3910 -0.0629 -0.0524
 1421W        W17895   5.397  17.939  15.927  0.0359 -0.1534  0.1797
 1422W        W17896   1.948  18.173   2.331 -0.0909 -0.4145 -0.1277
 1423W        W17897   4.026  16.598   4.862  0.0865  0.2089 -0.0038
 1424W        W17898   7.403   7.227  15.740 -0.1247  0.2563  0.0094
 1425W        W17899   6.065   8.315   2.804  0.0436 -0.2834 -0.0871
 1426W        W17900   5.728   7.080   2.381  0.1472 -0.1064 -0.0906
 1427W        W17901   9.075   4.208  11.232 -0.0993  0.0245  0.0377
 1428W        W17902   6.686  14.769   9.990 -0.0263  0.0686 -0.3149
 1429W        W17903   4.740   2.215  13.725  0.1176 -0.2803  0.1386
 1430W        W17904  12.319   6.819  14.860  0.1515  0.3235  0.1482
 1431W        W17905  17.414   9.836   3.441 -0.1676 -0.2299 -0.1290
 1432W        W17906   5.257   8.607  14.732  0.1290  0.3820 -0.3075
 1433W        W17907  12.477   6.633   0.273 -0.0063  0.2816 -0.0522
 1434W        W17908   3.201  14.531  15.575  0.1318  0.1830  0.0272
 1435W        W17909  14.995  14.172   1.916  0.0945  0.1741 -0.2201
 1436W        W17910  10.509  16.684   4.166  0.0012  0.1753  0.1138
 1437W        W17911   9.839   1.143  15.015  0.2645 -0.2023  0.0761
 1438W        W17912  13.459  18.134   0.817  0.2314 -0.3019 -0.2122
 1439W        W17913  15.818   1.973  14.791  0.1285 -0.0088 -0.0339
 1440W        W17914   9.421   8.235  14.712  0.0996  0.1578 -0.1730
 1441W        W17915   0.648  13.163   4.625  0.2103 -0.0421  0.0788
 1442W        W17916   6.833   5.787   0.474  0.0776  0.1560  0.0257
 1443W        W17917  10.320  14.508  15.935  0.1180 -0.0222 -0.0524
 1444W        W17918   5.384  16.071   5.100  0.0045  0.0171 -0.1218
 1445W        W17919  15.427  10.012   2.367 -0.0352 -0.2134 -0.1392
 1446W        W17920  10.755  17.139   4.751 -0.2138  0.1416  0.0628
 1447W        W17921   8.817   0.416  11.127  0.3517  0.0472 -0.1849
 1448W        W17922   9.865   1.154   1.912  0.1300 -0.1639  0.2030
 1449W        W17923   6.228   2.721  14.439  0.2190  0.1072  0.1751
 1450W        W17924   0.537  18.269  12.079 -0.0257 -0.1454  0.6027
 1451W        W17925  18.115  15.657   2.028  0.1639  0.0457 -0.1916
 1452W        W17926   2.216  16.076   2.573  0.2582 -0.1610  0.1762
 1453W        W17927   5.022  11.631  12.407  0.0017 -0.0576 -0.0204
 1454W        W17928  18.467   1.669  13.597 -0.1232  0.0459  0.0020
 1455W        W17929  18.439   3.792   4.023  0.0952  0.0270 -0.3694
 1456W        W17930  17.419   7.418  11.244  0.1150  0.1764 -0.0970
 1457W        W17931   0.527   0.299   3.623 -0.1302  0.0426  0.0283
 1458W        W17932   1.607  13.080   1.983  0.1914 -0.2677  0.0177
 1459W        W17933   8.804   4.795   2.100 -0.0607 -0.2689 -0.1455
 1460W        W17934  16.535  12.854  15.894 -0.0407  0.0851  0.1961
 1461W        W17935   5.515   6.087  10.509 -0.1391  0.1546 -0.1079
 1462W        W17936  10.221  17.837  13.439  0.3424  0.2732 -0.1141
 1463W        W17937   0.552  15.926  12.428  0.0423  0.2423 -0.2278
 1464W        W17938  15.441   7.779   2.934 -0.1484  0.0552  0.2100
 1465W        W17939   5.978   3.962   1.575 -0.0603  0.0792  0.3943
 1466W        W17940  17.205   8.117  13.752  0.0985 -0.0964 -0.0909
 1467W        W17941   6.017  17.406  12.267 -0.1165  0.4713 -0.0285
 1468W        W17942   6.015  18.219   5.018 -0.2535  0.0690  0.2940
 1469W        W17943   8.799  11.179  14.432  0.1749 -0.3776  0.2702
 1470W        W17944   4.808   1.558   2.338 -0.0990 -0.1417  0.3932
 1471W        W17945  10.012  12.925  14.411  0.0420  0.1510 -0.0226
 1472W        W17946   7.753  17.200   1.891 -0.0935 -0.2975 -0.1042
 1473W        W17947   1.758   0.321  12.173 -0.2378 -0.2443 -0.0184
 1474W        W17948  14.208  12.346   3.735 -0.4894  0.0783 -0.0062
 1475W        W17949   1.246  14.565  15.964  0.0606 -0.0493 -0.0745
 1476W        W17950   7.831  11.232   9.908  0.1210  0.1839  0.2498
 1477W        W17951  14.480   3.510   3.839  0.2140  0.0870  0.2483
 1478W        W17952  13.491  11.386   3.506  0.2489 -0.1015 -0.3848
 1479W        W17953  13.139   9.586  15.375  0.2213  0.3489  0.2725
 1480W        W17954   7.033   8.346   2.057 -0.5389 -0.0616  0.3870
 1481W        W17955   6.301  12.163  10.539  0.0044  0.0189  0.1933
 1482W        W17956   4.210   5.936   1.366 -0.0211 -0.0535  0.1352
 1483W        W17957  14.753  12.453  12.120 -0.0393 -0.0508 -0.1363
 1484W        W17958  11.504  16.916   2.621  0.1541 -0.2062  0.3453
 1485W        W17959  15.252   3.939  14.748 -0.1445  0.0003  0.0825
 1486W        W17960   5.409   4.666   5.366  0.0865  0.0814  0.0255
 1487W        W17961  13.544  14.184   5.510  0.2793  0.1190 -0.2498
 1488W        W17962   7.594   5.851   1.182  0.1267 -0.0670 -0.0787
 1489W        W17963   5.438   5.703  11.201  0.0555 -0.1365  0.0046
 1490W        W17964   0.567  10.937   4.100  0.1234 -0.1380  0.1712
 1491W        W17965  15.944   2.255  12.614  0.1804 -0.0243 -0.3094
 1492W        W17966  11.347   2.516  13.237  0.0266  0.1662 -0.0137
 1493W        W17967  13.946   4.709  11.403 -0.0053  0.1389  0.0569
 1494W        W17968   3.853  15.840  12.064  0.1334  0.2037 -0.0555
 1495W        W17969   9.506  18.147   2.968  0.1042 -0.2417 -0.1443
 1496W        W17970   5.702  17.556  13.668 -0.0248 -0.0834 -0.1632
 1497W        W17971   7.538   5.466  14.577 -0.1898  0.4285  0.0862
 1498W        W17972  14.500   7.288   5.207 -0.1003  0.3298 -0.2761
 1499W        W17973  11.040   8.499   0.844 -0.1542  0.1484 -0.0431
 1500W        W17974  17.841  16.112   3.732 -0.0646  0.0667 -0.3350
 1501W        W17975  14.583   0.692  15.747  0.0842  0.1391  0.3331
 1502W        W17976   1.247   3.843  13.564 -0.1414 -0.2470  0.1034
 1503W        W17977  10.831   0.740   3.567  0.0950  0.4004  0.0148
 1504W        W17978   3.520  11.523   4.776  0.2205  0.0847  0.0705
 1505W        W17979   4.461   7.844   4.197  0.0923 -0.1910  0.3871
 1506W        W17980   6.241  14.893  12.389  0.1666  0.0051  0.0646
 1507W        W17981   7.727   4.353   4.875  0.0842 -0.1274 -0.3443
 1508W        W17982   7.044   7.082   6.149 -0.0041 -0.0316  0.2615
 1509W        W17983  11.669   2.346   1.617 -0.2341 -0.1310  0.1022
 1510W        W17984   5.619   2.597  15.164  0.2083  0.0897  0.2458
 1511W        W17985   5.490   1.920   4.415 -0.2306 -0.0829 -0.2393
 1512W        W17986   6.031  11.675  10.727 -0.0053  0.0927  0.2573
 1513W        W17987  10.370   1.552  12.718  0.3384  0.1376  0.0308
 1514W        W17988   4.766   9.110  14.320 -0.0420 -0.0059  0.2688
 1515W        W17989  15.749   2.659  12.091 -0.0290 -0.0196  0.2182
 1516W        W17990   3.783  17.277  14.410 -0.2143  0.1418  0.2975
 1517W        W17991  16.785   3.553  12.203  0.0597  0.0574  0.1045
 1518W        W17992   8.582   5.150   3.660 -0.1412  0.1072 -0.0163
 1519W        W17993   4.221   8.879  14.174 -0.2290  0.2325  0.3204
 1520W        W17994   4.685   4.399   3.524  0.1694  0.0457 -0.2497
 1521W        W17995   4.417  15.487   1.901  0.4099 -0.1070  0.0725
 1522W        W17996  17.741   5.582   0.454  0.0105 -0.0485 -0.2220
 1523W        W17997   1.989  15.572  12.133  0.3474  0.2087 -0.1183
 1524W        W17998   6.395  12.367  13.419 -0.1197  0.0730 -0.1423
 1525W        W17999   7.574  17.461   3.461 -0.1031  0.0887 -0.2009
 1526W        W18000   8.525   2.528  14.910 -0.0294  0.2864  0.0499
 1527W        W18001   6.894  10.877  11.611 -0.0007 -0.0262  0.0677
 1528W        W18002  11.714  15.687  14.054 -0.0883 -0.2035  0.1474
 1529W        W18003  14.228  11.752   5.204 -0.0039 -0.0109  0.1928
 1530W        W18004   5.654  12.107   2.795  0.0609  0.1176 -0.0417
 1531W        W18005  17.601  12.088   3.300  0.0528 -0.3734  0.0943
 1532W        W18006   4.015  14.436   2.454  0.0321  0.0741  0.1379
 1533W        W18007   8.219   9.471  11.259 -0.1457 -0.0996 -0.0624
 1534W        W18008   2.444   8.504   5.666 -0.3144  0.1372  0.1299
 1535W        W18009   4.068   4.397  13.231 -0.0108 -0.1612  0.2426
 1536W        W18010   9.598   7.703   3.604 -0.1206 -0.1080 -0.0096
 1537W        W18011   4.426  14.185  13.728  0.3831  0.0656 -0.0389
 1538W        W18012  12.866   1.888   1.509  0.0553  0.1340  0.2373
 1539W        W18013   9.067   1.400   3.948 -0.6582  0.1449 -0.0669
 1540W        W18014   5.703  12.083   5.758  0.2284 -0.1981  0.2675
 1541W        W18015  10.344  13.602   4.124 -0.1975  0.0891 -0.1154
 1542W        W18016  11.325   2.933   3.579 -0.1252 -0.2892  0.3777
 1543W        W18017  15.033   8.784  12.038 -0.1149  0.1174 -0.4050
 1544W        W18018  15.090  13.268  13.745 -0.1267 -0.0483  0.2051
 1545W        W18019   8.681  16.935   2.742 -0.0513  0.0689  0.0654
 1546W        W18020  11.564  13.444  15.814 -0.0779 -0.1456 -0.4434
 1547W        W18021   8.537  13.045   1.809  0.0233  0.0430 -0.2742
 1548W        W18022  10.728   0.390  15.125 -0.0437  0.0267 -0.2891
 1549W        W18023  13.687   0.072  15.028  0.1337  0.0527  0.2840
 1550W        W18024   5.718   3.028   6.387  0.0186  0.2292 -0.0433
 1551W        W18025   9.659   6.978   3.026  0.3035  0.1276  0.1933
 1552W        W18026  17.902   8.787   3.040  0.0619  0.0570  0.0571
 1553W        W18027  13.841  10.561  14.864 -0.1560  0.1215  0.1507
 1554W        W18028   1.478   3.931   5.198 -0.1125  0.1137  0.1214
 1555W        W18029  13.321   6.531   3.692  0.0240 -0.1960  0.4810
 1556W        W18030  12.576   8.194   1.777 -0.0215  0.3573 -0.2988
 1557W        W18031  12.819  14.825  12.299 -0.0864 -0.2155 -0.0001
 1558W        W18032   4.631   7.768  11.743 -0.2582  0.0154  0.1495
 1559W        W18033   0.032   6.436  13.594  0.1434 -0.2256  0.2782
 1560W        W18034   5.318   6.626   3.075 -0.1345 -0.0487 -0.2146
 1561W        W18035   8.130   0.243  15.873  0.4538  0.1268 -0.0614
 1562W        W18036   1.478   3.743  14.563  0.2560  0.1664 -0.0236
 1563W        W18037   0.543  13.196   1.116 -0.1676 -0.0108  0.2076
 1564W        W18038   5.994  17.984   3.696  0.0923  0.0397  0.2280
 1565W        W18039   0.749  14.662   4.177 -0.1299 -0.3167 -0.4265
 1566W        W18040   7.765   3.228   0.087  0.2359 -0.1393  0.2293
 1567W        W18041   8.667   5.611   0.476 -0.0608  0.0074  0.0400
 1568W        W18042  18.248  13.531  11.329  0.1164  0.0004  0.0741
 1569W        W18043  16.412  10.469   5.732  0.0753  0.0836  0.1233
 1570W        W18044   2.229  16.930  11.770  0.0908  0.0799  0.1919
 1571W        W18045  14.711   3.877   4.221 -0.1717  0.2807 -0.0936
 1572W        W18046  17.165   7.446  14.305  0.2450 -0.2055 -0.0163
 1573W        W18047   4.492  14.624  12.089  0.0104 -0.2889 -0.0028
 1574W        W18048   1.562   4.424  11.512 -0.3193 -0.2747 -0.1643
 1575W        W18049  14.186  14.569   6.113 -0.2070  0.1530  0.1460
 1576W        W18050   1.388  17.268   0.329 -0.0861 -0.0520 -0.2146
 1577W        W18051  15.586  17.445  11.571  0.1761 -0.0572  0.0057
 1578W        W18052   5.123  14.235  15.622 -0.2055 -0.0380  0.1589
 1579W        W18053  13.039  16.666  13.995 -0.0798 -0.1497 -0.1511
 1580W        W18054  10.693   9.787  15.887  0.1263 -0.0553  0.0381
 1581W        W18055  16.972   8.995   1.559 -0.0989  0.0398  0.0439
 1582W        W18056   4.251   7.579  14.767  0.0844 -0.3681  0.0381
 1583W        W18057  10.640   1.750   2.785 -0.1390  0.2522 -0.1798
 1584W        W18058   2.187  10.327  15.216  0.2883 -0.0672  0.2459
 1585W        W18059  10.934   3.413   2.509  0.2017 -0.0373  0.0230
 1586W        W18060   1.064  13.664  10.204  0.2743 -0.2179  0.1064
 1587W        W18061   0.676  14.852   5.441 -0.1265  0.1311 -0.0354
 1588W        W18062  18.324  11.258  12.810  0.0206  0.0585 -0.0292
 1589W        W18063   7.578  14.097  15.712 -0.0421  0.1380 -0.4223
 1590W        W18064   1.564   2.286   0.609  0.0346 -0.1927 -0.3041
 1591W        W18065  13.376   3.305   4.773  0.1135  0.0150  0.2690
 1592W        W18066   8.564  11.642  12.497 -0.2266  0.2233 -0.0759
 1593W        W18067   8.129   5.270  14.764  0.1010 -0.1988  0.0809
 1594W        W18068   0.434  12.953  13.913  0.0309  0.0597 -0.5087
 1595W        W18069   7.202  16.638   5.144  0.0045 -0.2542  0.0203
 1596W        W18070  13.561   7.836  14.745 -0.1549  0.1697 -0.1522
 1597W        W18071   4.408   5.427   1.253 -0.0606  0.1638  0.1814
 1598W        W18072   6.287   2.817   2.612 -0.0620 -0.1112  0.0845
 1599W        W18073  12.295  12.625  10.762 -0.4241 -0.1479  0.2891
 1600W        W18074   0.913   1.822   2.470 -0.1517  0.1379 -0.1133
 1601W        W18075   2.986   5.325   2.930 -0.2427 -0.1466 -0.2226
 1602W        W18076  17.012  11.755  13.830 -0.0353  0.0305  0.2612
 1603W        W18077   0.912   5.865  11.043 -0.1674 -0.1156 -0.0061
 1604W        W18078  15.857   3.190   1.429  0.3025  0.3956  0.0889
 1605W        W18079   4.925   0.705   4.316  0.0523 -0.1408 -0.0506
 1606W        W18080   3.534  10.957  14.493 -0.2145 -0.0500  0.0706
 1607W        W18081  16.925   4.913  12.039  0.1714  0.3684  0.1127
 1608W        W18082   8.385   9.670  10.626  0.1401 -0.0807 -0.0484
 1609W        W18083   1.634   3.158   2.865  0.0252  0.0064  0.0878
 1610W        W18084  16.687  16.422   2.860  0.2227 -0.2374 -0.1008
 1611W        W18085   0.199   0.674  11.810 -0.0227  0.1793  0.1075
 1612W        W18086  11.076  10.227  13.998  0.0735 -0.2544 -0.1022
 1613W        W18087  14.031  18.374  11.409 -0.1182 -0.0523 -0.2850
 1614W        W18088   8.099  10.391  12.187  0.2157  0.3478 -0.0626
 1615W        W18089  11.344   9.464   4.043 -0.0832 -0.2617 -0.1648
 1616W        W18090   7.037  15.280  14.439  0.0132 -0.2207 -0.0198
 1617W        W18091  10.476  12.297  11.484  0.2017 -0.0168 -0.1422
 1618W        W18092  14.180   4.236  13.728 -0.1562  0.0698 -0.2112
 1619W        W18093  11.982  17.358  13.271 -0.2260 -0.0379 -0.1981
 1620W        W18094  16.246   2.730  11.949 -0.2370  0.0447 -0.0196
 1621W        W18095   7.824   5.867   4.664 -0.0580 -0.0347 -0.1058
 1622W        W18096   1.343   8.075  13.723 -0.1194 -0.3204  0.1839
 1623W        W18097  15.563   0.049   0.326  0.0876 -0.2856  0.4011
 1624W        W18098   6.401   4.489   4.147  0.0702  0.1742 -0.1801
 1625W        W18099   9.701   0.978   1.248 -0.1289 -0.4132  0.0244
 1626W        W18100  15.287   5.659  14.466  0.2610 -0.2578 -0.1597
 1627W        W18101   2.848  10.057   2.807 -0.1325  0.1635 -0.0991
 1628W        W18102  15.220   2.654  10.844  0.0885  0.0352  0.0016
 1629W        W18103  13.177   3.294   3.488 -0.0915  0.2707 -0.0062
 1630W        W18104  10.522  16.867  14.622 -0.1140  0.0253 -0.1106
 1631W        W18105   1.336   0.539   5.269 -0.1386 -0.2427  0.0537
 1632W        W18106   9.902   9.067  15.623 -0.0178 -0.0516  0.4175
 1633W        W18107  15.171   4.246  12.030 -0.2520  0.1397  0.0262
 1634W        W18108  12.508  18.209   5.053  0.0443  0.1301  0.3175
 1635W        W18109  15.802   3.600   0.936 -0.0883  0.0611  0.1261
 1636W        W18110  16.469  12.569   1.664 -0.5252 -0.0420 -0.1252
 1637W        W18111  15.275   2.081  14.352  0.1195  0.0160  0.3741
 1638W        W18112   5.227  14.411  12.434  0.0013  0.1960 -0.3367
 1639W        W18113   4.573   4.610  13.115 -0.1339  0.0109 -0.1036
 1640W        W18114  12.938   8.708   4.103 -0.0020  0.0412 -0.0656
 1641W        W18115   2.125  14.296  15.036 -0.1295 -0.0148  0.0329
 1642W        W18116  12.300  17.412  12.912  0.2054  0.1219  0.0364
 1643W        W18117  16.778   9.723   1.188 -0.1370 -0.1224  0.1455
 1644W        W18118   5.537  14.639   0.342  0.1251  0.3666  0.2826
 1645W        W18119  15.887   1.879   0.304  0.1640 -0.1080  0.2920
 1646W        W18120   4.595   7.484   3.344  0.2226 -0.2158 -0.1945
 1647W        W18121  13.562  15.450  11.281 -0.1485  0.0180  0.2048
 1648W        W18122   5.140  12.740  15.786  0.1715 -0.0573  0.1040
 1649W        W18123   0.870  14.104   1.356 -0.1947  0.0544  0.1066
 1650W        W18124   3.243  18.045   2.566  0.0112 -0.2478  0.3607
 1651W        W18125  11.425  12.048  13.020 -0.2565 -0.3858  0.5360
 1652W        W18126   4.468   9.974  15.093  0.1296 -0.1690  0.3271
 1653W        W18127  14.620   1.059   5.226  0.3594  0.0752  0.0458
 1654W        W18128   3.799  18.088  15.051  0.0267 -0.1398  0.0006
 1655W        W18129   8.950  11.420  15.645 -0.0198 -0.0748 -0.1414
 1656W        W18130   2.408  15.036   0.113  0.1166 -0.0292 -0.0742
 1657W        W18131  15.886   0.072  12.935  0.0990  0.0423  0.2138
 1658W        W18132   0.294   7.544  12.864 -0.0189 -0.0201  0.0163
 1659W        W18133   3.447   3.245  13.474 -0.1408 -0.0255  0.0398
 1660W        W18134   1.813   0.043   3.762 -0.0877  0.3831 -0.1635
 1661W        W18135   5.067   0.525  15.212  0.0318  0.2247  0.2114
 1662W        W18136  14.248  16.268  15.070  0.1596  0.0542  0.2757
 1663W        W18137  16.046  16.483   4.499 -0.2757  0.0499  0.1396
 1664W        W18138  17.704   0.111   5.104 -0.2222  0.1297 -0.0257
 1665W        W18139  16.347   8.425  15.840 -0.0290  0.1354  0.1096
 1666W        W18140   6.694   6.257   3.589 -0.1126 -0.3040  0.0599
 1667W        W18141   5.620  15.884   3.873 -0.0904  0.2341  0.1079
 1668W        W18142  11.414  10.509   4.996 -0.1977  0.0831 -0.0017
 1669W        W18143  16.095   9.110   3.975 -0.0377  0.0422 -0.0662
 1670W        W18144  10.832   9.073   1.044  0.0041 -0.0604 -0.1675
 1671W        W18145   6.387   1.579   4.799 -0.3411  0.4527  0.0131
 1672W        W18146   0.371   6.793   4.275 -0.0492  0.0472  0.0421
 1673W        W18147  16.277   4.202  15.201  0.1211  0.1820 -0.0854
 1674W        W18148   7.364   6.325  13.457  0.0594  0.0230 -0.1906
 1675W        W18149  10.006   8.318  13.437 -0.3113  0.2001  0.0878
 1676W        W18150   7.283   3.127  10.073 -0.0409 -0.3799 -0.2262
 1677W        W18151   2.790   9.695   0.983 -0.0811 -0.3499  0.2658
 1678W        W18152   0.685   1.295  13.270  0.0371  0.0702  0.2633
 1679W        W18153  16.885   5.831   2.429 -0.2486  0.0921  0.0396
 1680W        W18154   0.119   7.039  12.211 -0.4239 -0.0064  0.1235
 1681W        W18155  13.005  17.094   0.592 -0.2135 -0.1590 -0.2785
 1682W        W18156   5.477  14.273  14.951  0.2147 -0.1649 -0.0931
 1683W        W18157   9.144  15.671   2.807 -0.0755 -0.0956 -0.1341
 1684W        W18158  13.852   0.317  13.123  0.0960  0.0701  0.0234
 1685W        W18159   3.096   7.600  13.992  0.3843 -0.0898 -0.2367
 1686W        W18160   4.889   0.510   1.393  0.0780 -0.0484 -0.1055
 1687W        W18161   1.232  14.013   3.004 -0.3557  0.1147  0.1917
 1688W        W18162  10.153   0.583  14.317  0.1696  0.1275 -0.0198
 1689W        W18163   7.676  18.428   1.985 -0.2383  0.2371 -0.0184
 1690W        W18164   5.758  10.242  15.787  0.1190  0.1750  0.1325
 1691W        W18165   8.587  17.927   1.774 -0.0384  0.1048  0.4972
 1692W        W18166   0.731   0.486  15.623  0.0954  0.2490 -0.0648
 1693W        W18167   9.750   4.462  12.519 -0.2892  0.2153  0.0482
 1694W        W18168   5.504  12.510   0.023 -0.1536 -0.2370  0.2871
 1695W        W18169   2.524   4.895  11.414  0.1279  0.5294 -0.1066
 1696W        W18170   7.417   4.551  11.356 -0.3300 -0.0026 -0.3127
 1697W        W18171   1.354  11.253   0.269  0.0753  0.1127 -0.2535
 1698W        W18172  10.556  13.304  13.600  0.1178 -0.2292  0.3625
 1699W        W18173   4.670  15.736  11.548 -0.0076 -0.1241 -0.1659
 1700W        W18174   4.827   5.140  11.475  0.0960 -0.2252 -0.2841
 1701W        W18175  18.422  14.984   4.159  0.0308 -0.1699  0.1639
 1702W        W18176   1.421  17.276   1.715  0.2801  0.0231 -0.0103
 1703W        W18177   8.892   7.658  13.392  0.1021  0.1138 -0.2915
 1704W        W18178   2.536  18.408  15.098 -0.2574 -0.0924 -0.1217
 1705W        W18179   5.131  14.742   1.554 -0.2254  0.0529  0.1991
 1706W        W18180   4.214   3.863  14.463  0.2375 -0.1402 -0.4681
 1707W        W18181  11.790  10.617  15.628  0.0213  0.0806  0.0961
 1708W        W18182  15.991  10.486   1.409 -0.1939 -0.2475  0.1057
 1709W        W18183  14.021  14.647   4.690 -0.2354  0.2414 -0.1041
 1710W        W18184   7.751  14.618  13.316 -0.2686 -0.1329  0.0173
 1711W        W18185   5.515  11.670  13.910 -0.1220  0.2159 -0.2795
 1712W        W18186   5.303  16.771   3.781 -0.1466 -0.0168  0.3903
 1713W        W18187  11.869   0.102   4.203 -0.2512 -0.1674 -0.2419
 1714W        W18188  11.082  17.387   1.928 -0.1375 -0.1252 -0.0176
 1715W        W18189  15.715   5.682   0.093  0.2180 -0.0785  0.1467
 1716W        W18190  14.094   8.335  11.781  0.0310  0.0660  0.1391
 1717W        W18191  18.129   3.946  11.793  0.0010 -0.1632 -0.0189
 1718W        W18192  15.961   2.213   3.974  0.2429 -0.2286  0.2365
 1719W        W18193  10.168  13.096   1.411  0.1977 -0.1082  0.2236
 1720W        W18194   0.651   3.000   5.591  0.0265 -0.1646 -0.1949
 1721W        W18195   9.009  17.069   5.922  0.0581  0.2289  0.1378
 1722W        W18196   5.970  17.443   2.172  0.0531  0.1998 -0.1838
 1723W        W18197  17.190   0.894   3.052  0.3083  0.1005 -0.0529
 1724W        W18198   7.643  12.763   3.993  0.0846 -0.2623  0.0706
 1725W        W18199  16.585   6.092   3.802  0.0633  0.0289 -0.0766
 1726W        W18200   8.042  18.401  14.940  0.0441  0.0072  0.3352
 1727W        W18201   0.472   5.130  12.265 -0.0813 -0.3669 -0.0794
 1728W        W18202   0.321  14.684   3.949  0.0279  0.0311  0.2868
 1729W        W18203   4.895  17.322   2.227 -0.2297 -0.0594 -0.1597
 1730W        W18204   4.648   7.311   0.517 -0.0112 -0.0310 -0.2715
 1731W        W18205  17.807   9.818  12.239  0.0330  0.1046  0.1225
 1732W        W18206  16.507  11.751  12.428 -0.0315  0.0172  0.2559
 1733W        W18207   2.364   7.292  11.731  0.1737  0.0966 -0.4671
 1734W        W18208   9.098  13.193   1.017  0.4383  0.1500 -0.0719
 1735W        W18209  14.668   2.889  11.240  0.0850 -0.1209 -0.2284
 1736W        W18210  14.188   9.004  11.684  0.2184  0.2016  0.1804
 1737W        W18211   8.132   9.471  12.403  0.1044  0.1795 -0.0516
 1738W        W18212  14.287   8.331  13.698 -0.0145  0.0639  0.0761
 1739W        W18213  13.487  13.636   5.574 -0.3865 -0.0447 -0.0508
 1740W        W18214  13.765  14.897  15.307  0.1218  0.1381  0.0562
 1741W        W18215   9.967   2.789   3.788  0.2691 -0.4373  0.2831
 1742W        W18216  14.966   8.948   2.381  0.1966  0.1585  0.1002
 1743W        W18217   4.968  12.758  14.056  0.0508 -0.1649 -0.0775
 1744W        W18218   7.022   5.528  14.716  0.0808  0.1133  0.0552
 1745W        W18219   8.600   6.208   5.763  0.2459  0.0020 -0.0159
 1746W        W18220  17.245   1.682   0.149 -0.2852  0.2767 -0.1191
 1747W        W18221   7.998   6.702   1.429  0.0283 -0.0482  0.2715
 1748W        W18222   8.611  13.639   3.695  0.1265  0.1676  0.0580
 1749W        W18223   5.050  15.018  11.744 -0.0363  0.0669  0.2810
 1750W        W18224  15.218   3.159   1.559  0.0113  0.0721  0.3203
 1751W        W18225  12.511   8.322   3.260  0.1106 -0.2926  0.0277
 1752W        W18226  10.068  11.155   1.245  0.0151  0.1888  0.1892
 1753W        W18227  15.196   8.747   3.383 -0.0866 -0.1313  0.0466
 1754W        W18228  10.085   1.133   5.944  0.0694  0.0910  0.0168
 1755W        W18229   0.931   5.340   0.717 -0.1862  0.1040 -0.1780
 1756W        W18230   5.961  15.557   3.881 -0.2483  0.1115  0.0894
 1757W        W18231   2.739   7.437  12.199  0.2009 -0.2367  0.1069
 1758W        W18232  11.490  11.938  14.481  0.1684 -0.1031  0.0311
 1759W        W18233   1.623  17.966  15.834 -0.0786  0.0040  0.5670
 1760W        W18234  16.450  17.276   4.061 -0.1712 -0.0868  0.1556
 1761W        W18235  17.213   8.096  15.854  0.0509  0.0074 -0.0397
 1762W        W18236   8.273   8.326  13.344  0.2392  0.0540 -0.1360
 1763W        W18237  13.357   9.456   5.906 -0.2353 -0.0703 -0.0759
 1764W        W18238   4.549  12.958  12.395  0.2072 -0.2711 -0.0012
 1765W        W18239  17.411   4.150   3.358  0.0477 -0.1610 -0.1234
 1766W        W18240  11.431   2.264   0.591 -0.1374 -0.1147  0.0591
 1767W        W18241  16.617   2.019  11.392 -0.2376  0.3898  0.1745
 1768W        W18242  12.334  14.068   3.150  0.2124  0.0417  0.0321
 1769W        W18243   3.263   2.750  12.980 -0.2030  0.3012 -0.0975
 1770W        W18244  15.967   5.355  13.593  0.1256 -0.3389  0.1105
 1771W        W18245  11.605   5.033  13.907 -0.1513 -0.1768  0.1050
 1772W        W18246   8.286  15.729  14.025  0.3302 -0.2905  0.1224
 1773W        W18247   3.898  11.730   2.008  0.0062  0.1543 -0.0061
 1774W        W18248  17.654   7.364  15.917  0.3628  0.1759  0.0753
 1775W        W18249  16.989   5.965  15.347 -0.0366 -0.1858  0.0788
 1776W        W18250   0.549  12.483   0.350  0.0109 -0.2728 -0.1055
 1777W        W18251  14.423   2.692   4.678  0.0741  0.5001 -0.2757
 1778W        W18252   7.707  16.332   0.022 -0.3116  0.1234  0.1947
 1779W        W18253  16.616  15.310  14.278  0.2303 -0.1134 -0.4391
 1780W        W18254  18.415   7.535   3.706 -0.1829  0.1031  0.0984
 1781W        W18255  17.660   4.486  15.474  0.0042 -0.0862 -0.0327
 1782W        W18256  13.413  14.360  13.008 -0.2330 -0.0322 -0.2323
 1783W        W18257  14.844   0.060   4.797 -0.0835  0.2162  0.0134
 1784W        W18258   1.387   0.439   5.797 -0.0230  0.1604  0.0688
 1785W        W18259  15.667   6.106   4.168 -0.0758 -0.1460 -0.1651
 1786W        W18260   4.595  12.018  15.062 -0.3186 -0.0858 -0.3294
 1787W        W18261   1.831  15.134  15.538 -0.1502  0.2717 -0.4901
 1788W        W18262  17.560  12.125  13.641 -0.0801 -0.0261 -0.1541
 1789W        W18263  13.607   2.998   3.285  0.1926 -0.3472 -0.0368
 1790W        W18264   8.933  15.258   4.571  0.1982  0.0270  0.1034
 1791W        W18265  17.953  15.960  13.669  0.2394  0.0653  0.3137
 1792W        W18266   3.834  17.771  14.581  0.1172 -0.1516  0.1003
 1793W        W18267  14.644   5.384  15.541 -0.0850  0.0230 -0.1827
 1794W        W18268   8.049   9.067   0.539  0.2627  0.0129 -0.2649
 1795W        W18269  15.403  17.757  13.925 -0.0292  0.1152  0.0061
 1796W        W18270   5.135  11.252   0.844  0.1431  0.1909  0.0268
 1797W        W18271  17.362   3.576  11.888  0.0963  0.0906  0.2992
 1798W        W18272  17.584  16.458   0.191 -0.0015  0.0011  0.0764
 1799W        W18273  17.078  14.115  15.345 -0.2445 -0.1374 -0.0740
 1800W        W18274  15.894   3.922   0.496  0.0723 -0.0146 -0.0734
 1801W        W18275  17.417  10.719   4.298  0.2326  0.1166  0.2911
 1802W        W18276  10.866  17.589   4.977 -0.0132  0.0135  0.3273
 1803W        W18277   9.936   9.074   6.284 -0.0299 -0.0364  0.1224
 1804W        W18278  18.443  18.221  15.731  0.3133 -0.2278  0.0560
 1805W        W18279   5.743   2.753  12.792  0.0147  0.0011  0.0427
 1806W        W18280  12.859   7.423   4.447  0.1084  0.2229  0.0516
 1807W        W18281   0.434  15.145  13.742  0.0701  0.0324  0.5794
 1808W        W18282   3.619  13.555   0.227 -0.0883 -0.1654 -0.0149
 1809W        W18283  15.203   2.226   1.959 -0.0727 -0.0651 -0.3131
 1810W        W18284   9.867   2.776  13.478  0.0522 -0.3215  0.0021
 1811W        W18285  17.910  11.871  12.216 -0.2265 -0.1486  0.1492
 1812W        W18286  12.181   1.815   3.778 -0.2245 -0.0573  0.2473
 1813W        W18287  13.013   7.757   2.595 -0.1790 -0.0773 -0.4504
 1814W        W18288  12.419   7.209   1.911 -0.1247  0.0694 -0.0317
 1815W        W18289  10.630   3.568  10.953  0.2202  0.2736  0.1963
 1816W        W18290  13.489   4.838  12.802  0.1401 -0.0315  0.0218
 1817W        W18291   9.892   4.470   4.623 -0.1051 -0.4825 -0.0880
 1818W        W18292  15.287   6.915  11.725 -0.1241  0.1792  0.3245
 1819W        W18293   0.361  15.652  13.348 -0.1504  0.1781 -0.0577
 1820W        W18294   1.333   7.876   4.741 -0.0958 -0.1212 -0.1432
 1821W        W18295   1.005   4.028   1.699  0.4071  0.1304  0.1148
 1822W        W18296   0.258   7.457   5.051 -0.0407  0.2077 -0.2011
 1823W        W18297   2.893   6.265  11.876  0.0272  0.0202  0.0713
 1824W        W18298   9.178  11.923   5.099  0.0993 -0.5216  0.2864
 1825W        W18299   6.693   6.564   5.411 -0.0983 -0.2971 -0.1004
 1826W        W18300  17.012  15.194  11.170 -0.0769 -0.1128  0.0795
 1827W        W18301   9.976   3.553   3.537 -0.1289  0.1117 -0.2104
 1828W        W18302   1.574   0.770  11.122 -0.0901 -0.2422 -0.2434
 1829W        W18303   3.174  10.029   2.285 -0.0313  0.0866 -0.0912
 1830W        W18304  18.298  14.356  11.258  0.1837  0.0147 -0.0346
 1831W        W18305  16.040  13.824   2.341 -0.1563  0.0164 -0.2111
 1832W        W18306  18.201  12.855   5.941  0.0480  0.3513 -0.1906
 1833W        W18307  16.562   0.372   4.191 -0.2296  0.2077 -0.1617
 1834W        W18308  11.839  16.502  12.309 -0.0563 -0.1134  0.2284
 1835W        W18309  14.409  14.331  13.075  0.1622  0.1480 -0.0895
 1836W        W18310   9.672   7.745   4.116 -0.1693 -0.2206  0.1501
 1837W        W18311   5.477  15.499  14.800 -0.0864 -0.1155 -0.0900
 1838W        W18312  14.588   0.381  12.490 -0.0141  0.0535 -0.0717
 1839W        W18313  16.917   3.975   4.208  0.0161 -0.3697 -0.1928
 1840W        W18314  15.798  14.191  12.399  0.2030 -0.0761 -0.1496
 1841W        W18315  16.747  11.963   0.552 -0.3156  0.0290 -0.2257
 1842W        W18316  12.355  12.190   0.755 -0.0164  0.3716 -0.2706
 1843W        W18317   3.433  12.622  11.101  0.2590 -0.2237  0.0996
 1844W        W18318  11.606  14.253  13.922  0.2069 -0.1413  0.2078
 1845W        W18319  14.505  18.388  11.664  0.1196 -0.2631  0.0158
 1846W        W18320  15.214  14.230   3.763 -0.1062  0.2200  0.0435
 1847W        W18321  16.552   4.249  11.127 -0.2209 -0.0250  0.0092
 1848W        W18322   8.479  14.398   2.583  0.2583  0.0336 -0.0773
 1849W        W18323  15.029  13.574  12.752 -0.0860 -0.1958 -0.3363
 1850W        W18324  16.846   8.851   4.168  0.1460 -0.0443  0.0260
 1851W        W18325   7.690   1.643   3.193 -0.0610  0.2478  0.2825
 1852W        W18326  12.214  15.806   4.327  0.0615  0.1955 -0.0675
 1853W        W18327  12.669   5.635   0.842 -0.3400  0.1861  0.1933
 1854W        W18328   0.666   0.671  12.020 -0.1513  0.0426 -0.0726
 1855W        W18329   4.440  10.350   3.987 -0.2097  0.3818  0.1534
 1856W        W18330  11.292   9.758   0.126 -0.0994  0.1794 -0.2015
 1857W        W18331   1.537   8.476   1.423  0.2776  0.0276 -0.2634
 1858W        W18332  11.467  12.795  13.891 -0.1603  0.0677  0.2236
 1859W        W18333   5.350   9.610  11.481  0.1964 -0.1753 -0.2016
 1860W        W18334   0.527  16.768   0.477 -0.2039  0.0541  0.2296
 1861W        W18335   0.668   8.794   0.337  0.0358  0.2476  0.2325
 1862W        W18336   5.387   8.052  12.778 -0.0514  0.1866 -0.0615
 1863W        W18337   1.302  18.146   3.972 -0.0088  0.2315  0.2100
 1864W        W18338   2.107   1.653   1.028 -0.0820 -0.1328  0.2534
 1865W        W18339   8.427   0.971   0.875 -0.2452  0.0437  0.2686
 1866W        W18340   7.015  14.271  12.284 -0.2383 -0.0848  0.0969
 1867W        W18341  12.381  15.405  15.733 -0.4597  0.1241 -0.0509
 1868W        W18342   2.766   9.594  14.259 -0.1704 -0.0285 -0.0779
 1869W        W18343   9.879  17.752  15.675 -0.0005  0.0667  0.0438
 1870W        W18344   6.590   4.929   0.169 -0.1218 -0.2419  0.1724
 1871W        W18345  14.089  11.759   1.937 -0.3145  0.2085 -0.0916
 1872W        W18346  11.463  11.540   4.663  0.3647 -0.1777 -0.0281
 1873W        W18347  17.156   9.670  11.729 -0.1694 -0.1442 -0.1708
 1874W        W18348   6.939  10.885   0.851 -0.1220  0.0060  0.1089
 1875W        W18349   8.859   3.241   4.402 -0.5104  0.0967  0.2888
 1876W        W18350   7.300  18.319  11.429 -0.1563  0.0233 -0.1104
 1877W        W18351  12.983   9.194   5.393 -0.3029 -0.1205  0.0565
 1878W        W18352   8.865   4.531   1.619 -0.0411  0.0834 -0.0848
 1879W        W18353  12.942  14.160  13.667  0.0437  0.0066  0.1290
 1880W        W18354   2.821  15.950   4.124 -0.1706 -0.2142  0.1470
 1881W        W18355  16.720  16.580  14.330 -0.2415 -0.3023 -0.1993
 1882W        W18356   8.752   4.543  10.606 -0.0461 -0.0875 -0.2549
 1883W        W18357  11.001   6.824   0.944 -0.0863  0.1138  0.2723
 1884W        W18358  11.729   0.426   0.577  0.0825 -0.0942 -0.0929
 1885W        W18359   2.887   0.761   3.199  0.1554  0.0907  0.1996
 1886W        W18360   9.861  13.624  15.108 -0.2402  0.1266 -0.1552
 1887W        W18361   7.837   9.992  10.481 -0.2773  0.2681 -0.1954
 1888W        W18362  18.272   1.330   2.626  0.2286  0.1165  0.0119
 1889W        W18363  15.127   1.409  14.737 -0.1546  0.1116 -0.3717
 1890W        W18364  15.828  16.347  13.337  0.3300  0.0596  0.0428
 1891W        W18365  11.491  10.221   0.101 -0.2513  0.2643 -0.0101
 1892W        W18366   8.113  14.825  11.354  0.1860 -0.1161 -0.1456
 1893W        W18367   4.210   3.227   1.908  0.0081  0.0121  0.5035
 1894W        W18368   5.903  14.756  12.025 -0.0516  0.0337  0.0063
 1895W        W18369   5.070   7.588  12.021  0.3200  0.1298  0.0568
 1896W        W18370  14.599  11.120   0.188 -0.1539 -0.0225  0.1275
 1897W        W18371   0.494  11.549   0.136  0.1358 -0.1957  0.0255
 1898W        W18372  13.768  17.876   4.428 -0.2783 -0.3848  0.4643
 1899W        W18373  14.690   8.924  12.382  0.0347  0.1928 -0.1544
 1900W        W18374   4.324   2.020  15.379 -0.0166 -0.3661 -0.0596
 1901W        W18375  16.393  14.910  14.109 -0.1620  0.2378 -0.2094
 1902W        W18376   8.303   5.104   1.266  0.0429 -0.0673  0.4490
 1903W        W18377   2.389  17.809   0.005  0.2179  0.1344 -0.0192
 1904W        W18378  11.175  18.127   1.478  0.0743  0.0146 -0.1321
 1905W        W18379   8.169   2.985   0.937 -0.1491 -0.2056 -0.0170
 1906W        W18380   9.345  17.668  14.984 -0.0960 -0.0017 -0.0786
 1907W        W18381  14.158  11.202  13.793 -0.0355 -0.0915 -0.1663
 1908W        W18382   2.441   0.229   0.565 -0.0670 -0.1826 -0.0959
 1909W        W18383  12.665   7.656   0.189  0.2125 -0.0759 -0.0580
 1910W        W18384   5.086   8.924   0.773 -0.0428  0.0363  0.4186
 1911W        W18385  14.863  10.694   3.110  0.2049 -0.1721 -0.0785
 1912W        W18386  17.799  16.330   1.721 -0.0514 -0.0365  0.1117
 1913W        W18387   8.454   5.759   2.814  0.0316  0.1662  0.1869
 1914W        W18388   3.955  14.788  15.440  0.2053  0.3382 -0.3464
 1915W        W18389   4.107   1.700   1.101  0.0550 -0.1807  0.0007
 1916W        W18390   8.833  10.982  15.347 -0.2567 -0.0040 -0.0411
 1917W        W18391   4.124  18.219  11.862 -0.3687  0.2293  0.0889
 1918W        W18392  11.998  11.912  14.102 -0.2057  0.3580  0.2152
 1919W        W18393  16.829  12.256   1.832  0.2099  0.0719 -0.0134
 1920W        W18394  11.774  13.841   0.072 -0.1870 -0.3611 -0.1401
 1921W        W18395  11.821  16.262   4.389  0.0140  0.1993  0.2688
 1922W        W18396  11.850   4.198  15.088  0.1513  0.1423 -0.0912
 1923W        W18397   7.084   0.916   4.898  0.0675 -0.1809  0.2575
 1924W        W18398   0.054   9.297  11.263  0.0080 -0.0179 -0.1412
 1925W        W18399  16.953  13.323  13.586  0.0104  0.2292 -0.1131
 1926W        W18400  14.185   9.734  13.591 -0.2458  0.0427 -0.0395
 1927W        W18401   4.279   3.833  13.437 -0.0027 -0.0299  0.0547
 1928W        W18402  17.421   4.979   1.022  0.0637  0.2597 -0.0419
 1929W        W18403   2.026  12.480   0.287  0.0913 -0.0348  0.0825
 1930W        W18404   8.338  16.307   4.824 -0.2361 -0.0354 -0.1965
 1931W        W18405   9.833   9.797   3.390  0.2637  0.0256  0.1010
 1932W        W18406   6.528  10.524  12.411  0.0640  0.1452  0.3042
 1933W        W18407  11.302  16.882  12.095  0.0787  0.0219 -0.2032
 1934W        W18408  12.194   9.599  12.740  0.1760 -0.1964  0.0881
 1935W        W18409   4.325  15.620   4.168 -0.1797 -0.2475  0.1451
 1936W        W18410   9.589   8.072   1.142  0.1309 -0.1591  0.2528
 1937W        W18411   5.511   7.456   4.326 -0.2922 -0.1877  0.2794
 1938W        W18412   1.803  16.926   5.337  0.2547 -0.3165  0.0124
 1939W        W18413  17.453  14.622  14.943 -0.2904  0.1360  0.0289
 1940W        W18414  17.323   4.143  14.123  0.0719  0.1183  0.1060
 1941W        W18415   4.474  11.434  12.893 -0.1778  0.0473  0.1257
 1942W        W18416  17.764   7.850   1.679  0.1000  0.1713 -0.1765
 1943W        W18417  14.541   8.002   0.744 -0.1124  0.4221  0.1737
 1944W        W18418  16.578  14.246  10.961  0.3902  0.2649 -0.2959
 1945W        W18419   6.526  11.429   3.766  0.2833  0.0794 -0.0764
 1946W        W18420   4.463  17.808   5.381 -0.3669 -0.3064 -0.1131
 1947W        W18421  13.642  14.090  14.808  0.0604  0.0287 -0.0945
 1948W        W18422   8.041   9.272  13.821  0.2237  0.1527  0.0886
 1949W        W18423  17.876  10.892   3.548 -0.1762  0.1674  0.1203
 1950W        W18424  11.233   1.322   4.455 -0.0992  0.2008 -0.0073
 1951W        W18425  13.342   2.898  12.854 -0.0345  0.2508 -0.0150
 1952W        W18426   1.420  16.616   3.353 -0.1836  0.0873  0.0757
 1953W        W18427   6.537  14.909   2.870  0.0270  0.2788  0.1188
 1954W        W18428  16.157  17.939  12.162  0.0147  0.0330  0.0205
 1955W        W18429   1.996   6.575   0.179  0.0094 -0.1066  0.0462
 1956W        W18430   2.860   3.456   0.638  0.0953  0.3134  0.0989
 1957W        W18431  13.245  12.653   1.060  0.2518 -0.0154 -0.0364
 1958W        W18432   5.926  17.651   5.677  0.3661 -0.1570 -0.3361
 1959W        W18433  15.802   0.518   2.404  0.0780 -0.2838  0.1340
 1960W        W18434  14.565   0.348   2.611  0.1351  0.1159 -0.0107
 1961W        W18435   5.635   4.059   0.767 -0.2181 -0.0607 -0.0227
 1962W        W18436  11.983   9.075  14.364 -0.1581  0.1720  0.1447
 1963W        W18437   6.618   7.459  12.202 -0.1935  0.0378 -0.3015
 1964W        W18438  14.823   5.093  10.949  0.0569 -0.1106 -0.1035
 1965W        W18439  14.180  11.531   3.003 -0.0986 -0.0931  0.0814
 1966W        W18440  15.094   8.019   1.167  0.0015 -0.1588 -0.0296
 1967W        W18441   3.744   1.749   0.675  0.0382  0.0373 -0.1210
 1968W        W18442  10.555   0.658  14.621  0.1008 -0.0552 -0.0721
 1969W        W18443   8.383   2.249   2.712  0.1356 -0.3101 -0.2015
 1970W        W18444   5.647   0.561  13.947  0.3445  0.1949 -0.1362
 1971W        W18445   7.589  12.033   1.132 -0.1195  0.0973 -0.0940
 1972W        W18446  15.726   5.055  13.870 -0.2756 -0.3224  0.1751
 1973W        W18447   3.422   3.962   0.204  0.1084  0.1012  0.1574
 1974W        W18448  18.169   8.819  14.032 -0.0300 -0.1383  0.0939
 1975W        W18449   9.126  13.390   1.451 -0.0603  0.1436  0.3038
 1976W        W18450  16.893   9.127  12.662  0.2115 -0.1451  0.0102
 1977W        W18451   3.599   4.461   3.905 -0.3064  0.0490 -0.1164
 1978W        W18452   2.618  16.277   4.577  0.0460  0.1982 -0.1936
 1979W        W18453   1.077  12.905  15.055  0.0975 -0.2864 -0.0285
 1980W        W18454   9.543  13.305  12.473  0.0190  0.2147 -0.0101
 1981W        W18455   9.566   9.337   4.905  0.1047  0.2001 -0.0680
 1982W        W18456   6.503  14.391  14.994  0.0078  0.1421 -0.0875
 1983W        W18457   2.246  11.063  12.012  0.0035  0.0431 -0.1136
 1984W        W18458   0.120  11.194   0.949 -0.0762 -0.0677  0.1839
 1985W        W18459  11.294  17.197  12.538 -0.0307 -0.3150 -0.1094
 1986W        W18460   7.776  15.812  13.881 -0.2137  0.0192  0.3134
 1987W        W18461   9.167  17.985  11.686  0.2238  0.0167 -0.2549
 1988W        W18462   0.000  17.333  12.245 -0.1065 -0.1040 -0.0211
 1989W        W18463   6.370  14.583  12.782  0.0334  0.0177  0.0302
 1990W        W18464   0.149   4.461   1.583  0.1351 -0.0522 -0.2997
 1991W        W18465   1.790  13.464   1.021 -0.0963  0.0551  0.0666
 1992W        W18466  17.115   0.672  14.224  0.2722  0.0419  0.1558
 1993W        W18467  12.875   9.705  14.974 -0.0295  0.3864  0.4064
 1994W        W18468   3.253  13.158  12.281 -0.1899  0.0216 -0.0978
 1995W        W18469   4.329   9.267   2.113 -0.1288 -0.0962  0.0000
 1996W        W18470   9.265   0.569  14.664 -0.1048 -0.1527  0.3851
 1997W        W18471  14.561   9.252   4.692 -0.2222  0.2761  0.0972
 1998W        W18472  14.465   6.788  12.616  0.0271 -0.0677  0.1359
 1999W        W18473   7.952   1.826   1.551 -0.0666  0.2178 -0.0728
 2000W        W18474  17.671   3.755   2.252 -0.2638  0.0304 -0.0376
 2001W        W18475  15.185  15.495   6.174  0.3701  0.0228  0.0498
 2002W        W18476  18.048  15.792  14.198 -0.3584  0.0102 -0.0782
 2003W        W18477   2.337  15.357   1.834  0.2650 -0.1722  0.1460
 2004W        W18478  11.394  12.989   0.164  0.2799  0.0587 -0.1300
 2005W        W18479   4.807  16.714  15.876 -0.0566 -0.3224 -0.3934
 2006W        W18480   8.725   1.208   2.481 -0.1462  0.0750  0.2426
 2007W        W18481   5.016  10.708  12.130 -0.0504 -0.1649  0.1162
 2008W        W18482  17.577   2.239  12.703 -0.1034  0.0962 -0.0850
 2009W        W18483   4.910   7.237   2.449  0.1862 -0.0384  0.3825
 2010W        W18484  15.247   9.052   1.397 -0.3322  0.0306  0.0392
 2011W        W18485  14.872  15.124   5.028  0.2134  0.0845 -0.2767
 2012W        W18486   3.020   6.773  13.035  0.0133  0.2618 -0.0593
 2013W        W18487  14.753  18.193   1.740  0.0037  0.2419 -0.0798
 2014W        W18488   6.669   1.899   1.432  0.0204 -0.5311 -0.0285
 2015W        W18489   1.183   2.279   5.489  0.0738  0.1707  0.2323
 2016W        W18490  14.472   4.842   0.791 -0.2725 -0.0033  0.0775
 2017W        W18491  12.774  16.405  12.058 -0.1530  0.0277 -0.0228
 2018W        W18492  18.145  11.382   5.352  0.2305  0.3520 -0.0136
 2019W        W18493   8.425   7.287  12.166 -0.3465 -0.1145 -0.0036
 2020W        W18494   3.024  16.239   4.990 -0.2572  0.0135 -0.0477
 2021W        W18495   3.351   5.470   4.876 -0.2291 -0.0428 -0.0089
 2022W        W18496   2.715  11.434   5.639  0.0246  0.0523 -0.0455
 2023W        W18497   3.631  12.944  11.974  0.1750 -0.1266 -0.1730
 2024W        W18498  11.827  13.031  15.925  0.3330 -0.2941 -0.1811
 2025W        W18499   3.914  15.264  11.221  0.4164 -0.0762 -0.1921
 2026W        W18500   9.440   1.510  12.457  0.1971 -0.2078 -0.1119
 2027W        W18501   0.280  16.096  14.085 -0.1172  0.0396 -0.1189
 2028W        W18502  18.110   1.358  14.977  0.1760  0.3526  0.1614
 2029W        W18503  17.148  16.154   2.742 -0.0113 -0.1370 -0.0852
 2030W        W18504  11.536  13.596  15.314  0.2329  0.2171 -0.1660
 2031W        W18505   9.003   7.998   1.089  0.2535 -0.0305  0.0311
 2032W        W18506  15.178   4.417  14.860  0.0855  0.0191 -0.4680
 2033W        W18507   3.753  16.081   1.453  0.1743 -0.1586  0.1005
 2034W        W18508  12.608   1.045  15.169  0.1097 -0.0715  0.1222
 2035W        W18509  14.455   3.250   1.694 -0.1369 -0.1131 -0.1162
 2036W        W18510   1.504  16.587  12.909  0.1496  0.1798  0.0124
 2037W        W18511  15.557   8.681  11.933  0.0863 -0.0877  0.1855
 2038W        W18512   1.268   8.496   4.241  0.0527  0.1075 -0.0538
 2039W        W18513   5.657  13.945   4.511  0.0301 -0.2701 -0.1046
 2040W        W18514   8.768  14.025  15.727 -0.1255  0.1924 -0.0283
 2041W        W18515   6.112  10.839  12.170 -0.0055  0.4004  0.2501
 2042W        W18516  17.317   0.452   2.524 -0.2208  0.1554  0.0431
 2043W        W18517   6.657  13.889  15.924  0.1233  0.0049  0.1198
 2044W        W18518  13.299   1.001   0.770 -0.0458  0.0359 -0.3080
 2045W        W18519  16.263   2.678   4.451 -0.0094 -0.2802 -0.1905
 2046W        W18520   2.947   2.559  13.589 -0.0944  0.0912  0.1409
 2047W        W18521   3.840   5.491   4.842 -0.2875 -0.4232  0.4847
 2048W        W18522  12.875  12.092   0.188  0.2987 -0.0892  0.0778
 2049W        W18523   4.414   5.733  15.381  0.2073 -0.0620 -0.1141
 2050W        W18524   2.030   7.937   3.719  0.1242  0.4967 -0.0853
 2051W        W18525   7.805   6.022   2.127 -0.2039 -0.1337 -0.0492
 2052W        W18526  15.935  15.255   3.092 -0.0369 -0.1019  0.1349
 2053W        W18527  16.624   5.195  13.064  0.0227  0.1705  0.0164
 2054W        W18528   0.949   9.444  15.088  0.0699 -0.1801 -0.1918
 2055W        W18529   2.789   7.586   3.716  0.0359 -0.2085  0.2239
 2056W        W18530   5.908  15.954   0.138 -0.3399  0.0043 -0.2934
 2057W        W18531  17.293  13.310   0.398  0.0854  0.1431  0.1178
 2058W        W18532   0.544  13.909   3.872  0.1640 -0.0909  0.0853
 2059W        W18533   1.034   9.587   3.970  0.0347  0.0015  0.1661
 2060W        W18534   7.899  10.174   1.158 -0.0505 -0.1183 -0.0526
 2061W        W18535   3.668   2.475  13.707 -0.1847  0.1410  0.0685
 2062W        W18536   7.242   7.589   1.884  0.0782 -0.1366  0.0210
 2063W        W18537   8.821   5.471   4.625  0.2751 -0.0025 -0.1299
 2064W        W18538   1.233  13.726  15.223  0.2674 -0.1075  0.1402
 2065W        W18539  17.889  14.406   0.473 -0.0386  0.0007  0.2756
 2066W        W18540   6.304  17.917   0.976  0.2304 -0.0208  0.1420
 2067W        W18541  16.499   1.104   1.072  0.0020  0.1372  0.0491
 2068W        W18542   1.940  14.609  12.080 -0.0905 -0.0786  0.0371
 2069W        W18543  16.398   3.197  15.272 -0.1645  0.0352  0.1835
 2070W        W18544  18.327   0.207   5.136  0.1308  0.1128  0.3127
 2071W        W18545   5.462  11.598  15.329 -0.0086  0.1442 -0.0009
 2072W        W18546  13.681   7.104  12.139  0.0724 -0.1530  0.1888
 2073W        W18547   2.050   0.331  14.340  0.3353  0.1079 -0.0745
 2074W        W18548  17.924   2.744  11.320  0.0677  0.1658 -0.1112
 2075W        W18549  14.720   5.267   4.562 -0.0272 -0.1436  0.0301
 2076W        W18550   4.901   5.660   0.275  0.1500  0.2583  0.1658
 2077W        W18551  15.868  15.172  11.837  0.2697 -0.2267 -0.3864
 2078W        W18552   6.143   7.748   0.608  0.0825 -0.1919  0.0629
 2079W        W18553  17.528  15.704  12.385 -0.0430 -0.2913 -0.1005
 2080W        W18554  17.091   6.761  13.258 -0.0225  0.0595 -0.0872
 2081W        W18555  15.367   6.983  14.590  0.1139 -0.3052  0.2158
 2082W        W18556  11.691   7.370   2.362 -0.0997  0.0612  0.1357
 2083W        W18557   8.541   2.107  11.011  0.2272 -0.1762 -0.0491
 2084W        W18558   9.983  15.656  14.672 -0.1393  0.2309 -0.1827
 2085W        W18559   5.035  13.175  11.715  0.2737  0.0747 -0.0931
 2086W        W18560   4.306  15.189  15.541 -0.0329 -0.1702  0.2422
 2087W        W18561  11.020  11.493   2.680  0.1225  0.2243 -0.0100
 2088W        W18562   4.536  16.844   5.743 -0.1067  0.1788  0.2030
 2089W        W18563   0.535   9.609   0.290 -0.1641 -0.1143  0.2573
 2090W        W18564   7.594   2.929   4.222  0.0723 -0.0340  0.1531
 2091W        W18565   4.990  12.331  15.006 -0.0440  0.0547 -0.2564
 2092W        W18566  17.725   1.701  11.762  0.0642 -0.0788  0.0386
 2093W        W18567   7.186  13.718  15.929  0.2383 -0.0503  0.2519
 2094W        W18568  10.746  14.565   0.775  0.0451  0.1006 -0.1155
 2095W        W18569   0.512   4.180   4.872 -0.0611  0.1445  0.3751
 2096W        W18570   4.499   9.368  14.667  0.1780  0.1072  0.3107
 2097W        W18571  11.794  11.427   4.320  0.1983  0.0839  0.1207
 2098W        W18572   0.002   1.547  12.029  0.1697  0.3911 -0.1590
 2099W        W18573   5.090  17.626   2.603 -0.2321  0.2373 -0.2146
 2100W        W18574   3.917  11.124  11.997 -0.0828 -0.1779  0.3023
 2101W        W18575   8.953  13.375  14.910 -0.4601  0.0927  0.5928
 2102W        W18576   0.975   5.950   2.365 -0.1817 -0.0930  0.0302
 2103W        W18577   5.229  15.363  11.277 -0.1827  0.2072  0.1004
 2104W        W18578   3.719   1.370  15.759 -0.0275  0.1189 -0.2217
 2105W        W18579   9.087  10.420   2.330 -0.0257  0.0646  0.1133
 2106W        W18580  11.416   7.210  12.674  0.0028  0.1882 -0.1315
 2107W        W18581   1.443   1.532   4.587 -0.2065 -0.0342 -0.2738
 2108W        W18582   6.439   9.484  15.703 -0.4182 -0.2983 -0.0669
 2109W        W18583  13.659   4.636   0.924  0.0894  0.2544  0.0637
 2110W        W18584   8.005   3.391  14.867  0.0909 -0.1524 -0.1083
 2111W        W18585  16.194  15.765  10.118 -0.1317 -0.2517  0.0183
 2112W        W18586   3.244   8.784   2.916  0.1936  0.2021  0.1703
 2113W        W18587   0.399   7.761   3.745  0.1474  0.2153 -0.0556
 2114W        W18588  17.277   2.606  12.912  0.1111 -0.0301 -0.0352
 2115W        W18589   9.770   5.859  15.936  0.2770 -0.1628  0.1534
 2116W        W18590   8.534   0.420   0.783 -0.0942 -0.3449 -0.0120
 2117W        W18591   8.553  14.622  14.736 -0.2135  0.1677 -0.1302
 2118W        W18592   1.036  12.838  10.255  0.0135  0.0081 -0.1068
 2119W        W18593  10.570   7.024   1.620  0.2109  0.1544  0.0378
 2120W        W18594  10.320   7.174   5.403 -0.0385 -0.1276  0.0297
 2121W        W18595  11.726  13.642  14.335  0.2851 -0.0750  0.1686
 2122W        W18596   8.499  13.537  13.288 -0.0433 -0.0351 -0.1172
 2123W        W18597  14.339  13.836   0.868 -0.3119 -0.3045 -0.4660
 2124W        W18598   1.616  16.594   5.614 -0.0114 -0.3382  0.1630
 2125W        W18599   0.312  13.388  14.165  0.0935 -0.0990 -0.0008
 2126W        W18600   3.147  11.123   0.960 -0.0433 -0.0853 -0.1247
 2127W        W18601  14.305  13.596  14.501 -0.1169 -0.1274 -0.1868
 2128W        W18602   5.448  18.258  15.521  0.0593 -0.1114 -0.1746
 2129W        W18603  11.987   6.724   2.425 -0.1067 -0.2320  0.0222
 2130W        W18604  14.296   5.995   0.606 -0.0695  0.0248  0.0683
 2131W        W18605   6.313   3.719   1.220 -0.2940  0.1567  0.0021
 2132W        W18606   9.329   5.860  11.706 -0.2061 -0.1040  0.3892
 2133W        W18607   9.929   1.828  14.462  0.1800 -0.1233  0.3839
 2134W        W18608  14.291  12.727  15.224 -0.2597 -0.3583  0.0286
 2135W        W18609   2.307   8.293  11.362  0.1789 -0.1806 -0.0361
 2136W        W18610  15.060   1.936  13.399 -0.1069  0.2257  0.0597
 2137W        W18611   2.389   2.767   5.476  0.1103  0.1291  0.1079
 2138W        W18612   1.745  10.923   3.345  0.1307  0.0477 -0.0445
 2139W        W18613  15.574   3.956   1.883 -0.0544  0.1594 -0.0518
 2140W        W18614  10.747   2.893   2.491  0.1069  0.1846  0.1792
 2141W        W18615   9.330   9.252  11.712  0.1452 -0.0919 -0.1099
 2142W        W18616  12.205   4.105   0.466  0.3002  0.2141 -0.0996
 2143W        W18617   1.351  18.448  12.757  0.1475  0.0012  0.0363
 2144W        W18618   7.909   2.532   0.943  0.0054 -0.1308 -0.0500
 2145W        W18619  13.825   0.182   0.881 -0.3086 -0.2155  0.2001
 2146W        W18620   1.595   2.647  14.489 -0.1977  0.2436  0.0485
 2147W        W18621   1.314   0.557  11.947 -0.0019 -0.1904 -0.1918
 2148W        W18622  13.027   6.513   4.280  0.3505 -0.0462 -0.1212
 2149W        W18623   7.745   0.314   2.451  0.1389  0.0075  0.3734
 2150W        W18624   7.571  16.214   0.517  0.0117  0.1746  0.2164
 2151W        W18625  10.175  12.505   2.353 -0.1274  0.0480  0.1736
 2152W        W18626   2.190  16.636   3.299  0.0925 -0.2446  0.2968
 2153W        W18627  15.190   4.198  12.999 -0.1158  0.0403  0.2036
 2154W        W18628   7.068  15.900  15.572 -0.1801  0.0550 -0.0909
 2155W        W18629  17.959  17.071   3.693 -0.2663 -0.0108  0.1315
 2156W        W18630   2.706   6.543  13.483 -0.0094  0.3238 -0.0905
 2157W        W18631   5.674   0.236   3.156  0.0885  0.2955 -0.4602
 2158W        W18632  17.284   2.768  11.773 -0.0400 -0.1545 -0.0299
 2159W        W18633  15.769   1.634   5.548 -0.2720  0.0154  0.1633
 2160W        W18634  12.012   1.647   0.793  0.0150  0.1721  0.0224
 2161W        W18635   9.822  12.513   3.367  0.0078  0.0675  0.0299
 2162W        W18636  16.520  14.544   5.115 -0.0649 -0.0727  0.0397
 2163W        W18637   1.820   8.849  13.040  0.0416 -0.1850 -0.3086
 2164W        W18638  10.460  12.691  14.165 -0.1221  0.1828 -0.0612
 2165W        W18639   8.292   5.185   2.246 -0.1274  0.2231  0.0173
 2166W        W18640   5.604   0.458  15.914  0.0856  0.1804 -0.0257
 2167W        W18641   8.197   5.552  12.449 -0.3186 -0.0030  0.0782
 2168W        W18642   8.100   5.643  11.471  0.0772  0.1275  0.3582
 2169W        W18643   2.013  10.268  15.688 -0.3550  0.0880  0.1909
 2170W        W18644  14.218   2.838  13.235 -0.1677 -0.2213  0.0056
 2171W        W18645   9.634  14.215  12.961  0.0942 -0.0532 -0.0120
 2172W        W18646  10.263   9.082   3.327 -0.0018  0.0825 -0.2649
 2173W        W18647   2.145   8.589   2.139  0.2225  0.0668 -0.1381
 2174W        W18648  11.529   6.561   5.440 -0.0123 -0.1824 -0.2257
 2175W        W18649  14.543   1.675   4.649  0.0378  0.0968 -0.1560
 2176W        W18650   1.639  15.508  12.540  0.2662  0.2250  0.2387
 2177W        W18651  16.430   8.944   1.631  0.2767 -0.3422  0.0265
 2178W        W18652  10.110   8.046  10.409 -0.2013  0.0741  0.1005
 2179W        W18653   4.340  17.055   0.416  0.1287 -0.0046 -0.0327
 2180W        W18654   0.671  14.099  12.216  0.0318 -0.0495  0.3237
 2181W        W18655   6.149  13.776   1.021 -0.2141 -0.0753  0.0150
 2182W        W18656  15.460  11.038   1.040 -0.0901  0.0362  0.0090
 2183W        W18657  15.704  17.007   1.778 -0.2785  0.1869  0.3796
 2184W        W18658   9.484   6.677   2.593 -0.1731 -0.1287 -0.0882
 2185W        W18659  16.699   3.044   1.254  0.1229  0.1065  0.2378
 2186W        W18660   6.635  14.317   2.654 -0.1295  0.1300  0.0765
 2187W        W18661   7.144  11.636  14.513 -0.2140 -0.3412  0.3441
 2188W        W18662   6.122   5.619   3.411  0.0460  0.2494 -0.1357
 2189W        W18663  13.859  11.469   3.816  0.0959  0.0526 -0.1159
 2190W        W18664  11.978  12.319  14.687  0.2442  0.1131  0.1574
 2191W        W18665   3.158   2.682   1.481 -0.3152  0.0856  0.1823
 2192W        W18666  15.427  15.701  11.217 -0.0667 -0.1211  0.3803
 2193W        W18667   7.512   3.286  14.330 -0.1564  0.0311  0.2693
 2194W        W18668  16.801  16.250  14.704  0.1047 -0.1328 -0.0900
 2195W        W18669  14.393  15.010   4.814  0.1283 -0.1097  0.1514
 2196W        W18670   9.476  16.201  15.753 -0.1013 -0.5552 -0.0855
 2197W        W18671   9.079   3.589  14.673  0.3180 -0.1713 -0.3013
 2198W        W18672   3.324   7.848  15.183 -0.3557  0.0119  0.0654
 2199W        W18673  10.459   2.804   3.926  0.0884  0.1230 -0.2130
 2200W        W18674  10.643  10.920  14.196  0.3199  0.0461  0.0839
 2201W        W18675   9.380   2.208   4.545 -0.2688  0.1407  0.2398
 2202W        W18676   8.346  13.004   4.280 -0.2555  0.0841 -0.4749
 2203W        W18677  14.620   9.809   2.761  0.2266 -0.2388 -0.7059
 2204W        W18678   7.290  16.655  12.430  0.3689  0.1774  0.2113
 2205W        W18679  12.751   5.359   1.739 -0.0111 -0.0346  0.1439
 2206W        W18680  12.821  13.148   3.012  0.0276 -0.0450  0.2120
 2207W        W18681  15.648  15.898   3.767  0.0414  0.2113 -0.1326
 2208W        W18682   0.230   6.877   1.707 -0.3089  0.1985 -0.1400
 2209W        W18683   1.345   3.069   3.337 -0.1778  0.2801 -0.1832
 2210W        W18684  14.840   4.675   0.357 -0.2088 -0.1371  0.2670
 2211W        W18685   5.530   5.375   4.970  0.0405 -0.0760 -0.0994
 2212W        W18686   9.406   1.368  12.922  0.1016 -0.2195 -0.2586
 2213W        W18687  15.433   1.730  12.303  0.3077  0.1211  0.0800
 2214W        W18688   4.724  17.553   0.411 -0.2853  0.0328 -0.3789
 2215W        W18689  13.751   4.277  15.279  0.1511  0.0484 -0.0707
 2216W        W18690   3.955  17.620   2.057 -0.1938 -0.1421 -0.1156
 2217W        W18691  15.932   9.062  15.271  0.4276  0.0682  0.1687
 2218W        W18692   2.864   8.721   0.261  0.0601 -0.2233 -0.1207
 2219W        W18693   3.921   6.347  11.314  0.3362  0.2217 -0.0439
 2220W        W18694   0.828  18.030   0.367  0.0538  0.5569 -0.5091
 2221W        W18695   0.936  10.717   2.583  0.0482  0.3168  0.2116
 2222W        W18696   0.098  17.085   1.480  0.0366 -0.0691 -0.0190
 2223W        W18697   1.763   2.754  15.441  0.2365 -0.0826 -0.1701
 2224W        W18698  11.153   6.254  11.529 -0.0918  0.0160  0.0343
 2225W        W18699  14.659  10.646  11.428  0.0287  0.0995  0.5416
 2226W        W18700  10.321  18.197   0.316 -0.1381  0.0374 -0.0549
 2227W        W18701  12.625  12.433   2.321  0.1347 -0.0836 -0.1384
 2228W        W18702   7.170   6.367   4.369  0.2976 -0.2246  0.0021
 2229W        W18703   9.780  13.999   3.025 -0.2411 -0.1551 -0.1644
 2230W        W18704  14.163   9.278  13.803 -0.1708 -0.0480 -0.4066
 2231W        W18705  10.338   7.816   2.331  0.2220 -0.0564  0.2285
 2232W        W18706  10.964   9.053  13.029  0.1918 -0.0333 -0.0276
 2233W        W18707  10.541   5.982   3.519  0.0672  0.1563  0.3819
 2234W        W18708   1.479   7.642   2.939 -0.3444 -0.0035 -0.6443
 2235W        W18709   5.120   7.116  12.748 -0.0708  0.1004  0.0886
 2236W        W18710   7.323  11.555   1.161  0.0469 -0.1295  0.3206
 2237W        W18711  10.585   4.377  14.131 -0.0185 -0.1385 -0.1353
 2238W        W18712  16.744   8.982  15.150  0.1764  0.1722  0.0242
 2239W        W18713  17.300  13.177  11.339 -0.2742 -0.0582  0.2159
 2240W        W18714   3.721   2.993  13.045 -0.0597 -0.1297 -0.1485
 2241W        W18715  15.880  15.360   5.539  0.0437  0.2957  0.2869
 2242W        W18716  10.473  13.204  12.820  0.4565  0.0276  0.0303
 2243W        W18717   3.799   8.185  15.141 -0.0906  0.0764  0.2269
 2244W        W18718  10.944  12.460   0.063 -0.1388  0.1113 -0.0071
 2245W        W18719  14.004  12.735  13.442  0.0691  0.2715 -0.0470
 2246W        W18720   4.023   6.947  13.275 -0.2051 -0.2793  0.0587
 2247W        W18721  11.037   7.462   2.450 -0.0023  0.1348 -0.2010
 2248W        W18722   2.998  14.530   3.170 -0.1062 -0.0619 -0.1222
 2249W        W18723   0.880  15.210  15.138  0.0771  0.0118  0.1234
 2250W        W18724   4.700  14.464  12.555  0.1034  0.1235 -0.4396
 2251W        W18725  11.529   5.104   5.279 -0.1140 -0.1328  0.1738
 2252W        W18726  11.897   1.683   3.342  0.2328 -0.0106  0.5717
 2253W        W18727  13.158  17.033   2.864  0.1622 -0.1917  0.0359
 2254W        W18728  12.163  15.397   0.531 -0.1613 -0.4232  0.1893
 2255W        W18729   3.450   6.470  14.901 -0.2393 -0.0098  0.0405
 2256W        W18730   2.961   9.481   0.500  0.0506 -0.0448  0.1311
 2257W        W18731  14.310  16.137  12.991 -0.0967  0.1359  0.0669
 2258W        W18732   7.866   9.569  15.646 -0.3087 -0.0374  0.1337
 2259W        W18733   5.786  18.141   4.133  0.0170  0.2830  0.2223
 2260W        W18734  14.350  18.421  12.296  0.1431  0.0838 -0.2427
 2261W        W18735  15.784  12.578   3.512  0.1350  0.0754 -0.0131
 2262W        W18736  12.749  15.221  11.395  0.0774 -0.0349 -0.0878
 2263W        W18737  18.190   7.448  11.720  0.0829  0.0753 -0.2323
 2264W        W18738   3.102  17.865   3.111 -0.0325  0.0824 -0.1454
 2265W        W18739   7.604  12.992   4.856 -0.0562 -0.1280 -0.0465
 2266W        W18740  14.093  13.708  15.007 -0.0966  0.2826 -0.1023
 2267W        W18741  10.509  15.434   0.067 -0.1193 -0.0085 -0.0400
 2268W        W18742  10.045   1.489  12.276 -0.1393 -0.1242  0.0186
 2269W        W18743   4.636  17.023   4.431 -0.0440  0.2479 -0.1073
 2270W        W18744   9.279  16.322   1.609 -0.1706  0.2553  0.1609
 2271W        W18745   2.029   4.453   1.482  0.1001 -0.1903  0.2221
 2272W        W18746   9.756  15.319  11.638 -0.0851  0.0594  0.0226
 2273W        W18747  13.806  15.011  13.205  0.1884 -0.1148 -0.0174
 2274W        W18748  16.081   2.992   5.664 -0.1021 -0.2331 -0.1411
 2275W        W18749  10.499   6.238   6.183  0.0304 -0.1079  0.1431
 2276W        W18750   9.150  11.849   3.338  0.3004 -0.2534  0.1169
 2277W        W18751  12.315  18.183  15.140  0.1323  0.0393 -0.0049
 2278W        W18752  12.956   2.247  13.757  0.0974 -0.2389 -0.2427
 2279W        W18753   2.093   0.063   2.667  0.1876  0.0379 -0.3540
 2280W        W18754  10.996   2.389  11.132  0.0496 -0.0355 -0.1110
 2281W        W18755   2.057  18.246  14.776  0.0614 -0.1009 -0.2635
 2282W        W18756  10.443  10.886   4.169  0.0256  0.1693 -0.0087
 2283W        W18757   0.718   5.803  15.351  0.2847  0.0045  0.2666
 2284W        W18758   5.592  13.152  14.055  0.1214 -0.0981  0.0565
 2285W        W18759  13.006  15.813  14.997  0.0396 -0.1159  0.2684
 2286W        W18760  14.442  14.870   2.061 -0.0819  0.2259 -0.3457
 2287W        W18761  18.173  11.981   0.495 -0.1847  0.2476 -0.2248
 2288W        W18762   0.075   3.532   2.786 -0.1554  0.0833 -0.2316
 2289W        W18763   1.200   0.167  15.689 -0.0597 -0.1727  0.0379
 2290W        W18764   4.211  12.080  13.388 -0.1199  0.1394  0.0248
 2291W        W18765  13.350   9.397   2.326 -0.0080  0.2642  0.0124
 2292W        W18766   1.728   0.081  13.760 -0.1846  0.2899  0.2704
 2293W        W18767  10.312   0.121  14.033  0.1244  0.0617  0.0016
 2294W        W18768   8.480  13.080  11.259  0.1237 -0.1006 -0.1404
 2295W        W18769  17.841  12.031   0.893  0.2452  0.0855  0.1429
 2296W        W18770  12.693   6.489   4.678  0.0263  0.0283  0.1630
 2297W        W18771  10.121   5.079  15.383 -0.0659  0.0764 -0.3128
 2298W        W18772  10.696   8.701  15.682  0.2218  0.0654 -0.0970
 2299W        W18773   0.072   3.627  12.837 -0.0465  0.0277 -0.2263
 2300W        W18774   2.325   9.248   1.398  0.1549  0.1467 -0.0319
 2301W        W18775   4.542   9.763   3.517 -0.1344 -0.2198 -0.0100
 2302W        W18776   4.080   9.639  14.400  0.0863 -0.2116  0.2058
 2303W        W18777  13.585  13.114   4.879  0.2496 -0.1833 -0.1362
 2304W        W18778   6.303   7.784   3.721  0.5642 -0.2524 -0.1475
 2305W        W18779   9.030   4.127   3.523  0.2497  0.0129 -0.1989
 2306W        W18780   0.910  18.297  12.421  0.0286 -0.1844 -0.0961
 2307W        W18781  17.512  17.687   0.643 -0.1047  0.0937  0.2200
 2308W        W18782   9.046  11.111  13.401  0.0343 -0.0483  0.1924
 2309W        W18783  17.812   4.068  13.088  0.1582 -0.2311 -0.0067
 2310W        W18784   2.948   6.259   3.446  0.5528  0.1020  0.1765
 2311W        W18785   1.888  10.948   2.880 -0.1658  0.0701 -0.0250
 2312W        W18786   8.125   3.081  10.882  0.0867 -0.1957 -0.2008
 2313W        W18787  18.423   1.191   3.437 -0.0923  0.3071  0.0716
 2314W        W18788  13.919  16.772   3.120  0.1599  0.0077  0.0358
 2315W        W18789  13.973   4.957  13.078 -0.2324  0.0232  0.2410
 2316W        W18790  18.315  10.876   0.507 -0.1137 -0.1173  0.3321
 2317W        W18791  16.582   9.802   0.425  0.0067  0.3246 -0.2967
 2318W        W18792  13.805   6.425   4.577  0.1273 -0.1668 -0.1935
 2319W        W18793  11.170  13.218   5.861  0.0338 -0.4934  0.0421
 2320W        W18794  13.493   8.632  14.545 -0.3341 -0.1165 -0.0648
 2321W        W18795  17.844   9.916   1.420 -0.2995  0.0450 -0.1290
 2322W        W18796  11.502  10.027  13.273 -0.1209  0.1356 -0.0335
 2323W        W18797   2.257  10.597   0.489 -0.0675  0.1667  0.0912
 2324W        W18798   5.244   7.460   0.374 -0.1579  0.3100 -0.1304
 2325W        W18799  18.119   0.277   4.600  0.1528 -0.1114 -0.0634
 2326W        W18800  10.710   7.142   5.014 -0.1919 -0.3028 -0.0004
 2327W        W18801   9.777   3.965  12.361 -0.1239 -0.0816 -0.0883
 2328W        W18802   0.208  12.415  13.884 -0.1340  0.1568  0.1041
 2329W        W18803   8.096  12.476   1.554  0.1798  0.0564 -0.4553
 2330W        W18804  15.027  12.589  15.573  0.3442  0.0816 -0.1381
 2331W        W18805   3.384  11.932   2.581  0.4369 -0.1004 -0.0464
 2332W        W18806   4.502   7.972  10.890 -0.1000  0.0765  0.0714
 2333W        W18807   9.370   6.641   3.255 -0.1221  0.1461 -0.1171
 2334W        W18808  10.154  14.287  13.627  0.0109 -0.1683 -0.1305
 2335W        W18809   2.816  12.053  13.610  0.0334  0.0039  0.1401
 2336W        W18810  16.718   9.783  14.464  0.0230 -0.2589 -0.5136
 2337W        W18811   7.552   5.197  15.905  0.1102  0.1143 -0.1140
 2338W        W18812  14.095   6.846   4.736  0.3487 -0.1606  0.1387
 2339W        W18813   7.861  16.506   2.536  0.1756  0.0247  0.0367
 2340W        W18814   2.439  17.059  13.133  0.1478 -0.1369  0.1899
 2341W        W18815   5.198  10.268  11.015 -0.1574 -0.1207  0.0849
 2342W        W18816  14.831  10.985   1.287  0.0114 -0.1470  0.1423
 2343W        W18817   1.171  14.158   0.752 -0.0049  0.0123 -0.1567
 2344W        W18818  17.419  13.188  14.912  0.0625  0.1115 -0.0584
 2345W        W18819  16.727  14.181  13.972 -0.5275  0.1730  0.0118
 2346W        W18820   2.736  12.996   6.010  0.0566  0.1455  0.0989
 2347W        W18821  10.996  13.612  11.139 -0.0690  0.0357  0.0888
 2348W        W18822   7.328   1.653   4.005  0.1357  0.1181  0.1171
 2349W        W18823   8.025  17.399   3.685 -0.0333 -0.1584 -0.0260
 2350W        W18824  14.299  10.264  14.402  0.0048  0.0368  0.2363
 2351W        W18825   8.466   3.286   0.567 -0.1006  0.1911  0.0271
 2352W        W18826   0.860  17.046   0.845 -0.3016  0.0140  0.1311
 2353W        W18827  12.181   3.183   1.286 -0.1141 -0.3186 -0.2757
 2354W        W18828  16.180  12.684  12.022  0.4032  0.2349 -0.3123
 2355W        W18829   1.430  13.138  12.915  0.0277 -0.2062 -0.1634
 2356W        W18830  13.701  12.675  15.350  0.1694 -0.3398  0.0313
 2357W        W18831   0.723   6.934  13.842 -0.3959  0.0982 -0.4908
 2358W        W18832  12.603   7.944  14.993 -0.1145 -0.0802 -0.1325
 2359W        W18833  14.019   0.708  11.880  0.0548  0.0159  0.2004
 2360W        W18834  13.265   0.752   3.040 -0.1087  0.2803  0.3338
 2361W        W18835   7.813   5.199   3.848 -0.0527  0.1435  0.1242
 2362W        W18836   3.584   5.341  10.080 -0.4600  0.0523 -0.0045
 2363W        W18837  13.365  15.511   3.240 -0.1679 -0.0916  0.0209
 2364W        W18838  12.500   0.848  12.747 -0.0694  0.1407 -0.0728
 2365W        W18839  17.045  12.702   1.732  0.1136 -0.2202 -0.0875
 2366W        W18840   3.241   3.765  15.441 -0.3220  0.1316 -0.2836
 2367W        W18841  17.654   2.450   5.242  0.0162  0.3367 -0.2734
 2368W        W18842   1.497  18.037  11.590  0.0624  0.3694  0.1190
 2369W        W18843   3.047  11.639  12.806 -0.0766 -0.0296  0.2433
 2370W        W18844  14.279   1.290  15.837 -0.1908  0.0139  0.0958
 2371W        W18845  15.709   1.600   1.223 -0.0868 -0.0370 -0.0800
 2372W        W18846  17.323   0.703  10.441 -0.0375  0.2366  0.0232
 2373W        W18847  11.242  14.318  15.965  0.1519 -0.0027 -0.2682
 2374W        W18848   9.311  13.864  15.064 -0.2314 -0.0339 -0.1496
 2375W        W18849   4.336  15.335   0.086 -0.3554 -0.0415  0.4557
 2376W        W18850  15.583   1.145  11.717  0.1598 -0.1492 -0.0619
 2377W        W18851  11.979  13.468  11.811 -0.0828  0.0049  0.1241
 2378W        W18852   2.042  17.988   3.056 -0.0416 -0.3492  0.0697
 2379W        W18853   4.238  13.001  11.979 -0.1407 -0.2795  0.2526
 2380W        W18854   7.680   5.250   2.875  0.1312 -0.1827 -0.1344
 2381W        W18855  10.361   2.551   0.952  0.1049  0.1540  0.1989
 2382W        W18856  16.746   5.260  11.701  0.2424  0.0109  0.1352
 2383W        W18857   4.221  15.728   3.576  0.0667 -0.2901  0.0186
 2384W        W18858   2.472  16.459  12.424  0.1823  0.0592 -0.0944
 2385W        W18859  11.767  11.227   2.318  0.1505 -0.0324 -0.0990
 2386W        W18860   2.065  11.868   5.005  0.2683  0.2248 -0.0502
 2387W        W18861  11.816  11.998  12.567  0.3364  0.0947  0.2630
 2388W        W18862   3.834  17.296   0.759 -0.0831  0.0169  0.1586
 2389W        W18863  11.953  12.857  13.680 -0.1733  0.0682  0.0190
 2390W        W18864   7.476  14.500   0.033 -0.3804  0.0260 -0.0119
 2391W        W18865  17.401   3.139   0.582 -0.0509  0.1965  0.0426
 2392W        W18866   9.765   1.549   5.326  0.0293 -0.1487 -0.0663
 2393W        W18867  15.286   2.985  14.883 -0.1078  0.0879 -0.0239
 2394W        W18868   1.034   7.481  15.209  0.2176  0.0318  0.1292
 2395W        W18869   5.050   3.475   2.410  0.1009 -0.2813 -0.1296
 2396W        W18870   1.030   2.339   2.574 -0.1624  0.2339 -0.1799
 2397W        W18871  11.091   3.498   2.049  0.1868 -0.1169 -0.2106
 2398W        W18872  10.231   6.391   3.438 -0.3177 -0.2660 -0.1095
 2399W        W18873   9.402   7.967   5.514 -0.0319  0.0457  0.0246
 2400W        W18874  11.609   6.382   1.720  0.2888  0.1363  0.2250
 2401W        W18875   2.579   0.361   3.343  0.0476  0.0347  0.0820
 2402W        W18876  12.642   8.325  13.173  0.1613  0.3342 -0.0126
 2403W        W18877  15.859   6.108  12.624 -0.1159 -0.0344  0.1533
 2404W        W18878  10.497  14.857  15.298 -0.2416 -0.0204 -0.0441
 2405W        W18879  16.217  13.723  11.619 -0.2726  0.1926 -0.0323
 2406W        W18880  14.230   9.692  12.524  0.1566 -0.0897 -0.0521
 2407W        W18881   5.231   4.828   0.151  0.0448 -0.0735 -0.0321
 2408W        W18882  12.210  17.755  14.617 -0.0010 -0.0273 -0.0974
 2409W        W18883  14.424   0.856  14.111  0.0741 -0.0315 -0.2706
 2410W        W18884  16.036   4.173   4.290  0.2796 -0.1985 -0.0038
 2411W        W18885   2.125  16.170   3.638  0.1023  0.1583  0.1820
 2412W        W18886  17.841   9.568   3.614  0.1553 -0.0231 -0.1509
 2413W        W18887   1.199  10.557   2.176  0.2779  0.1519  0.1100
 2414W        W18888  11.657  18.153   0.527  0.0438  0.4563 -0.2454
 2415W        W18889  18.325   9.475   3.458  0.1730 -0.0851 -0.3728
 2416W        W18890  14.189   4.142  15.374 -0.0862  0.1715  0.0174
 2417W        W18891  16.993   1.810  15.265 -0.2207 -0.1929 -0.2002
 2418W        W18892  14.604  13.832  12.940 -0.0404 -0.0698 -0.2290
 2419W        W18893   6.062   8.059   2.277  0.1701  0.1334  0.0382
 2420W        W18894  17.802   1.040  13.083 -0.4241 -0.0236  0.3177
 2421W        W18895   2.852  17.015  13.526  0.0438 -0.1968 -0.2412
 2422W        W18896  18.114  15.256   3.765 -0.2594  0.1167 -0.1264
 2423W        W18897  10.038  13.282   1.867 -0.0006 -0.2078  0.2325
 2424W        W18898   7.319  11.047  12.815 -0.2317  0.1834 -0.0010
 2425W        W18899  14.368   0.199   0.513 -0.2154  0.1139  0.1113
 2426W        W18900   7.679  15.579  13.400 -0.2979  0.3603 -0.2776
 2427W        W18901  18.415  10.571  11.674 -0.0720 -0.0621  0.0158
 2428W        W18902  15.103   4.141   0.975  0.2304  0.1401  0.0639
 2429W        W18903   3.362  14.649  11.136 -0.4227 -0.1014  0.0230
 2430W        W18904   8.697  12.245   4.170 -0.0736  0.1093  0.0954
 2431W        W18905   3.354   9.598  12.243  0.0812 -0.2583  0.0666
 2432W        W18906  15.959  17.643  11.803 -0.0023 -0.3581 -0.1660
 2433W        W18907   7.280   2.816  15.305 -0.0487  0.1425 -0.0027
 2434W        W18908  14.713   5.216  13.810  0.0398  0.0182 -0.0141
 2435W        W18909   3.646  16.920  14.738  0.0173 -0.3917 -0.2828
 2436W        W18910  18.389  12.301   0.986 -0.1651 -0.0870 -0.0942
 2437W        W18911  16.102   8.046  12.482 -0.1718 -0.0950  0.1753
 2438W        W18912  17.925   4.530   2.738 -0.1154  0.2665  0.1683
 2439W        W18913   9.277  11.337  12.989  0.0471  0.1855  0.1714
 2440W        W18914  11.576   3.942  14.078 -0.1315  0.2572 -0.0316
 2441W        W18915  13.711   7.262   3.080 -0.1390 -0.2275 -0.0064
 2442W        W18916   8.853  10.933   1.033 -0.2324 -0.1693  0.2415
 2443W        W18917   3.939   5.147  10.494 -0.3104 -0.2769 -0.0338
 2444W        W18918   7.541  12.679   2.050 -0.1165  0.0858 -0.2999
 2445W        W18919   3.811   4.614  15.469  0.0529 -0.3158 -0.1553
 2446W        W18920  11.569  17.818  15.003  0.0816  0.2857 -0.0699
 2447W        W18921  12.797  10.885  12.957 -0.0339  0.3557  0.0966
 2448W        W18922  13.848  14.637  13.573  0.1404 -0.1841 -0.0079
 2449W        W18923   7.100   3.789   4.526 -0.3056 -0.2734  0.1130
 2450W        W18924  18.094   0.426   1.472 -0.4312  0.1324 -0.1399
 2451W        W18925   5.564   3.606   3.143 -0.1150 -0.1948  0.1107
 2452W        W18926   5.575  17.430   1.012 -0.1864 -0.1475  0.4601
 2453W        W18927   8.348  12.478  12.038 -0.1406 -0.3535 -0.3039
 2454W        W18928  10.171  16.892   9.941 -0.0369  0.1554  0.0767
 2455W        W18929  16.929  14.617   0.781 -0.0850 -0.0701  0.1254
 2456W        W18930   3.938  17.457  12.945  0.2322 -0.3859 -0.2243
 2457W        W18931  15.470  13.636  13.587 -0.2453  0.1781 -0.0993
 2458W        W18932  10.785  11.034   2.420  0.1183 -0.0626  0.0097
 2459W        W18933   9.909   1.937   9.644  0.1445  0.1146 -0.1192
 2460W        W18934   7.339  17.234  12.687  0.2918 -0.1136  0.0332
 2461W        W18935   8.929  14.629   5.479  0.0192 -0.2252 -0.1288
 2462W        W18936   4.654  14.305   4.501  0.1666 -0.0247  0.1196
 2463W        W18937   9.292  12.444  12.061 -0.3534  0.1013 -0.1113
 2464W        W18938   1.200   8.626   5.203  0.4628  0.0115  0.1186
 2465W        W18939   4.131  12.157  11.641 -0.1435 -0.3498  0.2377
 2466W        W18940  13.690  17.412  15.348  0.1454 -0.0349  0.3930
 2467W        W18941   7.265   4.300  14.259  0.0617  0.1673  0.0684
 2468W        W18942  15.019  15.602   3.321 -0.2096 -0.1774 -0.1343
 2469W        W18943   9.492   4.037   0.990 -0.0179 -0.1412  0.0640
 2470W        W18944  14.915  12.604  12.549 -0.2233  0.2281 -0.2550
 2471W        W18945   8.464  17.332   3.413  0.2786 -0.0177 -0.3342
 2472W        W18946   0.606  12.256   2.191  0.0596 -0.0007  0.1508
 2473W        W18947   9.096  13.512  14.425 -0.1605  0.1481 -0.1693
 2474W        W18948   9.680   8.413   1.951  0.0571 -0.1417 -0.2350
 2475W        W18949   4.597   3.775   5.166  0.0274 -0.0918 -0.0545
 2476W        W18950   2.016   8.050   3.211 -0.1214 -0.1030 -0.4085
 2477W        W18951  17.584  18.032  10.922 -0.0215 -0.0610 -0.0910
 2478W        W18952   6.867  12.260  12.671 -0.2664 -0.1009  0.2447
 2479W        W18953   2.109   8.234  15.318  0.1170  0.0488  0.4373
 2480W        W18954  10.287   9.044   1.042  0.3610 -0.1027 -0.1395
 2481W        W18955   0.161   4.277   1.077  0.0367  0.3074  0.1254
 2482W        W18956   2.042   8.080   0.210  0.1160 -0.0447 -0.1203
 2483W        W18957   0.954   2.735  13.041 -0.1549  0.1859 -0.1499
 2484W        W18958  14.261  17.566   2.160  0.0466 -0.1554  0.1667
 2485W        W18959  11.702   8.512   3.858  0.0435 -0.1205  0.2290
 2486W        W18960  10.158  10.272  11.047 -0.2116 -0.3537  0.1661
 2487W        W18961   9.667   5.028   2.732  0.2455 -0.2493 -0.1041
 2488W        W18962  10.173  13.571   4.564 -0.1167  0.1624  0.0541
 2489W        W18963  11.639  11.249   1.368 -0.1173 -0.1267 -0.3800
 2490W        W18964   1.413   7.116   0.581  0.1043  0.1698  0.0923
 2491W        W18965  17.900  16.570  15.680  0.1428  0.1193 -0.0301
 2492W        W18966   7.268   2.901   2.022 -0.2767  0.0060  0.2734
 2493W        W18967  17.781  14.351   2.866 -0.3260 -0.3033 -0.0204
 2494W        W18968  10.878  15.827  14.373 -0.2030  0.1912  0.0526
 2495W        W18969  17.334   2.513  15.668 -0.3277 -0.0665  0.3333
 2496W        W18970   3.926   6.610  15.218 -0.2923 -0.2346  0.3001
 2497W        W18971  11.358   7.451   1.951  0.3964 -0.0273  0.2762
 2498W        W18972  17.758  12.046  10.706 -0.1245 -0.1292 -0.0604
 2499W        W18973  18.461  17.983   2.471 -0.1381 -0.1159  0.1130
 2500W        W18974  10.338  11.393   5.546 -0.2071 -0.2209  0.0691
 2501W        W18975   8.390  12.341   0.378  0.0403 -0.1074 -0.0875
 2502W        W18976  16.025  13.406  15.623 -0.0827  0.1228  0.1526
 2503W        W18977  10.139  12.908  15.630 -0.1769 -0.1262 -0.3691
 2504W        W18978  18.368   6.649  12.857 -0.1167 -0.2471 -0.0826
 2505W        W18979   5.165   5.840  14.736 -0.1006 -0.0967 -0.1801
 2506W        W18980   2.184   5.761   1.960 -0.0101  0.2019 -0.0174
 2507W        W18981   5.732   8.789   5.009  0.0890  0.1991  0.1626
 2508W        W18982   6.382   6.489  15.282 -0.0254 -0.0858 -0.2231
 2509W        W18983   3.702   6.138  12.452  0.1172 -0.1213 -0.1659
 2510W        W18984  17.387   3.090  13.071  0.2277  0.0368 -0.1688
 2511W        W18985   6.946   5.085  14.410  0.2760  0.0233 -0.0305
 2512W        W18986  10.679  15.703   5.282  0.0334 -0.2632  0.0442
 2513W        W18987  14.793  13.106   5.375  0.0701 -0.0661 -0.0972
 2514W        W18988   3.323  11.756   2.081  0.0271 -0.2597 -0.0492
 2515W        W18989   0.261   9.643   4.464  0.0992  0.5734 -0.2952
 2516W        W18990   4.718  11.640  11.020  0.0538  0.2725  0.0986
 2517W        W18991   3.616  10.434  10.952  0.1175  0.2785  0.0684
 2518W        W18992   1.995  10.292  13.459 -0.0080 -0.2760  0.0872
 2519W        W18993  17.670  15.329  15.450 -0.0895 -0.0313  0.0924
 2520W        W18994   3.141  17.615  12.987  0.0228  0.1604  0.0323
 2521W        W18995   0.751  17.618   4.696  0.2509 -0.0046  0.0391
 2522W        W18996  12.374   5.935   3.239 -0.0437 -0.0777  0.1768
 2523W        W18997  12.870   8.217   0.254  0.0827  0.2397  0.2251
 2524W        W18998   8.816  17.848  11.337  0.0902 -0.1324 -0.0772
 2525W        W18999  18.310   9.329   0.428  0.1439 -0.2546 -0.0846
 2526W        W19000   7.870   9.593   2.727 -0.0253 -0.0726  0.4475
 2527W        W19001   4.168  15.107   4.391 -0.2254 -0.1437 -0.2506
 2528W        W19002  14.248   4.719   4.964  0.0632  0.1032  0.0486
 2529W        W19003   8.715   5.460  11.473  0.0113 -0.1357 -0.3834
 2530W        W19004  18.004  10.921  12.610 -0.1606  0.1188 -0.3910
 2531W        W19005   9.619   9.004   3.020 -0.2541  0.2735 -0.1269
 2532W        W19006   5.352   0.450   2.112  0.1356  0.1791 -0.1759
 2533W        W19007   5.659   8.772   0.309  0.2505  0.1382  0.2609
 2534W        W19008  17.652   4.103  11.829 -0.1950 -0.0489  0.1433
 2535W        W19009  13.131  13.719  14.655  0.3380  0.2023 -0.2325
 2536W        W19010   6.845   8.921   5.336  0.0752 -0.1677 -0.2777
 2537W        W19011   7.641  16.887  12.888 -0.0975 -0.2382 -0.3071
 2538W        W19012   2.821   4.081   1.368 -0.1182 -0.1961 -0.0452
 2539W        W19013   1.519  14.558   5.102 -0.0681 -0.2351 -0.2452
 2540W        W19014  14.743  14.852   4.125  0.0613 -0.0735  0.0413
 2541W        W19015   2.807   4.359  10.425 -0.0217  0.0158  0.0331
 2542W        W19016   1.102   2.037   5.053 -0.5603  0.2150 -0.1437
 2543W        W19017   0.567  15.530  15.546  0.2295  0.1922 -0.3141
 2544W        W19018   5.422   7.924   4.502 -0.0556  0.0986 -0.3026
 2545W        W19019  12.692   8.818   1.125  0.0887  0.4167  0.0385
 2546W        W19020  10.764  11.066  15.221 -0.0471 -0.1797  0.2340
 2547W        W19021   9.089   1.793   4.337 -0.1790 -0.1373 -0.3147
 2548W        W19022   4.088  18.446   0.152 -0.1962  0.2190 -0.1838
 2549W        W19023   8.035  13.929  11.215  0.3545  0.1774  0.0571
 2550W        W19024  14.699  18.450   3.385 -0.0936  0.0204 -0.0668
 2551W        W19025   6.737  16.077   1.368 -0.2490 -0.1412 -0.3552
 2552W        W19026   7.842   5.130  13.834  0.0741 -0.0082 -0.4092
 2553W        W19027  10.788   3.933  11.276 -0.1086  0.0731 -0.1373
 2554W        W19028   3.782   2.723   1.218 -0.1039  0.1853 -0.0929
 2555W        W19029   8.680  16.790  10.950  0.1152  0.0306  0.3717
 2556W        W19030   9.130   6.747  12.951  0.0911 -0.2084  0.0411
 2557W        W19031   1.546  10.421  15.732  0.3801 -0.1151 -0.1607
 2558W        W19032  13.089   8.685   0.272  0.2174  0.3752 -0.1362
 2559W        W19033  14.358  12.010   2.280  0.0840  0.4058 -0.2446
 2560W        W19034  15.903  17.927   4.915 -0.1054 -0.6231 -0.0268
 2561W        W19035   2.261  14.853   1.105  0.1662  0.1626  0.0647
 2562W        W19036  13.091   5.278  12.784  0.2595 -0.0103 -0.3040
 2563W        W19037   1.771  12.145   4.577 -0.3190  0.2610 -0.3185
 2564W        W19038   9.193   0.761  10.925 -0.3603 -0.0576 -0.1714
 2565W        W19039   7.261   9.532  14.145 -0.1309 -0.0300 -0.0160
 2566W        W19040  13.555   8.243  11.844 -0.2634  0.0903 -0.0381
 2567W        W19041   2.231  16.456  11.583 -0.1899  0.0307  0.0020
 2568W        W19042   6.769   9.307   2.804 -0.2185  0.1595 -0.0730
 2569W        W19043  18.043  14.833  13.373 -0.0852 -0.0962 -0.2142
 2570W        W19044   8.492   2.568  12.943  0.3685 -0.1019 -0.1086
 2571W        W19045   2.580   4.562  12.963 -0.1364 -0.0226  0.0026
 2572W        W19046   2.613   4.075  12.483 -0.0343 -0.0843  0.2765
 2573W        W19047   3.837  11.163  15.217  0.1004 -0.0463 -0.4713
 2574W        W19048  17.814   7.598  14.875 -0.0542  0.4218  0.0060
 2575W        W19049  11.491   0.614   2.578 -0.0303 -0.1374 -0.0882
 2576W        W19050  14.013  14.348   5.335  0.3520 -0.1359 -0.2497
 2577W        W19051   0.266  15.801   1.093 -0.0891 -0.0795  0.0893
 2578W        W19052  15.551   4.393   2.215  0.0365 -0.0321  0.1121
 2579W        W19053  10.147  10.609  12.343  0.0353 -0.0116  0.1884
 2580W        W19054  16.437   5.669   2.574  0.1672 -0.0230  0.0619
 2581W        W19055   6.419  11.020  12.590  0.1702 -0.0646 -0.0595
 2582W        W19056  12.756   5.648  12.605  0.0631  0.1453 -0.1108
 2583W        W19057   1.197   0.763  13.424 -0.1896 -0.1806 -0.2480
 2584W        W19058  12.927  10.928  15.626 -0.0021 -0.0195 -0.2785
 2585W        W19059   4.820  15.613  13.009  0.0017  0.0858  0.1905
 2586W        W19060   5.018  15.370   0.302  0.1085 -0.0788 -0.1131
 2587W        W19061   2.192  13.849  14.881 -0.0792 -0.1555 -0.1878
 2588W        W19062   4.869   8.398   2.009 -0.1350 -0.2361 -0.1351
 2589W        W19063  11.008   1.188  13.947 -0.1316 -0.1829  0.1044
 2590W        W19064   5.202   4.367   4.636  0.0985 -0.2672  0.1846
 2591W        W19065   9.862   0.077   3.140  0.3183  0.2009  0.0782
 2592W        W19066  17.530   5.741   2.214 -0.2464  0.4544 -0.0628
 2593W        W19067   2.284   2.217  11.659 -0.0609 -0.3093 -0.2086
 2594W        W19068   6.460  17.411   4.352  0.1012  0.2623  0.1061
 2595W        W19069   6.768   0.669  12.069 -0.5038 -0.0360  0.2244
 2596W        W19070  14.194  11.970  15.387 -0.0403 -0.2792  0.1746
 2597W        W19071   1.422  12.765   0.130  0.5018 -0.1904 -0.1904
 2598W        W19072  15.698  15.118   5.046 -0.1422  0.0296 -0.1832
 2599W        W19073   1.224   7.627  13.972  0.1262  0.3243  0.2297
 2600W        W19074  11.362   6.542   0.743 -0.3079  0.1093 -0.1948
 2601W        W19075   8.434   2.055  12.864 -0.2250 -0.1378 -0.3405
 2602W        W19076  14.546   1.261  12.427 -0.1288  0.1851  0.1736
 2603W        W19077   7.613   4.597  14.035 -0.1365  0.0442 -0.1991
 2604W        W19078  11.317   4.063   0.798 -0.3725 -0.2886 -0.0362
 2605W        W19079   6.902   7.164   2.709  0.0247 -0.1944 -0.1380
 2606W        W19080   5.010  17.454  15.136 -0.1983 -0.0866 -0.1777
 2607W        W19081   3.602  17.030   3.327 -0.0752 -0.0516  0.1044
 2608W        W19082  10.938  12.274   1.611 -0.1102 -0.2174  0.1821
 2609W        W19083  14.544  15.859   2.286 -0.2054 -0.1733  0.0205
 2610W        W19084   9.297   1.615  10.900  0.0741  0.1604  0.1427
 2611W        W19085   3.575   2.531  11.074  0.2788 -0.1198 -0.0851
 2612W        W19086   0.405   5.179  15.818 -0.1753  0.1736  0.3721
 2613W        W19087   1.283  16.048   2.587 -0.0772 -0.0796 -0.2132
 2614W        W19088   3.981   5.894   4.562  0.5336  0.0200  0.0596
 2615W        W19089  17.990  10.640   5.224 -0.1322 -0.0786  0.2113
 2616W        W19090  12.368  11.630  14.452  0.0485 -0.0987  0.1930
 2617W        W19091   6.555  13.857  10.076 -0.3292  0.3151 -0.2390
 2618W        W19092   0.969  16.104   1.682 -0.1028  0.0098 -0.0097
 2619W        W19093  12.686   3.647   5.602 -0.1475 -0.2544  0.2217
 2620W        W19094   1.143  15.435  11.384 -0.1251 -0.2819  0.0399
 2621W        W19095   2.777   1.786   3.963  0.0401 -0.0554 -0.0997
 2622W        W19096  10.500   1.192  11.685 -0.0363  0.0469 -0.1023
 2623W        W19097  10.949  11.800   0.246  0.3254 -0.0467 -0.0930
 2624W        W19098  18.430  16.838   2.334 -0.0222  0.0797 -0.2357
 2625W        W19099  15.969   4.252   0.139 -0.1987 -0.2377  0.0802
 2626W        W19100  10.470   5.236   2.164 -0.0878 -0.3223  0.1382
 2627W        W19101   3.499  13.004  12.668  0.1632 -0.2228  0.0931
 2628W        W19102   7.698   4.026   1.230 -0.0543  0.0659 -0.1694
 2629W        W19103  10.226  18.225   4.704 -0.2631 -0.0993 -0.1705
 2630W        W19104   1.185  12.770   0.706  0.2139 -0.2829 -0.2933
 2631W        W19105   2.118   5.713  11.696 -0.2014 -0.1298 -0.2965
 2632W        W19106  18.153  12.338   4.159 -0.0611 -0.1512 -0.1837
 2633W        W19107  17.819  17.937   4.583  0.0287 -0.1241  0.0714
 2634W        W19108   4.273  16.696   1.988 -0.0721  0.0861  0.1084
 2635W        W19109   9.879  10.767   3.903  0.0166 -0.3778  0.1776
 2636W        W19110   2.348  11.118   0.654  0.3850  0.0918  0.1958
 2637W        W19111  17.342  13.769   6.059  0.0828 -0.1660  0.1222
 2638W        W19112   6.112   2.511  13.510  0.1317  0.2829 -0.2194
 2639W        W19113   5.554  10.589  12.302 -0.2350  0.1118 -0.0025
 2640W        W19114   6.770  16.006  11.900  0.1005 -0.0774 -0.0031
 2641W        W19115  14.041   5.276   2.875  0.0702 -0.0927 -0.1200
 2642W        W19116  11.488   1.116  10.776  0.1262 -0.1139 -0.1401
 2643W        W19117  15.764   6.312   3.060  0.1385  0.0647 -0.1422
 2644W        W19118   6.410  11.921  12.511  0.0123 -0.2165 -0.0297
 2645W        W19119   1.201   4.890  14.921  0.2511 -0.1842  0.0044
 2646W        W19120  13.309   4.262   4.202 -0.0663  0.0940  0.0714
 2647W        W19121  11.257  14.395  11.290 -0.0343  0.0348 -0.1673
 2648W        W19122  12.793   1.726  12.362  0.0052 -0.0548  0.1172
 2649W        W19123   8.119   2.503  10.966 -0.0434 -0.0779 -0.1804
 2650W        W19124  15.983  18.137   3.034  0.0519 -0.3432 -0.0344
 2651W        W19125  12.641   9.153   0.150  0.1010  0.0333  0.5236
 2652W        W19126   4.489  16.308   4.944 -0.0113 -0.1267  0.1219
 2653W        W19127  14.009   1.517   1.115 -0.0756 -0.1326 -0.1109
 2654W        W19128   5.071  12.179  15.970  0.1924 -0.0983 -0.0451
 2655W        W19129  17.722   5.756  14.351 -0.1114 -0.1748 -0.0549
 2656W        W19130  14.106   4.684  15.318 -0.1164 -0.3994  0.0855
 2657W        W19131  13.271  18.363   1.235  0.1890  0.1679 -0.1406
 2658W        W19132   2.243   4.658   3.901 -0.0304 -0.2799  0.1104
 2659W        W19133  15.653   4.258  13.407  0.1297  0.1047 -0.3427
 2660W        W19134   2.898  13.929   2.507  0.1410 -0.0434  0.1883
 2661W        W19135   4.035  18.332  13.884  0.0283 -0.0661  0.1025
 2662W        W19136  15.851   8.606   2.781 -0.0187  0.0824 -0.0890
 2663W        W19137  15.849  18.384  14.766  0.0703 -0.0956  0.1503
 2664W        W19138   8.587   8.403   1.325  0.2791 -0.0495  0.0623
 2665W        W19139  11.241  17.279   4.938  0.2772 -0.1566  0.0195
 2666W        W19140   8.444  12.637   1.244  0.1963 -0.2337  0.2184
 2667W        W19141   5.129   5.964  10.268 -0.1240 -0.1970  0.0625
 2668W        W19142  13.555   6.903  15.896  0.0586  0.1518  0.1655
 2669W        W19143   9.733  15.294   3.731  0.2847 -0.1222 -0.1639
 2670W        W19144   4.547   1.802  12.340  0.1743  0.1713 -0.1537
 2671W        W19145   6.367   2.553   2.140 -0.1241  0.3273  0.2692
 2672W        W19146   4.761  15.075   1.923  0.0343  0.3139 -0.0871
 2673W        W19147   3.518   6.395   2.591  0.2524 -0.0373 -0.1951
 2674W        W19148   8.667  10.208   2.164 -0.2043 -0.0969 -0.0710
 2675W        W19149  13.895  13.597   1.133 -0.0757 -0.2525 -0.0491
 2676W        W19150   6.313   9.596   0.481  0.3460  0.1445  0.2584
 2677W        W19151  12.412  18.297  15.669  0.2030  0.1133  0.2672
 2678W        W19152   1.342   6.797   4.288 -0.0913 -0.1560  0.0378
 2679W        W19153   8.658  10.103  11.678 -0.0782 -0.1335  0.0952
 2680W        W19154   3.160   3.063   3.739 -0.1743 -0.0831  0.3039
 2681W        W19155  14.202  14.867   4.283  0.0127 -0.0143  0.0459
 2682W        W19156  17.407   8.224   5.513 -0.2453  0.2758  0.0253
 2683W        W19157   4.950   8.150  14.209  0.1269 -0.1939 -0.0153
 2684W        W19158   8.276  17.962  11.551 -0.1493  0.0813  0.1357
 2685W        W19159   4.442  17.606   2.242 -0.6117 -0.2122  0.0895
 2686W        W19160   3.098   9.349   0.970  0.1233  0.0645 -0.0900
 2687W        W19161   4.704   4.637   4.914 -0.0118 -0.1479  0.1578
 2688W        W19162   5.449  16.784  13.197  0.1889  0.0441  0.1184
 2689W        W19163  17.297  14.680   1.098 -0.1204  0.3177 -0.0405
 2690W        W19164  16.144  10.085  14.767  0.0386  0.1051  0.2218
 2691W        W19165   2.120  10.932  13.373 -0.1863 -0.4087  0.0082
 2692W        W19166   2.567  10.256   0.879 -0.0665 -0.0431  0.1626
 2693W        W19167  12.149  12.333  12.298  0.1209 -0.1914  0.0906
 2694W        W19168   8.735   8.186  13.704 -0.0450  0.0827  0.2550
 2695W        W19169   6.438   3.213  11.914  0.4475  0.0100  0.3069
 2696W        W19170  16.307   7.239   3.240  0.2692  0.0683  0.4070
 2697W        W19171   1.791   0.832   1.324 -0.0998 -0.1135 -0.0946
 2698W        W19172  11.471   2.671   2.140  0.0380 -0.0781  0.2219
 2699W        W19173  14.171  15.886   2.816 -0.0578 -0.0167 -0.1923
 2700W        W19174  12.294  15.173  14.684 -0.0979 -0.1363  0.2190
 2701W        W19175   0.811   1.027  15.516  0.0997 -0.0305 -0.0737
 2702W        W19176   3.750   5.135  12.732 -0.1469  0.1239 -0.1265
 2703W        W19177   7.133  15.872  12.809 -0.3546  0.0009 -0.2857
 2704W        W19178   3.043   7.389   4.891 -0.0008 -0.0698 -0.1927
 2705W        W19179  10.403  15.875   2.950  0.3773 -0.0640 -0.0862
 2706W        W19180  15.932   0.140   2.089  0.1417 -0.1891  0.0311
 2707W        W19181   0.564   9.319  12.698  0.3068  0.0539 -0.1292
 2708W        W19182   5.645  14.201  11.643 -0.0177  0.0604  0.0887
 2709W        W19183   0.068   4.662   0.692  0.1025 -0.1305  0.1680
 2710W        W19184   5.220   1.554   4.842 -0.2928 -0.3303  0.0270
 2711W        W19185  10.142  15.231  10.947 -0.2923 -0.4756 -0.3410
 2712W        W19186   3.736  10.294   5.476  0.1288  0.1653 -0.0020
 2713W        W19187   5.147  11.380  11.078  0.0828  0.6276  0.0710
 2714W        W19188   7.222   6.925   4.139 -0.0484 -0.4000  0.0639
 2715W        W19189  16.669  12.027   3.906  0.3700 -0.0034  0.1616
 2716W        W19190   5.564   2.933  11.367  0.1235  0.3908 -0.0985
 2717W        W19191   0.254   9.680   5.877 -0.2731  0.6239 -0.1745
 2718W        W19192   8.294  10.900  15.237 -0.0406  0.0488 -0.0311
 2719W        W19193   5.357   8.968   5.419  0.2066  0.1807  0.1385
 2720W        W19194   3.887  14.469   5.365  0.2793  0.1992 -0.1028
 2721W        W19195   5.996   7.397  12.978  0.3130 -0.0859 -0.2417
 2722W        W19196   2.702   7.636  13.040 -0.0553  0.0578 -0.1352
 2723W        W19197   6.157  16.327   2.515 -0.2435  0.0964 -0.1462
 2724W        W19198  13.477  17.915   1.326  0.0548  0.0969 -0.1185
 2725W        W19199   2.879  10.382  13.587  0.0155  0.1495  0.3017
 2726W        W19200   4.160  10.642   1.538 -0.1763 -0.0830  0.0669
 2727W        W19201  10.051  15.242   0.007  0.0244 -0.0276 -0.0465
 2728W        W19202  13.487   7.675   2.377 -0.1329 -0.0086 -0.0026
 2729W        W19203   7.960  15.551  11.429  0.1547  0.0280  0.2361
 2730W        W19204   3.569  10.737   3.889 -0.0404 -0.1296 -0.1764
 2731W        W19205  13.973   2.738  11.412 -0.1732  0.0563  0.0848
 2732W        W19206   8.740   4.362  12.083 -0.2362 -0.0586  0.0659
 2733W        W19207   5.003  10.116   2.359  0.0725 -0.0847  0.0024
 2734W        W19208   6.507   7.760   2.207 -0.1394 -0.0921 -0.4039
 2735W        W19209  10.159  11.758   0.412 -0.4734  0.0817  0.2867
 2736W        W19210   8.645  12.215  15.453 -0.2830  0.0886  0.1863
 2737W        W19211   2.290  15.376   5.619  0.2980 -0.1513 -0.1027
 2738W        W19212  14.670  17.616   3.549 -0.0297 -0.2487 -0.0437
 2739W        W19213  13.494   5.974   0.126 -0.0111  0.2858  0.2164
 2740W        W19214  10.042   0.660  12.436  0.0147 -0.2012 -0.1513
 2741W        W19215  13.593   7.597   5.322 -0.0813 -0.1494 -0.0053
 2742W        W19216   5.915   7.923   0.203 -0.1626  0.3351  0.1555
 2743W        W19217  11.148  16.183   0.002 -0.1442  0.1431 -0.2586
 2744W        W19218  16.907   7.813   0.920 -0.0992  0.0089  0.0222
 2745W        W19219   6.605   1.356  14.669 -0.2960 -0.1217  0.4481
 2746W        W19220   8.818  12.028  12.673 -0.1116  0.2098 -0.0209
 2747W        W19221   1.802  11.335   3.727  0.0372 -0.1177  0.2225
 2748W        W19222   9.119   2.299   4.047 -0.0852  0.0344 -0.0626
 2749W        W19223   8.985   1.743  11.825 -0.0514  0.1006  0.0691
 2750W        W19224  15.244   6.926   0.612 -0.0437 -0.2576  0.2382
 2751W        W19225   9.149  14.118   4.735  0.1464  0.2541 -0.1265
 2752W        W19226  10.400   6.645  11.571  0.0436  0.0419 -0.0597
 2753W        W19227   2.013   8.455   0.532  0.1031  0.3271 -0.1231
 2754W        W19228   0.833   1.664   3.035  0.1198  0.1991 -0.3342
 2755W        W19229  14.332   3.254   0.264  0.1687  0.2082  0.2889
 2756W        W19230  16.646  12.027   5.002  0.0505 -0.1181 -0.0623
 2757W        W19231   9.878   5.058   4.774  0.1369 -0.0610  0.0646
 2758W        W19232  16.733  17.137   1.775  0.1603 -0.0059 -0.1105
 2759W        W19233   4.348  12.121   0.374  0.3206 -0.1098  0.1412
 2760W        W19234  12.953   2.951  13.153 -0.1325  0.0915 -0.0623
 2761W        W19235  15.848  13.762  15.248 -0.0087 -0.1656 -0.0262
 2762W        W19236   1.942  15.651   4.724 -0.2245  0.4305  0.0223
 2763W        W19237   2.138   3.262   0.775  0.2622  0.2126  0.0124
 2764W        W19238   2.468  18.433   3.606 -0.0977  0.4583 -0.1188
 2765W        W19239  15.621  16.360  15.250  0.3834 -0.0667  0.1583
 2766W        W19240   2.096   7.644  14.337  0.3223  0.1917 -0.1477
 2767W        W19241   3.393  12.954   3.208 -0.0734 -0.1756 -0.2803
 2768W        W19242  13.804   8.308   4.474  0.0045 -0.0265 -0.1877
 2769W        W19243  17.356  11.330  14.294  0.0690 -0.0515  0.0094
 2770W        W19244   6.389  15.272   1.743  0.0529 -0.0508 -0.2436
 2771W        W19245   4.416  13.644  11.571 -0.1392 -0.0079  0.1269
 2772W        W19246  13.529   0.263  13.990 -0.0899  0.1373 -0.0078
 2773W        W19247   2.506  18.027   1.639 -0.2897  0.0463 -0.1609
 2774W        W19248  10.991   3.404   1.215 -0.1248  0.2468 -0.2400
 2775W        W19249  17.413   0.180  13.623  0.5894 -0.0233 -0.3222
 2776W        W19250   3.786   0.172   3.034  0.1276  0.0315 -0.1924
 2777W        W19251  13.630   3.504   3.546 -0.1171 -0.1519  0.0403
 2778W        W19252   7.961   1.208  15.541 -0.2001  0.0705  0.2582
 2779W        W19253  16.859   3.791   2.069  0.1075 -0.0637  0.3422
 2780W        W19254  15.331   6.911   3.387  0.3059 -0.0235  0.0213
 2781W        W19255   0.333  13.187   5.055 -0.2779 -0.0865 -0.2860
 2782W        W19256  14.443   2.283  12.173 -0.0315  0.0054 -0.2181
 2783W        W19257  12.385   7.408  13.799 -0.0452  0.0659  0.1573
 2784W        W19258   6.357  16.314   1.592 -0.0349  0.1195 -0.0941
 2785W        W19259  14.010  10.876   0.939  0.1045 -0.0846 -0.0143
 2786W        W19260   1.792  12.792   3.202  0.0646  0.0653  0.1847
 2787W        W19261   9.556   1.470   2.985 -0.1551  0.3432 -0.0028
 2788W        W19262   4.211   5.688   4.102  0.0290  0.1691  0.0878
 2789W        W19263  12.523   5.166  11.174 -0.2982  0.0152 -0.1772
 2790W        W19264   9.862   6.983   4.761 -0.2640 -0.0449  0.2234
 2791W        W19265  16.488   4.807   2.468 -0.3065 -0.1149  0.0894
 2792W        W19266   8.485  12.174  14.522  0.1961 -0.3134 -0.0930
 2793W        W19267   5.693  14.558   3.261 -0.1162  0.2231  0.1222
 2794W        W19268   8.337   5.499   3.406  0.3220  0.2090 -0.0553
 2795W        W19269  13.203  15.001  11.178 -0.0242  0.2901  0.2677
 2796W        W19270   4.817  16.857  11.159 -0.1222 -0.1115 -0.0585
 2797W        W19271  17.221  17.602   1.470  0.4097 -0.1139 -0.2938
 2798W        W19272   1.557  14.685  15.521 -0.1771  0.2275  0.0681
 2799W        W19273  14.383   8.493  13.229 -0.0149  0.1106  0.0353
 2800W        W19274  18.250  13.589  15.674  0.0924  0.0664  0.2078
 2801W        W19275  10.526  15.704   1.011 -0.2935  0.0972  0.1194
 2802W        W19276   7.186   7.628   1.359  0.0395  0.0826 -0.2655
 2803W        W19277   7.187   2.427  12.373  0.1450 -0.3053  0.1271
 2804W        W19278  11.033   9.965  14.467 -0.0427  0.0483  0.0870
 2805W        W19279  18.134   6.932   2.680  0.1985  0.3318 -0.1374
 2806W        W19280   8.713  15.456  15.025 -0.3162 -0.1818  0.1805
 2807W        W19281  13.097   5.831  13.009 -0.1405 -0.1158  0.0028
 2808W        W19282   0.984   5.986  11.730 -0.2121 -0.0898 -0.0141
 2809W        W19283   8.897  14.335  14.531 -0.1327 -0.0141 -0.2242
 2810W        W19284  12.879   1.575  13.000 -0.0003 -0.1217 -0.3673
 2811W        W19285  11.396   0.532  15.837 -0.0432  0.0006 -0.1024
 2812W        W19286  16.851   0.404   1.031 -0.0662 -0.0458  0.0191
 2813W        W19287  15.901   3.357  14.638 -0.1536  0.0349 -0.1189
 2814W        W19288  10.628   7.971   4.382 -0.2128 -0.1353 -0.0061
 2815W        W19289  10.657  10.838  14.690 -0.2608 -0.1903  0.4057
 2816W        W19290   1.794  12.766  14.107  0.0146  0.1603 -0.0249
 2817W        W19291   2.146  12.711   2.786  0.0069  0.1820 -0.1544
 2818W        W19292   9.358   8.916   1.251 -0.1176 -0.1526 -0.0838
 2819W        W19293   8.967   9.063  15.111 -0.0154  0.0271  0.0971
 2820W        W19294   7.606   2.154  12.228 -0.0351  0.1196  0.1593
 2821W        W19295   2.541   6.954  12.223 -0.1427 -0.0692  0.0773
 2822W        W19296   5.856  10.816  15.665 -0.1051 -0.2493 -0.1313
 2823W        W19297   9.786   0.547  11.318  0.1864 -0.0660 -0.2075
 2824W        W19298   8.307   0.566   4.732 -0.4460 -0.2409  0.0352
 2825W        W19299  16.586  12.539   3.171 -0.0235  0.0385  0.2290
 2826W        W19300   5.428  15.907   2.690 -0.0901 -0.0679 -0.0573
 2827W        W19301  11.521  12.158  14.998 -0.2280  0.2165 -0.0459
 2828W        W19302   5.185  12.618  12.703  0.2036  0.0627  0.0301
 2829W        W19303   5.734  11.708  13.213  0.0847  0.1660 -0.4280
 2830W        W19304   5.478  13.423   3.573 -0.2233 -0.1707 -0.4441
 2831W        W19305  17.207   1.934  12.027 -0.0266 -0.1408  0.0697
 2832W        W19306   2.497  10.912  12.454  0.3179  0.0651  0.1529
 2833W        W19307   4.435   3.862   3.521 -0.1104  0.0102 -0.1311
 2834W        W19308   7.857   4.303   5.731  0.1287 -0.0954  0.2479
 2835W        W19309   3.433   9.393   5.048  0.2717 -0.0178  0.0133
 2836W        W19310  16.489  12.917  11.715 -0.0599  0.0551  0.2587
 2837W        W19311   3.223   1.326  15.399  0.2741 -0.0416  0.0616
 2838W        W19312  13.497   3.436  12.981 -0.1269  0.1123 -0.0123
 2839W        W19313   8.810   7.322  14.826 -0.0629  0.3814 -0.3384
 2840W        W19314   0.845   6.430  12.433 -0.0380  0.0793 -0.0276
 2841W        W19315   0.659   0.008  10.531 -0.4107  0.2611 -0.0071
 2842W        W19316  14.763  17.993  12.435 -0.3285 -0.0767 -0.1439
 2843W        W19317   5.922  17.954  11.197  0.0755  0.2443 -0.1033
 2844W        W19318  16.060  15.129   2.636  0.1463 -0.2341 -0.1980
 2845W        W19319   5.549   9.240   0.536 -0.1859  0.1037 -0.0017
 2846W        W19320   5.227  15.155   1.860  0.0844 -0.0464  0.0658
 2847W        W19321   2.216  16.202   0.582  0.0452 -0.0882  0.1146
 2848W        W19322  10.828  13.390  14.592  0.2093  0.0188 -0.0679
 2849W        W19323   4.465  15.721   2.631  0.0164 -0.0885  0.2644
 2850W        W19324  11.731   9.855   4.068 -0.2086 -0.2087 -0.1047
 2851W        W19325   6.414   9.016  15.512  0.1928 -0.1704 -0.2235
 2852W        W19326  16.812   7.828  15.903 -0.0838 -0.1376  0.1010
 2853W        W19327   2.800   4.572   1.503 -0.0215 -0.1334  0.0573
 2854W        W19328  11.663  14.128  13.084 -0.0677  0.1283  0.0354
 2855W        W19329   3.750  15.047   2.597  0.2289  0.0799 -0.0725
 2856W        W19330   4.848  17.273  13.819 -0.4131 -0.1166 -0.0889
 2857W        W19331   2.469   6.265   1.991 -0.1674 -0.2854 -0.1727
 2858W        W19332  11.025  17.900  11.838  0.1958  0.3348  0.0393
 2859W        W19333  17.843   8.923  11.296 -0.5194 -0.0073 -0.2977
 2860W        W19334  10.330   9.567   0.226 -0.0445 -0.0513 -0.1361
 2861W        W19335   8.828   9.055   2.489 -0.0863  0.1157  0.2121
 2862W        W19336   8.450   4.665   3.795 -0.2726 -0.2591  0.0019
 2863W        W19337   7.981   3.102   5.256  0.0105  0.1341 -0.1628
 2864W        W19338   9.813   3.244  15.928  0.2885  0.1830  0.1062
 2865W        W19339   5.087  14.851  11.179  0.1377  0.0961  0.0199
 2866W        W19340   0.301   6.455   3.854  0.1752 -0.0708 -0.0838
 2867W        W19341  14.343   3.973  14.454  0.0055 -0.0209  0.0929
 2868W        W19342  12.242  10.278   1.437 -0.3430  0.2543 -0.0244
 2869W        W19343   1.045   4.174   3.607  0.1217 -0.0769  0.0098
 2870W        W19344  11.294  14.594  12.404  0.3013  0.0699  0.0015
 2871W        W19345   9.873   0.273  15.897 -0.1107  0.1802  0.1375
 2872W        W19346  15.657   0.711  13.604 -0.1598 -0.1241 -0.1334
 2873W        W19347  12.262   5.364   0.854 -0.1682 -0.1890  0.2512
 2874W        W19348   9.443   5.412   0.647 -0.0178  0.1006  0.4500
 2875W        W19349  12.185   2.423   0.258  0.0113  0.1051 -0.2299
 2876W        W19350   0.553  12.518   4.535 -0.2732 -0.0232 -0.1220
 2877W        W19351  16.515  11.693   2.185 -0.2691  0.1586  0.1038
 2878W        W19352   2.701  13.075   3.927 -0.1209 -0.1072  0.3810
 2879W        W19353  12.103  16.497  13.965 -0.1962 -0.1449 -0.0793
 2880W        W19354  14.372   2.403   1.807  0.1282 -0.0351  0.0614
 2881W        W19355   2.664   2.085   4.685 -0.3502  0.1469  0.1751
 2882W        W19356  13.976  10.477  12.442  0.3854 -0.0606 -0.1488
 2883W        W19357   1.849  14.751   0.709  0.0338 -0.0634 -0.1522
 2884W        W19358   5.246   1.465   2.036  0.0425  0.0231 -0.0516
 2885W        W19359   1.756   0.857   5.223  0.1106 -0.1017 -0.0499
 2886W        W19360  12.150   3.479  12.434  0.0513  0.1404 -0.1618
 2887W        W19361   6.928   0.862   0.442 -0.1511  0.0978  0.1516
 2888W        W19362   0.609   6.506   4.620 -0.2536  0.0065 -0.1675
 2889W        W19363   5.469  14.864   0.990  0.0409  0.2769  0.1749
 2890W        W19364   3.074  14.730   5.928 -0.2484  0.1081  0.1053
 2891W        W19365   6.549   1.059  12.354 -0.0389  0.0983 -0.0068
 2892W        W19366  10.666   2.505   4.286  0.0600 -0.3922 -0.0218
 2893W        W19367  11.941   2.043  15.941  0.0195 -0.1159  0.3145
 2894W        W19368   0.478   6.152   2.422 -0.4253  0.1965  0.2569
 2895W        W19369   4.765   8.301   4.822  0.1676  0.0667 -0.2260
 2896W        W19370  17.362   8.878   3.347 -0.1263  0.1621 -0.2509
 2897W        W19371  11.569   4.577  11.001  0.0435 -0.1954  0.1156
 2898W        W19372  12.439  11.999   4.133  0.2700  0.2064  0.0457
 2899W        W19373   4.744  11.760   2.890 -0.0986  0.0024 -0.0197
 2900W        W19374   6.300   4.799   2.386  0.0771  0.1565 -0.0964
 2901W        W19375   0.164   5.597   0.491 -0.3192  0.0130  0.2821
 2902W        W19376  13.294   6.694   5.630  0.0082  0.0795  0.0450
 2903W        W19377   8.099   2.118  15.283 -0.2921 -0.0965 -0.0227
 2904W        W19378  17.592   8.370  13.584  0.1731  0.1003  0.0504
 2905W        W19379  16.339  16.359   1.732  0.1857 -0.0251  0.2427
 2906W        W19380  17.015  15.254  14.717 -0.0659 -0.1307 -0.0038
 2907W        W19381  10.989  16.227  11.699  0.0085  0.1045 -0.3292
 2908W        W19382   5.552   0.100   3.911 -0.1846 -0.1429  0.1519
 2909W        W19383   1.103  14.672   5.654  0.0748 -0.0230 -0.2419
 2910W        W19384   1.771   9.780   1.976  0.2079  0.0628 -0.2197
 2911W        W19385  12.947  15.764  14.501  0.0614 -0.0005 -0.0582
 2912W        W19386  15.103   4.303   4.227 -0.0367  0.0755 -0.2016
 2913W        W19387   1.861  14.107  10.377  0.0066 -0.3053 -0.2966
 2914W        W19388   6.798  10.308   0.122 -0.2529 -0.2106 -0.2294
 2915W        W19389  16.714   5.422  12.642 -0.3317 -0.0693 -0.1595
 2916W        W19390   2.069   1.882   5.176 -0.2453 -0.2638  0.4378
 2917W        W19391  14.389  10.918  14.352 -0.2222  0.0172 -0.1992
 2918W        W19392  12.410  13.602   3.095  0.1465  0.2004 -0.0943
 2919W        W19393  12.930   1.948  14.696 -0.0919  0.3201  0.1076
 2920W        W19394  12.098  16.577  13.477  0.0785 -0.2490  0.1842
 2921W        W19395  14.836   7.574   0.023 -0.0868 -0.0878 -0.3087
 2922W        W19396  14.561   7.552   0.471 -0.0035 -0.0761  0.2160
 2923W        W19397  13.325   8.357   0.573  0.2367  0.2960 -0.0123
 2924W        W19398   0.919  16.545  12.906 -0.0964 -0.0144 -0.0788
 2925W        W19399   7.012   1.496   2.329 -0.4440  0.0568 -0.0328
 2926W        W19400  14.937  14.464  15.105  0.0732 -0.0989  0.1567
 2927W        W19401   9.850  14.583   1.262  0.2692  0.3323 -0.0146
 2928W        W19402   6.893   5.820   2.891 -0.1374 -0.0420  0.0778
 2929W        W19403   2.263  16.210   1.879  0.0062 -0.0833  0.2056
 2930W        W19404   5.842   1.544   4.592 -0.0955 -0.1412  0.0550
 2931W        W19405   1.370  13.093   4.324  0.2582 -0.0256  0.3567
 2932W        W19406   3.009   2.052   0.837 -0.2547  0.4218  0.0920
 2933W        W19407   9.906  12.717   4.358 -0.1035 -0.1439  0.0359
 2934W        W19408   7.292  10.544   9.508  0.3420 -0.0421 -0.2404
 2935W        W19409   6.748   8.317   1.558  0.1969  0.2761 -0.2450
 2936W        W19410  11.674   8.853   1.493  0.1450 -0.2680  0.0784
 2937W        W19411   2.144   0.624   2.534  0.1321 -0.1627  0.0885
 2938W        W19412   9.792  10.383   0.050 -0.2335  0.0671  0.0684
 2939W        W19413  12.060  11.335  14.169 -0.5262  0.2629 -0.0283
 2940W        W19414  11.286  14.130   5.408  0.0985  0.2673 -0.1464
 2941W        W19415   4.329   9.652   5.001  0.3307 -0.3086 -0.2166
 2942W        W19416  10.205   4.764   3.359  0.1515  0.0496 -0.1043
 2943W        W19417   2.608  17.622   0.892 -0.2321  0.3377  0.0950
 2944W        W19418  13.711   1.806   0.370 -0.2985 -0.0785  0.0403
 2945W        W19419   8.138   9.691   1.285  0.0238  0.0842 -0.1689
 2946W        W19420   7.673  17.591   0.682 -0.1637  0.1328 -0.1272
 2947W        W19421   6.580  16.954   2.587 -0.0829  0.3795  0.1797
 2948W        W19422   2.718  17.979  12.862 -0.0925  0.1633  0.1633
 2949W        W19423   9.544  11.797  13.148  0.0787  0.1624 -0.0350
 2950W        W19424   9.742  10.222   3.737 -0.0982  0.1759  0.1305
 2951W        W19425   7.450  15.549   0.899  0.1262  0.2708 -0.2173
 2952W        W19426   6.254  15.200   4.110 -0.2032 -0.0717 -0.0375
 2953W        W19427   1.541   5.609   3.144  0.1148 -0.3622 -0.0057
 2954W        W19428   8.418   3.727   5.503 -0.0839  0.0199  0.2485
 2955W        W19429   0.232  14.692  13.674 -0.0130 -0.4571  0.3936
 2956W        W19430   6.079   5.672   1.703  0.0158  0.1954 -0.2649
 2957W        W19431  14.142   9.152   5.675  0.0235  0.1399  0.0805
 2958W        W19432  15.629  12.633   4.575 -0.0931  0.0973  0.0211
 2959W        W19433  11.867  16.596  14.421 -0.0093 -0.0931 -0.4456
 2960W        W19434   0.081  15.459   4.396 -0.0217 -0.1334 -0.2393
 2961W        W19435   1.407  16.361  14.088  0.2834 -0.1964  0.2302
 2962W        W19436  13.985  15.621  10.925 -0.0305  0.0776  0.0625
 2963W        W19437   6.556   1.103  14.238 -0.0367 -0.0922  0.0814
 2964W        W19438   3.600  12.950   4.463  0.0341 -0.2600  0.0693
 2965W        W19439  14.453  10.673   0.021  0.0252 -0.0842  0.4624
 2966W        W19440   6.940   9.505   3.665 -0.2231  0.0035 -0.2249
 2967W        W19441  15.900   0.176   3.814  0.0736  0.1591 -0.0558
 2968W        W19442  16.677   0.467   1.513 -0.3518 -0.2190  0.0756
 2969W        W19443  13.624   6.987  11.087 -0.3457  0.0729  0.0164
 2970W        W19444   2.005   0.263   2.183 -0.3172 -0.3824  0.1379
 2971W        W19445   8.935   4.061  10.609 -0.3122  0.0711 -0.0911
 2972W        W19446   6.026  15.437  15.368 -0.0094  0.2940  0.1761
 2973W        W19447   3.819  11.806   2.797  0.2808 -0.1509  0.4091
 2974W        W19448  12.544  14.943  13.870 -0.0043  0.2084  0.3623
 2975W        W19449   8.036  16.759   2.065 -0.1763 -0.1330  0.1536
 2976W        W19450  17.636  14.514  14.459  0.0943  0.2654  0.0890
 2977W        W19451  14.941   8.683   1.625  0.0258 -0.3531 -0.1893
 2978W        W19452   8.951   3.879   3.977 -0.0748 -0.1340  0.2523
 2979W        W19453   9.057  14.216   3.846 -0.2404 -0.0313  0.1094
 2980W        W19454   8.696   2.244  14.157 -0.0230 -0.0487  0.1321
 2981W        W19455   2.376   4.766  13.362 -0.2653  0.0460 -0.1498
 2982W        W19456  12.465   0.202  13.554  0.2726 -0.0479  0.3696
 2983W        W19457  14.207  17.390  15.908 -0.1148 -0.2021 -0.0382
 2984W        W19458  15.638   9.528   0.282  0.0650 -0.1352  0.2742
 2985W        W19459   3.272   4.876  15.668  0.1482 -0.1826  0.2180
 2986W        W19460  14.521   9.276  12.717  0.2216 -0.0898  0.1031
 2987W        W19461  18.204   5.418  11.413 -0.0354 -0.0826 -0.0758
 2988W        W19462  16.232  13.952   2.816  0.3274  0.2138 -0.1245
 2989W        W19463   1.022  17.005  12.187 -0.0362  0.1609 -0.1129
 2990W        W19464   1.186  12.305  11.962 -0.0014 -0.0031 -0.0482
 2991W        W19465  10.147  15.970  11.391  0.1361  0.0179  0.0710
 2992W        W19466   7.474   5.896  13.725  0.4671  0.2014  0.0359
 2993W        W19467  17.606   0.659  15.109 -0.0420  0.1274 -0.1569
 2994W        W19468  13.607  17.734  13.328  0.1662  0.1613  0.2577
 2995W        W19469   6.171   0.618   1.018  0.0073 -0.4027  0.0112
 2996W        W19470   6.259   1.477  13.979 -0.0356 -0.0021 -0.0269
 2997W        W19471   3.019  10.848   0.225  0.1329 -0.3017 -0.3005
 2998W        W19472  14.413   5.840  14.500  0.1648 -0.3017  0.0567
 2999W        W19473   0.481  10.100   0.201 -0.0053  0.0379  0.1088
 3000W        W19474   9.903   2.112  13.790 -0.3165 -0.1861  0.1943
 3001W        W19475   6.399   7.951   4.744 -0.1205  0.1219  0.2111
 3002W        W19476  14.545  15.865   4.033 -0.1101  0.3797  0.1445
 3003W        W19477  12.962  14.437  13.216 -0.3802  0.1478 -0.1251
 3004W        W19478  14.271   5.733  12.208 -0.4434  0.0488  0.2960
 3005W        W19479   4.773   7.649  14.957  0.2673 -0.0304 -0.2280
 3006W        W19480  11.771  16.527   3.913  0.0426 -0.3211  0.3239
 3007W        W19481  13.796   9.451   1.372 -0.0380  0.0261  0.2118
 3008W        W19482  11.102   4.457  12.839  0.0784  0.0937  0.0773
 3009W        W19483  14.421   8.740   3.831 -0.0576  0.2244  0.0813
 3010W        W19484  16.416   0.702   4.552 -0.1007 -0.1720  0.0501
 3011W        W19485   8.432  12.172   2.285  0.0789  0.2907  0.1092
 3012W        W19486  12.192   2.427   4.329 -0.0678  0.2309  0.1760
 3013W        W19487   3.810   5.251   2.401  0.0608 -0.3118 -0.0093
 3014W        W19488   2.918  16.998   3.093  0.3237  0.1460  0.1114
 3015W        W19489   0.667  10.084  14.020  0.2069 -0.0330 -0.0375
 3016W        W19490   3.240  14.408  11.590  0.0162  0.2458  0.0104
 3017W        W19491  13.076  13.443  15.062 -0.0772 -0.1101  0.1281
 3018W        W19492  16.504   7.740  10.977  0.0595  0.1422  0.0117
 3019W        W19493   9.165  16.020  14.112 -0.1273  0.1390 -0.3490
 3020W        W19494   5.471  10.152  13.724  0.4275  0.3312  0.1014
 3021W        W19495  18.061  13.832   1.963  0.2323 -0.2990 -0.2722
 3022W        W19496   2.131   0.042   3.247 -0.0732  0.0175  0.2262
 3023W        W19497  13.107  13.398  14.267 -0.5167  0.1239  0.1242
 3024W        W19498  14.034   8.337   1.943  0.1797  0.2042  0.0996
 3025W        W19499  12.221  10.624   0.499  0.0179 -0.0673 -0.1706
 3026W        W19500   9.913   5.015  10.911  0.2375  0.0770 -0.0942
 3027W        W19501   6.341  17.249   2.981 -0.1543 -0.0791  0.0855
 3028W        W19502  12.145   8.366  12.775  0.1476 -0.4199  0.0599
 3029W        W19503  10.495  16.664   4.667  0.0816  0.1257 -0.2768
 3030W        W19504  10.651  16.665   2.903  0.0294  0.3244  0.1227
 3031W        W19505   2.327   4.575  14.167  0.1162  0.0360  0.1257
 3032W        W19506  17.165   9.402   3.206 -0.0262 -0.2478 -0.1242
 3033W        W19507   6.777   9.709  14.206  0.1884 -0.2084  0.0971
 3034W        W19508  12.153  10.575   1.038  0.2458  0.2081  0.3299
 3035W        W19509   3.237   7.910   0.788  0.2943  0.0175  0.1020
 3036W        W19510   3.349   7.130   4.496 -0.1197  0.1153 -0.1720
 3037W        W19511   3.209  15.515   5.504 -0.2810 -0.1430  0.0615
 3038W        W19512  12.775   4.165   2.802  0.0033 -0.1180  0.0671
 3039W        W19513  17.791   4.874   4.685  0.0320  0.1027  0.3932
 3040W        W19514   2.953  15.587  12.274  0.1233  0.1880  0.0181
 3041W        W19515  15.565   7.744   0.386 -0.0542 -0.2020  0.0258
 3042W        W19516   3.920   4.440   5.165 -0.0724  0.0750 -0.2198
 3043W        W19517  13.206   2.962   1.146  0.0804  0.1639  0.1477
 3044W        W19518  11.218   1.412   0.896  0.2454 -0.0006  0.1012
 3045W        W19519  12.782   8.481  14.875 -0.2759 -0.3699 -0.3508
 3046W        W19520   7.875   0.436  14.139  0.1619 -0.2379  0.2315
 3047W        W19521   6.910   0.281   4.545  0.1081  0.1177 -0.0043
 3048W        W19522  17.970   6.010  14.756  0.1507 -0.0797 -0.0589
 3049W        W19523  17.069   4.821   4.378 -0.2156 -0.1900 -0.3368
 3050W        W19524   6.012   9.126  12.829  0.1513 -0.1090 -0.1753
 3051W        W19525   0.926   7.853   0.025  0.2626  0.0215 -0.1211
 3052W        W19526  13.120   9.229   4.912  0.0649 -0.1344 -0.1562
 3053W        W19527  15.693  18.471   4.377  0.0576 -0.1963 -0.2607
 3054W        W19528  14.417   5.964  10.904 -0.0204 -0.2846  0.3406
 3055W        W19529   5.428  17.456   5.946  0.1015  0.1509 -0.0354
 3056W        W19530   0.096  14.943   2.047  0.2799 -0.0283 -0.0105
 3057W        W19531   0.984   5.882   0.759 -0.1083 -0.1782 -0.2383
 3058W        W19532  12.368   4.150  15.904 -0.1809 -0.2890 -0.1253
 3059W        W19533   8.901  11.488   5.100 -0.0293  0.1191 -0.1453
 3060W        W19534   6.824  14.698  11.366 -0.2883 -0.0606  0.0819
 3061W        W19535   3.788  18.014   3.846 -0.2518 -0.0903 -0.0508
 3062W        W19536   0.864   0.352   1.022 -0.0694  0.1014  0.1310
 3063W        W19537  13.088  14.384   5.192  0.1209  0.1190  0.0693
 3064W        W19538  11.668   7.894   5.691  0.3780  0.0196 -0.2455
 3065W        W19539   7.858  17.184   0.450  0.1349  0.5929  0.2587
 3066W        W19540  15.533   5.266   1.799  0.1604 -0.0077 -0.0543
 3067W        W19541   1.787   2.291  12.996 -0.1113 -0.2528 -0.1009
 3068W        W19542   9.499  16.963   5.123 -0.1424  0.0843 -0.2923
 3069W        W19543   8.301   5.075  12.648  0.0489 -0.0072 -0.2424
 3070W        W19544  16.461   4.077   3.952 -0.2027  0.1058 -0.0530
 3071W        W19545  13.780   4.618  11.926 -0.0930  0.0542 -0.2795
 3072W        W19546   5.986  10.250  11.390 -0.0924 -0.2108 -0.1859
 3073W        W19547   2.698   4.263  13.325  0.2524 -0.1525 -0.2570
 3074W        W19548   9.307  17.947   0.101  0.1170  0.0702  0.3804
 3075W        W19549   6.848   4.183  13.973 -0.4211  0.1071  0.1743
 3076W        W19550   2.518  16.013   3.380  0.1930 -0.1866  0.2993
 3077W        W19551  10.845   5.547  14.732  0.0192 -0.0937 -0.1213
 3078W        W19552   1.675   5.280   2.155 -0.0565 -0.1329 -0.1566
 3079W        W19553  15.470   8.187   2.566  0.1451  0.2738  0.0860
 3080W        W19554  17.975   2.799  14.771 -0.0047 -0.0164 -0.1557
 3081W        W19555  16.946   9.868   1.992 -0.0903  0.3182  0.0738
 3082W        W19556  12.076   3.775   0.023  0.0906 -0.0735  0.0600
 3083W        W19557  17.199  15.460  14.331 -0.1329  0.1412  0.0764
 3084W        W19558  10.021  11.153  13.681  0.1268  0.1161 -0.1570
 3085W        W19559   2.222  17.083   2.107 -0.1060 -0.1475 -0.2072
 3086W        W19560   9.240   1.311  10.103  0.1078 -0.2415 -0.3123
 3087W        W19561   8.261  12.240   3.278 -0.1079  0.1161  0.0300
 3088W        W19562   3.615   7.957   3.804  0.0346  0.1156 -0.3515
 3089W        W19563  16.185   1.169  14.297  0.3616 -0.0343 -0.4069
 3090W        W19564  13.705  12.836  13.924  0.1586 -0.1975 -0.0577
 3091W        W19565  12.726  13.565  13.899  0.0674 -0.0108  0.2077
 3092W        W19566  17.206   9.163  15.128 -0.0024  0.2528 -0.0812
 3093W        W19567  11.194  15.049  14.160 -0.2677 -0.0159 -0.0273
 3094W        W19568   0.370   9.377  12.188  0.0715  0.0943 -0.2452
 3095W        W19569   4.927  12.687  13.186  0.2872  0.1517 -0.0340
 3096W        W19570  12.620   5.623  13.076  0.2096  0.2869  0.2277
 3097W        W19571   2.952   2.108  15.892  0.0861 -0.2645 -0.2002
 3098W        W19572  13.102  10.267   3.116  0.0588 -0.0747  0.1282
 3099W        W19573   6.216   7.772   2.662  0.2291 -0.1425  0.1250
 3100W        W19574   7.470   8.666   2.580  0.0279  0.1622 -0.0858
 3101W        W19575  17.239   5.801   0.368  0.0905 -0.1110  0.1146
 3102W        W19576   3.583  18.315  14.100  0.3201  0.1376 -0.0715
 3103W        W19577   7.773  12.023  11.053  0.1299  0.3681  0.2216
 3104W        W19578  14.366  10.779  11.800 -0.0472  0.1806 -0.3106
 3105W        W19579  12.539  14.390  11.654  0.1743  0.4469 -0.1964
 3106W        W19580  18.162   6.244   1.097  0.0274 -0.0339  0.3697
 3107W        W19581  14.555  11.300  13.436  0.2375  0.0662  0.1622
 3108W        W19582   1.165   1.051   4.572 -0.0788 -0.1008 -0.3243
 3109W        W19583  18.077  13.001   2.541 -0.1359  0.2000  0.4018
 3110W        W19584   4.346   0.236  13.714 -0.0693  0.0696 -0.0107
 3111W        W19585   3.924  14.874  15.956 -0.0890  0.0649 -0.1243
 3112W        W19586  16.264  10.499  15.647  0.1044 -0.0353 -0.1635
 3113W        W19587   1.344   1.654  13.500 -0.5064  0.0946  0.0817
 3114W        W19588   0.618   0.448   3.094 -0.0712 -0.1692 -0.1529
 3115W        W19589   6.388  14.177   3.998  0.0209 -0.1775  0.2074
 3116W        W19590   0.286  15.376   0.298 -0.2730  0.3432 -0.0599
 3117W        W19591   5.128  12.372  11.746  0.0102 -0.0838 -0.3266
 3118W        W19592  13.983   4.301   4.653 -0.0045  0.1282  0.1572
 3119W        W19593   5.087  16.564  14.973  0.2462 -0.0688  0.0204
 3120W        W19594   1.290   2.029   3.757  0.1425  0.1020  0.1122
 3121W        W19595   2.986   9.321   4.206  0.2733 -0.3506 -0.0341
 3122W        W19596  12.112  15.883  13.084 -0.3228  0.0082  0.2001
 3123W        W19597   6.928  13.249  15.059  0.2290  0.1065 -0.3055
 3124W        W19598   7.246  15.451  12.456  0.1530 -0.2109 -0.1112
 3125W        W19599  13.734  15.678   4.564 -0.1105 -0.1546 -0.0925
 3126W        W19600   4.215   3.271   1.372  0.0442  0.0603 -0.1919
 3127W        W19601   3.992   8.400  14.091 -0.2007 -0.1054 -0.3232
 3128W        W19602   9.425   7.798   2.802 -0.1988 -0.0399 -0.0822
 3129W        W19603   4.519   1.238  11.434 -0.0286  0.0693  0.2427
 3130W        W19604  11.101  11.582   3.904 -0.0906 -0.2792 -0.0385
 3131W        W19605   3.979   2.630  12.293  0.0240  0.3104 -0.1722
 3132W        W19606   4.344   8.092   2.273  0.0256 -0.1364  0.1677
 3133W        W19607  16.656   9.234   1.268 -0.1685 -0.2312 -0.0521
 3134W        W19608  16.158  13.359   3.557 -0.1224 -0.1849  0.1393
 3135W        W19609   3.808  16.905  12.858  0.0648  0.1155 -0.2813
 3136W        W19610  10.347  13.315   2.340  0.1097 -0.3626  0.2407
 3137W        W19611   7.162   5.515  14.235 -0.3107  0.1056  0.1435
 3138W        W19612  16.232   6.518   3.050 -0.1700 -0.3349  0.0028
 3139W        W19613   8.751  15.995   2.877 -0.2551  0.1861 -0.0101
 3140W        W19614  10.825   9.387   3.267 -0.0815 -0.0187  0.2194
 3141W        W19615   3.683  14.350  15.294  0.0309 -0.1185 -0.0090
 3142W        W19616  13.338  10.800   2.148  0.1577 -0.0972 -0.1523
 3143W        W19617   0.869  17.829  15.821 -0.1311  0.0413 -0.2638
 3144W        W19618   4.364  15.646   5.631 -0.0345 -0.2221 -0.0232
 3145W        W19619  10.491  10.855  12.760 -0.1366 -0.0101  0.2660
 3146W        W19620  14.191  15.123  14.297  0.0347  0.0668 -0.0247
 3147W        W19621  13.072  15.488   6.131  0.1175 -0.2134  0.0845
 3148W        W19622   1.405   6.919  11.286 -0.2085  0.0560 -0.0922
 3149W        W19623  16.271  14.024   4.243  0.0185 -0.1753  0.0817
 3150W        W19624  17.506  13.960  11.048 -0.0442  0.0920  0.3658
 3151W        W19625   9.915  14.506  11.427  0.1624  0.2846 -0.2086
 3152W        W19626   1.982  11.284   1.435 -0.0269  0.3136  0.2004
 3153W        W19627  10.411   7.230  10.893 -0.0283  0.2919  0.0947
 3154W        W19628   8.790   5.023  12.556  0.0193 -0.3458  0.1938
 3155W        W19629   8.991   1.631   1.076  0.1418 -0.1158 -0.5315
 3156W        W19630   1.389   9.118  13.651  0.1838 -0.0232 -0.3125
 3157W        W19631  18.164   9.610   4.422  0.0193  0.1351 -0.0260
 3158W        W19632   6.038  17.578  13.326  0.1896 -0.1179 -0.1708
 3159W        W19633   7.215  17.831   0.715 -0.0697 -0.1755  0.2289
 3160W        W19634   3.310  12.998   2.136  0.0863 -0.1298  0.3632
 3161W        W19635  14.397   9.984   0.620  0.3854 -0.1471 -0.1207
 3162W        W19636  11.157  13.477   2.456  0.0694  0.3328  0.1648
 3163W        W19637  14.455  18.418  15.062 -0.2204  0.1084 -0.1076
 3164W        W19638   4.111  17.570  14.134 -0.0682  0.3080  0.1306
 3165W        W19639   5.030   6.092  15.596  0.0446 -0.0522 -0.1784
 3166W        W19640  11.083   9.946  13.531  0.3471  0.2711 -0.1028
 3167W        W19641   0.750   4.880  11.123  0.0399 -0.2704  0.0929
 3168W        W19642   6.845   7.452   0.450 -0.5081 -0.4318 -0.0981
 3169W        W19643  10.100  18.326   0.811  0.0906 -0.1097  0.0757
 3170W        W19644   4.621  10.203   0.095  0.0427  0.2991 -0.2536
 3171W        W19645   9.530  10.048   3.073  0.5116  0.1191  0.2121
 3172W        W19646   4.095  11.441   0.722  0.1034 -0.1331 -0.0724
 3173W        W19647   3.012  16.148   2.613  0.0750  0.1267  0.4501
 3174W        W19648   4.186   6.706   5.716 -0.2369  0.1716  0.2338
 3175W        W19649  17.416  16.892   2.219 -0.0436  0.0301 -0.0715
 3176W        W19650   9.583  10.279   2.222 -0.0189 -0.2698  0.2219
 3177W        W19651   9.048  14.841  13.537  0.2600  0.2942 -0.0897
 3178W        W19652   4.894  11.734   0.792  0.0207  0.2386  0.1022
 3179W        W19653  12.383   7.700   1.029  0.0764 -0.1601  0.0590
 3180W        W19654  14.758   0.404   3.122 -0.1727 -0.1447 -0.0845
 3181W        W19655  13.792   8.370  14.821 -0.0045 -0.0275 -0.0355
 3182W        W19656   3.688   5.939   4.983 -0.0146 -0.1846  0.3033
 3183W        W19657   5.899   4.070   0.327  0.1097  0.0186 -0.1115
 3184W        W19658   7.386  18.089  12.193  0.0861  0.2960  0.1529
 3185W        W19659   2.974   2.430   3.715  0.0366  0.0588 -0.5272
 3186W        W19660   5.052  16.593  11.979  0.0107 -0.0183 -0.1872
 3187W        W19661   3.090   6.404  10.828 -0.1905  0.0370  0.2579
 3188W        W19662  12.254   2.144   5.047 -0.0735  0.0533 -0.3240
 3189W        W19663   2.632   1.748  10.584 -0.5877 -0.0974 -0.0515
 3190W        W19664   4.300   5.148   5.641 -0.2075  0.1691 -0.1180
 3191W        W19665  14.187  17.904  11.527 -0.0317  0.1455  0.1346
 3192W        W19666  14.880   1.909   1.313 -0.2100 -0.1556  0.0107
 3193W        W19667  17.871   9.813   4.058 -0.0863  0.1935  0.2171
 3194W        W19668   6.166   1.472   1.937  0.1971 -0.0428  0.2386
 3195W        W19669  10.459   2.571   3.093 -0.3373 -0.3873  0.1494
 3196W        W19670   8.259   5.747   2.301 -0.1880  0.1672 -0.0895
 3197W        W19671   9.113  18.387   3.201  0.0925 -0.1071  0.0746
 3198W        W19672   8.435   0.178  12.907 -0.4387  0.0646 -0.1179
 3199W        W19673   3.600  18.352   0.022  0.0794 -0.1703 -0.0107
 3200W        W19674   5.591  13.334   1.596  0.4720 -0.1531 -0.1044
 3201W        W19675   1.909   9.601   2.922  0.1666  0.3745  0.0249
 3202W        W19676  16.263  10.493   3.682 -0.3544  0.2020 -0.2534
 3203W        W19677  17.390  15.874   3.243  0.0647  0.2261  0.0110
 3204W        W19678  13.387   8.162  14.390  0.1201 -0.0145  0.0679
 3205W        W19679   3.694  14.099   0.114  0.1427  0.0744  0.0344
 3206W        W19680  11.385   7.739   3.361 -0.1066  0.0097 -0.1908
 3207W        W19681   3.820   0.784   0.601  0.2642 -0.1233 -0.1411
 3208W        W19682   0.234   4.220   2.036 -0.0673  0.2389 -0.3237
 3209W        W19683   9.952   3.182  14.655  0.0281  0.3361 -0.0001
 3210W        W19684   5.887  11.546  13.649  0.2839  0.0686  0.0191
 3211W        W19685   6.687  11.494  15.292 -0.0977 -0.2369 -0.1305
 3212W        W19686  10.149   0.427   2.434 -0.0794 -0.0409  0.0108
 3213W        W19687   1.462  12.502   3.740 -0.1281  0.0400  0.5199
 3214W        W19688  11.967  11.705   2.601 -0.0645  0.2209 -0.1289
 3215W        W19689  16.493   1.777  13.813  0.0473 -0.0153  0.5171
 3216W        W19690   3.272   5.927  10.859  0.0719  0.2824 -0.3842
 3217W        W19691  11.081  17.661   1.243 -0.1543 -0.3103 -0.1507
 3218W        W19692  17.398   4.774  12.536 -0.4527 -0.0029  0.1841
 3219W        W19693  11.908  17.272   2.180 -0.1129 -0.0172  0.1475
 3220W        W19694  12.480   7.680   2.634 -0.2143  0.0254  0.0368
 3221W        W19695   4.238  11.663  15.442 -0.1691 -0.0080  0.1075
 3222W        W19696   8.883   7.497   1.230  0.0899 -0.0119 -0.0254
 3223W        W19697  17.740  17.029  11.347  0.0081 -0.2096 -0.0473
 3224W        W19698  17.702  10.522  14.870  0.1016 -0.0630 -0.2136
 3225W        W19699   4.840   0.900   5.017 -0.1044  0.0945 -0.2476
 3226W        W19700  17.500  14.561  12.505  0.1402  0.3369 -0.0853
 3227W        W19701  11.983   6.256  15.449  0.3236  0.0548 -0.0202
 3228W        W19702  14.075  16.146  11.066 -0.0162 -0.0242 -0.1336
 3229W        W19703   0.360  17.784  12.100  0.0753  0.0586  0.0445
 3230W        W19704  16.073   0.513   4.121  0.3324 -0.0949  0.1596
 3231W        W19705   0.106   9.005   0.791  0.1194  0.2184 -0.1455
 3232W        W19706  16.587   4.872   4.449 -0.0527 -0.1934  0.1207
 3233W        W19707   0.998  15.545   5.138 -0.3347  0.0865 -0.2742
 3234W        W19708   6.704  17.809  10.949  0.0001 -0.2893 -0.4213
 3235W        W19709   0.903  15.548  14.657 -0.0930 -0.2071  0.2000
 3236W        W19710   0.649  15.432   1.072 -0.2530 -0.1529 -0.1756
 3237W        W19711   4.268  18.389   1.064  0.2322  0.0334  0.0730
 3238W        W19712   6.569  12.314  11.296 -0.0319 -0.1812  0.2270
 3239W        W19713  12.100   8.624   2.470 -0.0278 -0.0393 -0.1120
 3240W        W19714   9.064  14.334   4.297 -0.1784 -0.0560  0.1542
 3241W        W19715  14.950  12.767   4.211  0.1302  0.0373  0.0923
 3242W        W19716  10.518  17.940  11.625  0.0624  0.1100 -0.0590
 3243W        W19717   1.330   7.610  14.486 -0.1271 -0.1952 -0.0621
 3244W        W19718   4.169  13.013  15.684  0.5896  0.3013 -0.3745
 3245W        W19719   5.893   6.265   5.126  0.0291 -0.0950  0.0166
 3246W        W19720  10.591  15.313  12.232 -0.1041  0.1612  0.2077
 3247W        W19721   2.915   9.865  10.986 -0.2033 -0.3133 -0.0931
 3248W        W19722   8.801   7.726   3.698  0.0946 -0.0657 -0.0690
 3249W        W19723  18.203   5.660  14.559  0.0466  0.1519 -0.1460
 3250W        W19724   5.699   5.584  11.585 -0.0806  0.0757 -0.0611
 3251W        W19725  12.066  14.529   0.691  0.2901  0.0342  0.0863
 3252W        W19726   6.598   7.964  12.043 -0.1904 -0.1425  0.2184
 3253W        W19727   5.756   7.308  11.840 -0.0891  0.1847 -0.1799
 3254W        W19728   6.579   8.907   2.543 -0.7589 -0.0705 -0.0914
 3255W        W19729  17.615   9.699   5.600 -0.4452  0.2950 -0.1213
 3256W        W19730   6.542   0.670  15.714  0.1835  0.2658 -0.1871
 3257W        W19731  13.683   9.000   4.289 -0.0582  0.0884  0.0816
 3258W        W19732  13.263  13.525   6.006 -0.2177  0.0362 -0.0383
 3259W        W19733  15.285  14.769  15.321 -0.0472 -0.2186 -0.1575
 3260W        W19734  17.248  12.272  15.257  0.0994  0.0750 -0.2885
 3261W        W19735   5.962   4.470   2.081  0.0840  0.1779 -0.2145
 3262W        W19736   3.355  13.421  13.005 -0.0997 -0.1163 -0.0147
 3263W        W19737   9.188   2.628   0.278  0.0300 -0.2336 -0.1810
 3264W        W19738  10.222  15.331  11.886 -0.1554 -0.0378  0.1951
 3265W        W19739   1.633   2.302   1.164 -0.0020 -0.0353  0.0361
 3266W        W19740  16.151  13.390  14.209 -0.2855 -0.2058 -0.0853
 3267W        W19741  10.969   7.210  12.454  0.0542  0.1455 -0.0526
 3268W        W19742  13.850   9.899  13.221  0.1276 -0.3109 -0.0820
 3269W        W19743   5.634   3.151   1.378  0.0600 -0.1004 -0.1011
 3270W        W19744   1.784   7.585   3.418  0.2479  0.1362 -0.3865
 3271W        W19745  17.263   3.769   1.280 -0.0880  0.3515  0.1904
 3272W        W19746  17.112  18.167  11.197  0.0165 -0.0933 -0.1697
 3273W        W19747  11.087   4.645  15.551  0.3180 -0.0329 -0.1995
 3274W        W19748  14.863  11.640  12.360  0.1681  0.2363 -0.1152
 3275W        W19749   1.624   8.786  10.773  0.1853  0.2720 -0.0589
 3276W        W19750  13.410  16.106  15.200  0.0133 -0.0832 -0.0713
 3277W        W19751   5.665   2.416   4.257  0.2737  0.2274 -0.0685
 3278W        W19752  17.900   1.574   2.913 -0.3317 -0.0813 -0.4722
 3279W        W19753  12.400   4.166   5.713  0.2068 -0.2985 -0.3112
 3280W        W19754  11.364   7.136  14.615 -0.1900 -0.1605 -0.2307
 3281W        W19755  14.758   6.766   0.639 -0.2507 -0.0001  0.0963
 3282W        W19756   6.624   7.082   1.303  0.0610 -0.4690 -0.1078
 3283W        W19757   0.606  15.867   1.963 -0.2894  0.0550  0.3337
 3284W        W19758   0.513  11.456   4.233 -0.3422  0.2480 -0.2027
 3285W        W19759  15.032   7.534  15.127 -0.0302 -0.0152  0.2295
 3286W        W19760  13.554  14.240  13.898 -0.0103 -0.1000 -0.0038
 3287W        W19761   0.050   5.788   5.274  0.0343  0.0303  0.2366
 3288W        W19762  16.836  11.419  15.029  0.1566  0.0757 -0.2500
 3289W        W19763   1.491  11.323   5.004  0.1656 -0.0631 -0.3994
 3290W        W19764   7.305  15.102   3.600  0.3341  0.2255 -0.3833
 3291W        W19765   1.159   9.541  12.827 -0.0015  0.2156 -0.1521
 3292W        W19766   6.093  10.872  10.119 -0.1096  0.0011  0.2163
 3293W        W19767   3.555  15.539   2.439 -0.2453  0.3078 -0.0577
 3294W        W19768  14.130  16.852   0.573  0.3140  0.0278  0.3003
 3295W        W19769  17.430   4.435  13.044 -0.1362  0.0250  0.1027
 3296W        W19770  12.639   3.956   1.927  0.2087 -0.0599  0.1634
 3297W        W19771  17.998  15.214   5.855  0.1290 -0.0971 -0.1287
 3298W        W19772  16.321   8.872   2.142  0.0721  0.1110 -0.3429
 3299W        W19773  16.050  10.925  11.378  0.0811 -0.2048 -0.0544
 3300W        W19774  11.961   9.611  15.682  0.0819 -0.2594 -0.1573
 3301W        W19775  17.104  10.177  14.172  0.1167 -0.0102  0.2130
 3302W        W19776  17.051   3.052  14.261 -0.1508  0.0107 -0.0600
 3303W        W19777  14.794   6.089   0.105 -0.0400  0.3933 -0.3805
 3304W        W19778   1.169  12.894  12.528 -0.1022  0.0867  0.2303
 3305W        W19779   1.039   4.898   0.914  0.2189 -0.3541 -0.1564
 3306W        W19780   6.013  11.082  12.959 -0.2671  0.2868 -0.0079
 3307W        W19781   1.095  16.040  13.003 -0.0161  0.0066  0.1279
 3308W        W19782   8.076   7.710   0.029 -0.0435  0.0230  0.1158
 3309W        W19783   2.314  14.580  15.877 -0.2714 -0.3966  0.0720
 3310W        W19784  15.582   4.019   1.148 -0.0263 -0.1590 -0.1540
 3311W        W19785   4.288   1.111  14.048  0.0433 -0.2632 -0.2567
 3312W        W19786  14.467  14.199   1.179  0.1587  0.2533 -0.1902
 3313W        W19787   2.537  16.407   0.209 -0.0192  0.2198 -0.0034
 3314W        W19788   2.262   4.879   1.477  0.3168  0.0208 -0.0954
 3315W        W19789  13.184   9.617   4.228 -0.0810 -0.2592 -0.0609
 3316W        W19790  17.998   1.257  12.689  0.2522  0.1567  0.4254
 3317W        W19791   9.058  17.687   1.745 -0.2364 -0.0404 -0.4889
 3318W        W19792   0.374   8.721   3.082  0.1262  0.1921 -0.0248
 3319W        W19793   3.359   1.835  15.857 -0.3185 -0.1780  0.0750
 3320W        W19794  15.956  10.401  11.350 -0.3064 -0.2108 -0.0164
 3321W        W19795   3.303  15.481  15.644 -0.2816  0.1167 -0.0151
 3322W        W19796  11.119  10.827   1.512 -0.0416 -0.0030  0.1580
 3323W        W19797   7.821  18.022   5.250  0.1307  0.0624 -0.2825
 3324W        W19798  15.827   0.817  15.154 -0.2581 -0.2397  0.0431
 3325W        W19799   9.107   0.407   3.865  0.0347 -0.1778  0.0319
 3326W        W19800  10.733   4.034   4.115 -0.3043  0.0312 -0.1907
 3327W        W19801  14.950   4.940  12.967  0.1985  0.0144 -0.1786
 3328W        W19802   0.124   7.680   1.710 -0.3697 -0.0869  0.1340
 3329W        W19803   3.509  16.538   3.945 -0.2131  0.0584  0.1033
 3330W        W19804  17.399  16.932   0.942 -0.1558  0.1562 -0.1416
 3331W        W19805  13.980   3.121  12.949  0.0884 -0.0982  0.0213
 3332W        W19806  14.121  14.676  14.484  0.0248  0.3623 -0.2594
 3333W        W19807  12.546  11.230   2.645 -0.0250  0.0067  0.1084
 3334W        W19808   6.893  15.146   4.812  0.1583  0.0367 -0.1191
 3335W        W19809   7.554  16.514  13.361  0.0444  0.1019 -0.1762
 3336W        W19810   1.329   5.098   2.946  0.1581 -0.0852  0.2693
 3337W        W19811  13.310   7.916  12.610 -0.0496  0.1205 -0.0981
 3338W        W19812  11.774  11.906   4.546 -0.0740  0.2390 -0.4559
 3339W        W19813   6.814   6.344   0.009  0.0653  0.1925 -0.0956
 3340W        W19814  11.313  12.655  15.175  0.0221 -0.0458  0.0538
 3341W        W19815   5.506   4.496   0.534  0.0872 -0.1344  0.0517
 3342W        W19816  13.092   6.985  15.534 -0.1929  0.0111 -0.0276
 3343W        W19817   9.770   3.053   4.175  0.0460  0.0909 -0.1682
 3344W        W19818  16.732   6.245   3.230  0.0736  0.1039  0.1171
 3345W        W19819   5.347   7.550   1.105  0.1903 -0.0976  0.3071
 3346W        W19820   0.766  15.936   0.880  0.0494 -0.1321  0.1212
 3347W        W19821  14.567  11.050   0.694  0.2120 -0.2336  0.2048
 3348W        W19822  11.058   6.949  12.945  0.0636 -0.6999  0.2996
 3349W        W19823   0.687   3.448  11.692 -0.1800  0.0630 -0.0878
 3350W        W19824  10.893   7.200   2.030 -0.1977 -0.1156 -0.3563
 3351W        W19825  18.285   6.474   3.587  0.0250  0.2830  0.0747
 3352W        W19826  13.277   0.344   0.931 -0.5130  0.3134 -0.2410
 3353W        W19827   4.486   8.288  11.597  0.2263 -0.0655  0.2152
 3354W        W19828   2.255   5.049  14.734 -0.1561  0.1003 -0.1092
 3355W        W19829  16.718   6.233   4.609  0.1511 -0.0502  0.0521
 3356W        W19830   7.889   9.903   4.678 -0.1455 -0.0629 -0.1943
 3357W        W19831   9.850   8.229   0.757  0.0046  0.1141 -0.0634
 3358W        W19832   1.653   5.716   0.001  0.1611  0.0802  0.1729
 3359W        W19833   6.029  12.447   2.773 -0.1871 -0.3530 -0.0160
 3360W        W19834  10.945  15.177   0.235  0.1907 -0.2984 -0.0346
 3361W        W19835   2.620  13.086   2.992 -0.1648 -0.0157  0.0810
 3362W        W19836   9.243   5.082  15.774  0.1579  0.1975  0.0036
 3363W        W19837   3.235   4.393   0.452 -0.0474  0.2573 -0.1209
 3364W        W19838  12.450   9.387   5.865 -0.0048  0.3584 -0.2001
 3365W        W19839  11.353  11.817  11.631  0.0346  0.2705 -0.0249
 3366W        W19840  15.991   7.940   3.834 -0.1707 -0.1550 -0.0446
 3367W        W19841   4.423   5.081  10.730 -0.0255 -0.1732  0.2681
 3368W        W19842  14.463  17.070   0.178 -0.0006 -0.0468 -0.3459
 3369W        W19843  10.879  12.417  11.762 -0.1167 -0.2867 -0.0100
 3370W        W19844  17.225  11.443   2.827 -0.0224 -0.0964 -0.3023
 3371W        W19845  10.735  17.202  12.319 -0.1359 -0.0791  0.2898
 3372W        W19846   4.355  18.268  11.360  0.0275 -0.2170 -0.2581
 3373W        W19847  16.590  15.547  13.799  0.2432  0.1684  0.0719
 3374W        W19848  14.583   9.380  13.471  0.0297  0.1150 -0.2479
 3375W        W19849  14.146  11.276   1.801 -0.0950  0.2244  0.1117
 3376W        W19850  17.297   4.834   4.854  0.2485  0.1615  0.2864
 3377W        W19851   5.654  13.795  11.211  0.1285 -0.0134 -0.1496
 3378W        W19852  13.560  16.459   0.486  0.2253 -0.1952  0.2152
 3379W        W19853   6.389  10.571  11.284  0.0304  0.0092 -0.0240
 3380W        W19854  10.697  13.136   4.077  0.2250 -0.0967  0.0284
 3381W        W19855   8.075   7.142  11.869  0.0274  0.0446  0.0119
 3382W        W19856   8.094  11.003  14.201  0.0590  0.0932 -0.0607
 3383W        W19857  14.517  16.963  14.532 -0.1402 -0.3071 -0.2730
 3384W        W19858  11.453  16.212  15.558  0.2335 -0.0776 -0.2390
 3385W        W19859   1.023   5.718   4.995  0.2351  0.1163 -0.1760
 3386W        W19860  14.733  11.751   1.813  0.0494  0.0141 -0.0708
 3387W        W19861  16.385  14.758  15.408  0.2957  0.2438  0.0748
 3388W        W19862   4.232   6.694   1.859  0.0496  0.0816 -0.0151
 3389W        W19863  10.784  14.136  11.873 -0.0434  0.0235 -0.1672
 3390W        W19864   4.741   0.917  13.278 -0.0217  0.2529 -0.2012
 3391W        W19865   4.856   1.223   5.938 -0.1762 -0.0139  0.2458
 3392W        W19866   9.862  18.239  10.608  0.2367 -0.2603  0.1777
 3393W        W19867  14.928   0.407  14.663 -0.1984  0.1734 -0.0816
 3394W        W19868   8.900   4.538  12.532  0.2247  0.1248 -0.1835
 3395W        W19869  17.179  15.495   2.161  0.2092  0.0783  0.1479
 3396W        W19870  13.097   4.904  11.988 -0.0322  0.0924  0.1572
 3397W        W19871  13.798   7.738   4.772  0.0336 -0.2948 -0.1717
 3398W        W19872  14.407   0.399   0.956  0.2740  0.0207 -0.2553
 3399W        W19873  16.245  17.306  13.273 -0.0046  0.3129  0.1712
 3400W        W19874   1.048  16.912  13.276  0.1687 -0.0565 -0.1601
 3401W        W19875  10.657  18.068   2.497 -0.1746 -0.0501  0.0945
 3402W        W19876   2.903   3.575  13.199  0.0448 -0.0310 -0.3274
 3403W        W19877  15.578  10.483   3.545 -0.2490  0.0317  0.0905
 3404W        W19878  14.580  13.639   3.511  0.0414  0.2864  0.0501
 3405W        W19879   1.287   7.136  13.758 -0.3047  0.0197  0.0054
 3406W        W19880  12.589   5.235   3.095  0.0112 -0.1736 -0.1513
 3407W        W19881  18.357   2.619  11.586  0.0425 -0.0914 -0.1902
 3408W        W19882   8.588  11.936   4.600  0.2956 -0.0095 -0.1749
 3409W        W19883   7.853  12.896  15.086 -0.0303 -0.2267 -0.0382
 3410W        W19884  15.097  11.152  13.512 -0.1400  0.0348  0.2238
 3411W        W19885   2.878  11.518  11.102  0.1715 -0.0262 -0.0884
 3412W        W19886  16.776  13.716   5.456  0.2074 -0.0908  0.1001
 3413W        W19887   6.319  13.948  14.332  0.1815  0.1377 -0.0744
 3414W        W19888   9.218   0.734   0.154  0.3433 -0.4481  0.2685
 3415W        W19889  12.618  17.596  11.505  0.0506 -0.1045 -0.1655
 3416W        W19890  10.464  13.322  15.328  0.2178  0.3547 -0.1105
 3417W        W19891   2.391  11.361   3.017 -0.0675 -0.1738 -0.0726
 3418W        W19892   7.265   4.531  15.818 -0.2136 -0.0508  0.3899
 3419W        W19893  13.760   8.487  15.764  0.1612 -0.1064  0.5024
 3420W        W19894  11.893   6.993   5.918 -0.1459 -0.0038 -0.0546
 3421W        W19895   7.415   9.119  13.237 -0.0332 -0.2861 -0.2988
 3422W        W19896   9.407  15.740   3.750 -0.1198 -0.0189  0.0251
 3423W        W19897   0.720  10.332  15.029 -0.0377  0.0812  0.0132
 3424W        W19898   5.805  11.702   3.089  0.2461 -0.1261 -0.1045
 3425W        W19899   9.629  12.612  15.321  0.0268 -0.0817 -0.0853
 3426W        W19900  16.445   9.338   0.783 -0.2055  0.0814 -0.1640
 3427W        W19901   8.476   7.109   1.192  0.0643 -0.1596  0.1317
 3428W        W19902   9.331  10.695   1.881 -0.1004  0.0181 -0.0165
 3429W        W19903  11.127  17.899   2.824  0.3270 -0.3731 -0.1597
 3430W        W19904   5.117  10.490  13.066  0.1051 -0.2096 -0.0943
 3431W        W19905   0.991   2.418  12.467  0.2241 -0.0660 -0.0597
 3432W        W19906   4.476   5.316   0.295  0.0290 -0.0022  0.0835
 3433W        W19907   6.348   5.106  15.378 -0.2178 -0.0011  0.2082
 3434W        W19908   4.030   0.452   1.549  0.0185 -0.0990 -0.0964
 3435W        W19909   6.661  18.051  14.271  0.2837 -0.0193 -0.0452
 3436W        W19910   3.791   3.465  12.245 -0.2649  0.0206 -0.0724
 3437W        W19911  16.839   6.093   5.075  0.1734 -0.2339 -0.1590
 3438W        W19912  17.046   1.393   3.199 -0.1317 -0.1600  0.1012
 3439W        W19913  14.036   9.293   1.796  0.0149  0.0385 -0.1242
 3440W        W19914   3.120   4.490   4.042 -0.1333  0.1380  0.1718
 3441W        W19915  15.982  11.088   4.636  0.1877  0.0537  0.0385
 3442W        W19916  17.429  12.584  15.608  0.1381 -0.0077 -0.0914
 3443W        W19917   8.557  12.897  12.154 -0.0241 -0.1787  0.2556
 3444W        W19918   0.984   6.737  14.690  0.0790  0.1522  0.1964
 3445W        W19919   3.617  12.364   2.743 -0.0647 -0.3424  0.1931
 3446W        W19920   0.152  14.765  15.926 -0.2211 -0.0773 -0.1508
 3447W        W19921   4.714  11.940  14.312 -0.2746 -0.2411  0.0082
 3448W        W19922   9.567   2.796  11.042  0.1757 -0.1652 -0.2079
 3449W        W19923  15.015   8.319   0.720 -0.1276 -0.0612 -0.0288
 3450W        W19924   3.014  16.607   0.328  0.0934 -0.2419 -0.1080
 3451W        W19925   7.202  10.558  15.757 -0.1131 -0.1496 -0.0014
 3452W        W19926   0.698   1.514   2.149 -0.2212 -0.3300 -0.0170
 3453W        W19927  12.275  13.807   0.285 -0.1584 -0.2948  0.4173
 3454W        W19928  17.522   9.432   1.511  0.0129 -0.0287 -0.4624
 3455W        W19929   0.593   0.536  12.956 -0.3438 -0.2053  0.0281
 3456W        W19930   5.044  13.159   1.715  0.1847  0.0199  0.0479
 3457W        W19931   6.201   9.143  12.407 -0.1785 -0.1918 -0.3687
 3458W        W19932   6.689  13.352  13.732 -0.0467  0.0628  0.0750
 3459W        W19933  16.413  10.271  12.967 -0.1594  0.0762 -0.1778
 3460W        W19934   7.827  11.211  13.153  0.0166 -0.2951 -0.4705
 3461W        W19935   7.636  17.623  12.388  0.1273  0.2313 -0.1434
 3462W        W19936   8.606   4.180  14.204  0.3861  0.1368  0.0210
 3463W        W19937  15.193  17.184  11.203 -0.4769  0.1354 -0.0288
 3464W        W19938   6.196   8.990   4.698  0.0972 -0.1013 -0.1001
 3465W        W19939   7.012   7.243   0.995 -0.1839  0.0053 -0.2972
 3466W        W19940   0.099   0.232  14.827  0.1265  0.2319 -0.2177
 3467W        W19941  16.432   1.947  13.336 -0.2118 -0.0165  0.2225
 3468W        W19942  13.726  18.308  15.486  0.2694  0.1052  0.0263
 3469W        W19943  15.941  11.090   0.124  0.1646  0.2850 -0.0231
 3470W        W19944  16.253   9.611   0.085  0.0536 -0.0259  0.2620
 3471W        W19945   8.114  14.818  14.834 -0.1280  0.1180 -0.0512
 3472W        W19946   2.049   5.452  12.153 -0.2888  0.1907  0.1421
 3473W        W19947   2.116  11.484  10.952 -0.2094 -0.2679  0.0694
 3474W        W19948   7.028   6.280  12.094 -0.0622  0.2115  0.2894
 3475W        W19949   0.627  14.296   2.681  0.0311 -0.0845  0.1476
 3476W        W19950   7.226   2.097   4.274  0.2060 -0.1276  0.0936
 3477W        W19951  11.090   7.538  12.868  0.0055 -0.0329  0.3350
 3478W        W19952  10.140   2.941   2.929  0.2011  0.0618  0.0935
 3479W        W19953  14.416  18.309   3.973 -0.0719 -0.1462 -0.0904
 3480W        W19954   3.422  13.524   0.777  0.1761 -0.0320  0.1033
 3481W        W19955   8.929  15.432  11.576 -0.1373  0.1231  0.0455
 3482W        W19956   0.692   4.338   5.625 -0.2151 -0.3323  0.0693
 3483W        W19957  13.097   2.131   4.678  0.2203  0.1975  0.0843
 3484W        W19958   3.546   4.507  13.634 -0.0939 -0.1362 -0.0906
 3485W        W19959   1.725  10.438  15.291  0.1547 -0.2672  0.1811
 3486W        W19960   1.216  18.435   0.360  0.1274 -0.2233 -0.2625
 3487W        W19961   0.359   4.943  13.426 -0.1154 -0.0551 -0.0863
 3488W        W19962  15.464  12.954   1.109 -0.0185  0.0950  0.1105
 3489W        W19963  11.962   9.379  11.730 -0.2165  0.0792  0.1537
 3490W        W19964  12.949   9.156  15.687 -0.0587 -0.0190  0.2968
 3491W        W19965  17.091   2.769   1.455  0.0646  0.0853 -0.0599
 3492W        W19966   6.620   5.260   4.707  0.0651  0.0667  0.2416
 3493W        W19967   4.621   4.506   3.038  0.2534 -0.1776 -0.2882
 3494W        W19968   9.570  10.006  15.711 -0.3125 -0.3735  0.2638
 3495W        W19969  13.125  14.792  14.673 -0.0647 -0.0701 -0.3245
 3496W        W19970   9.057  14.019  12.366 -0.0233 -0.1373 -0.2074
 3497W        W19971  13.017   1.081  12.085 -0.1796  0.2728 -0.0536
 3498W        W19972  11.110  13.064  11.221  0.0574 -0.0862 -0.0797
 3499W        W19973  15.226   3.243   4.489 -0.0778 -0.1050  0.0222
 3500W        W19974  17.844   8.401  15.632  0.1667 -0.1226 -0.0614
 3501W        W19975   7.848   2.891   0.522  0.1460  0.3315 -0.1626
 3502W        W19976  14.960  15.898   4.313 -0.0245 -0.1050 -0.3042
 3503W        W19977   3.376  16.301   0.282  0.0215  0.0907 -0.0770
 3504W        W19978   2.842  11.094  14.316 -0.1212  0.3134 -0.0405
 3505W        W19979   1.431   7.215  12.651  0.0060  0.2114 -0.0028
 3506W        W19980  13.161  15.876  15.528  0.2295  0.1531 -0.1686
 3507W        W19981   9.435  17.093  12.209  0.0881  0.2162  0.0575
 3508W        W19982  15.679   5.645   3.802  0.0805 -0.2519 -0.0659
 3509W        W19983   9.515   5.435   0.079  0.1285  0.1224 -0.2605
 3510W        W19984  12.798  11.707   4.323  0.1484  0.1650 -0.0304
 3511W        W19985   6.113  16.725   3.452 -0.2821  0.1953  0.1484
 3512W        W19986   5.652   1.305  10.918  0.0939 -0.0538  0.1247
 3513W        W19987   7.338   3.360  12.524 -0.0570 -0.3024  0.2663
 3514W        W19988  11.713  10.714   0.192  0.5708  0.2326  0.1738
 3515W        W19989   4.790  11.924   2.430 -0.1974 -0.0137  0.0848
 3516W        W19990   9.922  17.792   0.912  0.0828 -0.1339  0.0358
 3517W        W19991   6.221   6.547  12.172  0.0852 -0.1086 -0.1343
 3518W        W19992  15.225  10.932  12.987 -0.1754  0.0567 -0.1480
 3519W        W19993   8.678  18.418  11.219  0.0949  0.1852  0.1760
 3520W        W19994  15.679  10.363   5.108 -0.0841  0.1622 -0.0837
 3521W        W19995  11.678  13.338   2.406 -0.1523  0.3124  0.0710
 3522W        W19996   8.424  16.446  12.861  0.1754  0.2926 -0.1204
 3523W        W19997   3.428  13.672   3.220 -0.1153  0.1710 -0.1989
 3524W        W19998  17.720  17.992  14.134  0.2128 -0.0011 -0.0416
 3525W        W19999  11.249  12.756  15.663 -0.0487  0.0167  0.0429
 3526W        W20000   0.825   1.744  13.052 -0.0851  0.0004 -0.0267
 3527W        W20001   6.050   3.769   5.354 -0.3112  0.1990 -0.1017
 3528W        W20002   8.320   1.057  12.039  0.1089 -0.1010  0.0413
 3529W        W20003   4.610  12.211   0.908  0.1003  0.1329  0.1506
 3530W        W20004   1.001  11.875  11.449  0.0952 -0.2184  0.0179
 3531W        W20005   7.387   7.176   2.371 -0.1003  0.0117 -0.2871
 3532W        W20006  13.651  16.815   4.475 -0.2027  0.2399  0.0554
 3533W        W20007  17.072  16.181  13.768 -0.1078 -0.1532 -0.0015
 3534W        W20008  15.284   0.682   2.001  0.0208 -0.0186  0.0009
 3535W        W20009  10.868   2.941   0.411 -0.0036 -0.2011  0.0609
 3536W        W20010  12.895  18.131  11.591  0.3853  0.1697  0.0155
 3537W        W20011   2.193  13.755  13.154  0.0641 -0.2044  0.1795
 3538W        W20012  12.951   7.064   2.661 -0.1653  0.0526 -0.0241
 3539W        W20013   5.529  12.521  15.468  0.0559  0.1143 -0.0321
 3540W        W20014   0.682   8.498  12.125  0.2438  0.1084  0.3308
 3541W        W20015   6.112   4.909   5.490  0.2148 -0.3278 -0.0338
 3542W        W20016   8.496  15.138  14.712  0.1561 -0.0303  0.1106
 3543W        W20017  11.378   8.600  11.553  0.2007 -0.1403  0.0573
 3544W        W20018   3.673   7.669   0.925 -0.0718 -0.0034 -0.0208
 3545W        W20019   6.701   9.727  13.528  0.0198  0.0727 -0.1060
 3546W        W20020   3.724   5.655   2.899 -0.1991 -0.1980  0.3031
 3547W        W20021   0.104   5.732   2.710 -0.0373 -0.0521  0.0523
 3548W        W20022   4.375   8.698   4.565 -0.0563  0.2690 -0.2728
 3549W        W20023   4.012  11.380   4.673  0.1096  0.1969 -0.1163
 3550W        W20024  12.343  11.460   4.345  0.0556 -0.3354 -0.2453
 3551W        W20025   4.363   9.617   2.443 -0.1230 -0.0889 -0.4962
 3552W        W20026   3.240  10.954  11.129  0.2021  0.0981 -0.1212
 3553W        W20027  12.317   4.772  12.758  0.3304  0.1803  0.0256
 3554W        W20028   0.829   9.307   2.351 -0.1296  0.1123  0.0401
 3555W        W20029   1.565  13.569   2.388  0.4507  0.0704 -0.1270
 3556W        W20030   6.983   5.845  15.941 -0.0626  0.1587 -0.3376
 3557W        W20031  16.040   6.125  11.721 -0.1345 -0.1897  0.2553
 3558W        W20032   7.634  16.313  11.629 -0.1647  0.1047 -0.3575
 3559W        W20033  13.225  16.318   4.031 -0.0338  0.1661  0.0106
 3560W        W20034  18.442  15.773   0.239 -0.1094 -0.1139  0.0078
 3561W        W20035   2.788  13.346   1.298  0.1018  0.2012  0.0387
 3562W        W20036   5.711  13.023   3.746 -0.1803  0.0885  0.0698
 3563W        W20037   9.787   9.916   1.426 -0.0503  0.0176  0.1113
 3564W        W20038   1.602  18.416  15.567 -0.1429  0.4260  0.2394
 3565W        W20039  15.496  15.524   0.388 -0.0231  0.1666  0.2776
 3566W        W20040  16.728   1.500  13.477  0.3093  0.1352  0.0209
 3567W        W20041  11.124   8.206   1.266 -0.1436  0.0965  0.3477
 3568W        W20042   9.332  15.761   5.182  0.0374 -0.5326  0.0549
 3569W        W20043   8.468   7.767  13.112 -0.0637  0.0411 -0.1832
 3570W        W20044   4.503  17.963  13.928  0.1273 -0.0310  0.1053
 3571W        W20045   2.330   7.400  15.096 -0.1500 -0.1878 -0.1919
 3572W        W20046   5.622   4.299   2.592  0.1522  0.1859 -0.1448
 3573W        W20047  10.099  16.239   4.152 -0.1669 -0.2077  0.2924
 3574W        W20048   8.605  13.358   2.619  0.1077 -0.1456 -0.0944
 3575W        W20049   9.290   4.898  15.196 -0.0273  0.0756  0.0446
 3576W        W20050   0.235  15.844   4.754  0.0598 -0.0036 -0.1189
 3577W        W20051   7.318   7.415   4.106  0.2414  0.2252  0.1755
 3578W        W20052  12.410  16.389   3.588 -0.0804 -0.1340  0.1771
 3579W        W20053   1.716   4.238  14.393  0.1827  0.1643  0.1820
 3580W        W20054   3.450  18.067  12.970  0.1541  0.1657  0.1854
 3581W        W20055  12.228   5.873   5.218  0.0639 -0.3884 -0.1459
 3582W        W20056  15.942  11.136   5.264  0.0551 -0.1672  0.1389
 3583W        W20057   0.065   1.294  11.618  0.1958 -0.1022 -0.3147
 3584W        W20058   6.203   9.812  13.261  0.1771  0.2586 -0.1473
 3585W        W20059  13.571  14.896   0.038  0.0499 -0.2441 -0.0730
 3586W        W20060   1.631  17.406   2.599 -0.0928  0.1007 -0.0359
 3587W        W20061  12.920  13.269   2.480  0.2730  0.4226 -0.0906
 3588W        W20062   0.373  15.412   1.934  0.0669  0.2480 -0.3526
 3589W        W20063  11.039  15.019  12.917  0.1382 -0.3776 -0.0501
 3590W        W20064  16.100   7.718   1.293  0.1586  0.0748  0.2270
 3591W        W20065  11.013  12.803   0.817  0.0657  0.5278 -0.0355
 3592W        W20066   0.819  12.498  15.902 -0.1132  0.0625  0.1482
 3593W        W20067   2.184   6.456  12.116 -0.1229 -0.0694 -0.1409
 3594W        W20068   5.678   7.688  13.638  0.0293 -0.0781 -0.1008
 3595W        W20069   2.577   6.448   4.960  0.0693 -0.0722 -0.2116
 3596W        W20070  12.810  15.331   0.739 -0.0525 -0.0531 -0.1587
 3597W        W20071   9.779   2.656  12.056 -0.3057  0.0060 -0.2104
 3598W        W20072  18.425  14.469   4.193 -0.0011 -0.2259  0.2576
 3599W        W20073   5.466   3.337  14.339 -0.4049  0.0207 -0.0853
 3600W        W20074  13.894  15.485   5.115  0.0779 -0.3665 -0.1823
 3601W        W20075   6.285   8.041  15.772 -0.0698  0.2510  0.1358
 3602W        W20076  11.873  11.626  13.733  0.0373  0.0199  0.2197
 3603W        W20077  17.681   0.765   5.513 -0.1923  0.0870  0.1643
 3604W        W20078  10.956   3.508  14.729  0.0557  0.2672 -0.0547
 3605W        W20079   5.245   5.250  11.054 -0.1050 -0.0707  0.0142
 3606W        W20080  15.777  16.878   3.522 -0.1163 -0.2618  0.1260
 3607W        W20081  16.169   6.238   0.555 -0.1925 -0.1579 -0.0927
 3608W        W20082   8.351   3.101  13.720  0.0005  0.1799 -0.0564
 3609W        W20083  15.925   8.245  14.099 -0.3048 -0.0938  0.2412
 3610W        W20084  10.321  10.952   2.578 -0.2540 -0.1705 -0.2682
 3611W        W20085   5.208  18.406   1.569  0.1551  0.3123 -0.2042
 3612W        W20086  13.098  10.459   4.395 -0.1733 -0.0432  0.1973
 3613W        W20087   7.554  12.058  12.067  0.0462 -0.0694 -0.2458
 3614W        W20088  11.595  18.038   3.507 -0.3914 -0.0630 -0.0296
 3615W        W20089   2.072  13.046   3.653 -0.1484 -0.0515  0.1401
 3616W        W20090  13.908  17.036   0.112 -0.1365 -0.1280  0.1613
 3617W        W20091   9.991   7.355   3.831 -0.0661 -0.0748 -0.0397
 3618W        W20092   0.142   7.987  10.934  0.2097 -0.1173  0.1703
 3619W        W20093   3.783   7.898   2.963  0.0994 -0.1505 -0.0775
 3620W        W20094   4.398  10.922   5.244  0.1733  0.4622 -0.0100
 3621W        W20095  15.443   2.151   2.566 -0.4924 -0.0217  0.2058
 3622W        W20096  13.467  10.143   3.487  0.2780  0.0583  0.0970
 3623W        W20097  18.164   7.261  15.064  0.0845 -0.2115 -0.1456
 3624W        W20098  13.706  12.709   0.518 -0.2506  0.2026  0.1950
 3625W        W20099  16.070  16.497   1.170 -0.1840  0.1276 -0.1104
 3626W        W20100  16.190  12.099   4.090  0.0988 -0.1910 -0.1249
 3627W        W20101  14.516   2.967   2.740 -0.0220  0.1494  0.0234
 3628W        W20102   0.808   9.740  11.029 -0.0162  0.0987  0.1873
 3629W        W20103  16.559   6.765   2.736 -0.0390 -0.2002  0.0286
 3630W        W20104   0.787  10.895  13.857 -0.2694 -0.0073 -0.2448
 3631W        W20105  12.234  11.276  13.561 -0.0679  0.0203  0.0471
 3632W        W20106  11.153  14.769   6.289 -0.0339 -0.0044  0.1270
 3633W        W20107   0.233  10.302   2.014 -0.1255  0.2672  0.0861
 3634W        W20108  17.911  13.186   3.522 -0.1221  0.2271  0.1254
 3635W        W20109  12.453  18.417   0.659  0.0356  0.0599 -0.2218
 3636W        W20110  15.911   6.257  15.365 -0.3286  0.1348 -0.0805
 3637W        W20111   4.793  10.909  13.589  0.2939  0.1800 -0.1665
 3638W        W20112  14.737  17.131  12.019  0.0547 -0.0404  0.3502
 3639W        W20113  18.479  11.886  13.929  0.1527 -0.2832 -0.0220
 3640W        W20114   5.045   2.044  11.543  0.1091  0.0441  0.1172
 3641W        W20115  15.542   9.478   5.597 -0.0588  0.3379  0.0196
 3642W        W20116  12.253  14.352   4.441  0.1502  0.3086  0.2249
 3643W        W20117   7.264   6.269   1.828 -0.3748  0.0420 -0.0993
 3644W        W20118   9.800   8.219  15.624 -0.1498 -0.1105  0.1404
 3645W        W20119  17.643   0.460  10.705  0.1987  0.0185 -0.1394
 3646W        W20120  14.636  18.264  13.709  0.3581 -0.2826  0.1558
 3647W        W20121   2.897  10.511  15.847 -0.1023  0.3039 -0.4614
 3648W        W20122  16.306  11.052   1.214  0.0015  0.0420  0.1128
 3649W        W20123   1.254   4.267   2.110 -0.2102  0.1850 -0.1103
 3650W        W20124   5.395   4.020  14.240 -0.4009  0.0551  0.2637
 3651W        W20125   7.851  13.964   5.227  0.0678  0.0316  0.1899
 3652W        W20126  13.926  13.540   1.734  0.2129  0.1088 -0.4357
 3653W        W20127  18.234   5.693  13.172 -0.1651  0.0051  0.1335
 3654W        W20128   8.422  14.154  14.413  0.4576 -0.1790 -0.0814
 3655W        W20129   5.815   1.777  11.601 -0.0467  0.0294 -0.1265
 3656W        W20130   7.235  12.857  14.913 -0.0496  0.0199 -0.3684
 3657W        W20131  18.201   2.735   2.416  0.1308 -0.0328  0.1102
 3658W        W20132   8.395   9.604  13.724 -0.2028 -0.1102  0.4197
 3659W        W20133  12.619  12.881   2.664 -0.2223 -0.0021  0.2912
 3660W        W20134  13.065  14.005  14.187  0.2427  0.4132  0.3172
 3661W        W20135  17.873  13.970   4.962  0.1457 -0.1044 -0.0466
 3662W        W20136   7.798  15.565   2.706 -0.2794 -0.0401 -0.2256
 3663W        W20137   0.488   1.100   1.497 -0.0178 -0.0487 -0.0365
 3664W        W20138   0.999   2.062  11.404 -0.0061 -0.4849 -0.0058
 3665W        W20139   2.730   2.793   4.988  0.3059  0.1397  0.0583
 3666W        W20140  16.696  10.184   0.661 -0.0475 -0.2313 -0.1845
 3667W        W20141   0.145  12.867   6.421  0.1257 -0.0207  0.0450
 3668W        W20142   8.515  12.834  13.366 -0.0482 -0.0845  0.0740
 3669W        W20143   4.058  12.369  11.103  0.1156  0.0875 -0.2196
 3670W        W20144   2.007  16.266  12.824  0.2059  0.1108 -0.1881
 3671W        W20145   8.902  17.915  14.946 -0.0002  0.1037 -0.2699
 3672W        W20146   1.128   3.329   1.187  0.0833  0.0451  0.2921
 3673W        W20147   2.133  18.047  12.275 -0.0685 -0.3536 -0.0941
 3674W        W20148   3.471   7.514   0.456 -0.1152 -0.2602 -0.0581
 3675W        W20149   9.387   9.581  12.067  0.3057  0.2411 -0.2212
 3676W        W20150   4.410  13.202  13.972 -0.2266 -0.0357 -0.1289
 3677W        W20151   0.823  12.619   2.630  0.0992 -0.0685  0.1241
 3678W        W20152   5.625  18.327  10.923 -0.3115 -0.0414  0.1921
 3679W        W20153   7.000   5.572   3.800  0.1910  0.0679 -0.1950
 3680W        W20154  11.150   0.051   3.187 -0.0657 -0.1122  0.2971
 3681W        W20155   5.158  18.403   0.090  0.1392  0.0479 -0.1402
 3682W        W20156   7.796  15.351   0.608 -0.3108  0.2887 -0.3762
 3683W        W20157   1.853   1.838  15.250 -0.2007 -0.2131 -0.1257
 3684W        W20158  13.755   5.140   4.224  0.1266  0.2638 -0.1679
 3685W        W20159   2.522   6.645   4.182 -0.3892 -0.0084  0.1345
 3686W        W20160  12.940  15.345   2.920 -0.1298 -0.0293  0.1544
 3687W        W20161   2.046   5.442  14.420 -0.0567 -0.0042 -0.1226
 3688W        W20162   2.567  16.867  12.120  0.2129 -0.3122  0.4236
 3689W        W20163   5.544   6.629  14.801  0.3089 -0.3380  0.1323
 3690W        W20164  13.231   9.871   1.589  0.1884  0.1521 -0.1454
 3691W        W20165  12.241   2.431  11.045 -0.0749  0.0099 -0.1776
 3692W        W20166  15.470  10.871  14.310 -0.0634  0.3694  0.0575
 3693W        W20167   7.092  17.819  15.441 -0.0304 -0.1798 -0.0300
 3694W        W20168   1.922   4.405  15.969 -0.1171 -0.0278 -0.1893
 3695W        W20169   1.166   8.416   4.687  0.0084  0.2851 -0.3323
 3696W        W20170  10.523  16.501   5.185  0.0457 -0.0773  0.0305
 3697W        W20171   5.350   3.836   0.398  0.2087  0.0751  0.1522
 3698W        W20172  10.637  17.553  11.959 -0.3908  0.1181  0.2321
 3699W        W20173  18.088  17.669  14.879 -0.3027 -0.1643  0.0448
 3700W        W20174   9.580   6.346  15.945 -0.1246  0.2303  0.1645
 3701W        W20175   3.774   3.874   3.235  0.2535 -0.0372 -0.0616
 3702W        W20176  16.523   2.761  13.916 -0.1289  0.0898 -0.0772
 3703W        W20177  13.856  13.192  13.231  0.3189  0.0874 -0.0572
 3704W        W20178  11.198   9.408   1.717 -0.2064  0.4284  0.0109
 3705W        W20179   2.733  14.814  11.779  0.0415 -0.0899 -0.4028
 3706W        W20180  16.596  14.601   6.041 -0.1142 -0.0224  0.2117
 3707W        W20181   6.933   8.877   1.621  0.0751  0.1154  0.0084
 3708W        W20182  12.956  14.312  12.542 -0.2489 -0.0007 -0.1768
 3709W        W20183   8.202   5.591  15.529  0.1323 -0.0377 -0.2007
 3710W        W20184  17.296  13.659  11.359  0.0171 -0.4134  0.1932
 3711W        W20185   7.269  11.008  13.841 -0.4236 -0.1726  0.0364
 3712W        W20186   8.089   8.045   5.996 -0.2283  0.4752 -0.1391
 3713W        W20187  17.370   4.830   2.027  0.0197 -0.2019  0.1672
 3714W        W20188   5.857   8.860   5.483  0.2070 -0.0595  0.0505
 3715W        W20189  16.989  13.761   5.027 -0.1938  0.0043  0.2069
 3716W        W20190   3.006  15.317   3.661  0.0597 -0.1443  0.0453
 3717W        W20191   4.331   2.117   3.108  0.1948 -0.2191 -0.1538
 3718W        W20192  16.553  15.626   0.500 -0.3193  0.1273  0.0366
 3719W        W20193  18.390   4.989  13.242 -0.1554  0.0201 -0.1120
 3720W        W20194  17.680   3.128  13.486 -0.0230 -0.0713 -0.2087
 3721W        W20195  17.698   3.773  14.259 -0.2851  0.0298  0.0016
 3722W        W20196  12.601  14.217   2.295  0.3083  0.2532  0.0742
 3723W        W20197  15.492  16.961   3.926 -0.0509 -0.1378  0.0857
 3724W        W20198  13.061   3.116  12.366 -0.2254  0.3280  0.2829
 3725W        W20199   1.271  10.873   3.473 -0.1341 -0.1108 -0.0676
 3726W        W20200   0.995  11.128   4.254  0.0223  0.0108  0.2195
 3727W        W20201  11.238   2.382   1.215  0.1490  0.0183 -0.3556
 3728W        W20202   8.302   9.107   1.366  0.3902 -0.1982 -0.2462
 3729W        W20203   7.014   1.303   5.362  0.1394  0.0326  0.0246
 3730W        W20204   7.756   1.784  14.188  0.0337 -0.0488  0.0259
 3731W        W20205   8.784   0.861  12.230  0.3506 -0.2312 -0.0403
 3732W        W20206  12.768   0.287   1.739  0.2251 -0.1103  0.0908
 3733W        W20207  12.139   2.241   2.528  0.1115 -0.0405 -0.0155
 3734W        W20208  13.877  10.780   2.521 -0.0200 -0.1324  0.1236
 3735W        W20209   3.340   3.974  10.893 -0.1365 -0.2037  0.1567
 3736W        W20210  10.912   5.463   2.019  0.1186 -0.1773  0.0490
 3737W        W20211   9.615   3.284   5.020 -0.0100  0.0535 -0.1256
 3738W        W20212   1.950   5.438  13.868  0.0785 -0.1626 -0.0323
 3739W        W20213  14.189  10.891  14.991 -0.0885 -0.0299 -0.2007
 3740W        W20214   8.700  11.640   0.542 -0.1410  0.3681  0.4589
 3741W        W20215   8.937   9.960   1.295 -0.0513 -0.1395  0.0659
 3742W        W20216   1.985  12.770  14.748 -0.1732  0.2045  0.1517
 3743W        W20217  15.898   9.351  11.342 -0.2466  0.0185  0.0040
 3744W        W20218   8.391  15.052  15.200  0.1689 -0.2640 -0.1153
 3745W        W20219   0.251   3.390  12.017 -0.1298  0.2310 -0.0237
 3746W        W20220   3.789   3.304   3.654 -0.0400 -0.2316 -0.2478
 3747W        W20221  10.775   3.387   4.596  0.0111  0.1319 -0.1261
 3748W        W20222  13.449   6.725  14.141  0.4275  0.2823 -0.1053
 3749W        W20223   8.162  15.258  12.712 -0.2327  0.0383 -0.1456
 3750W        W20224   4.238   4.201   4.398 -0.0367  0.0739 -0.0475
 3751W        W20225  15.674  11.921   0.385 -0.1841 -0.0646 -0.1926
 3752W        W20226   6.982  11.211   1.243  0.2114 -0.0281 -0.0527
 3753W        W20227  14.891  18.065  11.819  0.1422 -0.2817 -0.1789
 3754W        W20228   5.922   7.440  14.434 -0.2238 -0.0560 -0.1642
 3755W        W20229  17.547   6.369  11.248 -0.0436  0.1719  0.0948
 3756W        W20230   2.712  12.543  14.450  0.2656  0.0721 -0.2284
 3757W        W20231  15.415  16.451   1.734  0.1305  0.0155 -0.0103
 3758W        W20232  15.910  16.960   1.283  0.4162 -0.1521 -0.2353
 3759W        W20233   4.287   3.787  10.813 -0.2492 -0.1374 -0.2471
 3760W        W20234  17.519  11.784   4.711  0.2122 -0.1064  0.2541
 3761W        W20235   2.935  10.868  13.800 -0.1486  0.1323  0.2134
 3762W        W20236  10.285  13.887   1.143  0.0635 -0.0733  0.1415
 3763W        W20237  17.015   2.286  11.639 -0.1015  0.0161  0.1539
 3764W        W20238  11.198   4.191   4.887 -0.5180  0.0361 -0.0205
 3765W        W20239  18.310   4.015   1.755 -0.2267 -0.0526 -0.0251
 3766W        W20240   0.406   6.773   0.054  0.1436 -0.0334 -0.0152
 3767W        W20241  10.797   2.156   3.162 -0.0999 -0.2267  0.1030
 3768W        W20242  13.039  13.221  13.598  0.1839 -0.1583 -0.0821
 3769W        W20243   1.190  12.623  14.218  0.1070  0.2220  0.2860
 3770W        W20244  11.841  18.466  12.327  0.1691 -0.0470  0.0846
 3771W        W20245  13.390   3.384   3.985  0.0916 -0.2718  0.0051
 3772W        W20246   1.380   6.239  14.054 -0.3021 -0.1545 -0.0088
 3773W        W20247   2.241  14.737  11.668 -0.0751  0.2154  0.0370
 3774W        W20248  10.895   9.884   3.403 -0.1005 -0.0902 -0.4312
 3775W        W20249   2.721  14.674  15.604 -0.3153 -0.1146  0.1338
 3776W        W20250   4.440   1.153   3.689 -0.1697 -0.1615  0.2974
 3777W        W20251  17.118   6.533  11.461 -0.4069  0.0827  0.1386
 3778W        W20252  11.972  11.595   0.168 -0.1807 -0.1500  0.1735
 3779W        W20253  18.029  10.733   1.574  0.0544  0.0422  0.0984
 3780W        W20254   7.872   5.310   3.309 -0.5783  0.0656 -0.3267
 3781W        W20255  17.903   4.209  10.765 -0.0655 -0.0689 -0.1594
 3782W        W20256  17.894   5.500   1.590 -0.1129  0.0091  0.1913
 3783W        W20257   0.109   9.563   5.438  0.1686  0.1055  0.1516
 3784W        W20258   7.633  13.519  14.431 -0.1203  0.1209 -0.3904
 3785W        W20259   2.533  15.598   1.089 -0.0974 -0.0282  0.0519
 3786W        W20260   0.120  16.148   3.051 -0.0500  0.4393 -0.0977
 3787W        W20261  11.471  15.317  12.960  0.0765  0.0128  0.1941
 3788W        W20262   3.995   1.745  14.165 -0.3121 -0.0090  0.0237
 3789W        W20263  17.017   4.420   0.299  0.1087  0.0416  0.1989
 3790W        W20264   0.211  11.993   4.125 -0.1616  0.2636  0.0131
 3791W        W20265  14.020  16.483   4.545  0.3965  0.3116  0.0066
 3792W        W20266  10.522   8.221  13.348  0.1232 -0.1553  0.4025
 3793W        W20267  12.575   2.581   2.446  0.2499 -0.0730  0.2165
 3794W        W20268   7.122  15.574  11.642  0.2007  0.0613 -0.0067
 3795W        W20269  16.217   6.331   4.836  0.0440 -0.2263 -0.0169
 3796W        W20270   4.532   9.622  11.677  0.2453 -0.0407 -0.1914
 3797W        W20271  17.801  13.682  12.699 -0.1430 -0.0993  0.1229
 3798W        W20272   4.451   3.647   1.937 -0.0292  0.1959 -0.1612
 3799W        W20273  15.025   7.612  12.757 -0.0738  0.0268 -0.2792
 3800W        W20274  11.171  15.139  14.628 -0.1912 -0.0267  0.1358
 3801W        W20275  15.382   6.021   4.830 -0.0053  0.0968  0.1813
 3802W        W20276  16.129   0.988   3.129  0.3092  0.2197  0.1016
 3803W        W20277  11.210  12.608   1.394  0.2545  0.1976 -0.1413
 3804W        W20278   5.195   0.692  14.096 -0.0320 -0.1340  0.1343
 3805W        W20279   4.287  10.143  15.620 -0.1835  0.0825 -0.0400
 3806W        W20280   0.177  14.956   5.259 -0.3963 -0.0587 -0.1794
 3807W        W20281  16.835   1.813   5.520  0.0949 -0.1763  0.0131
 3808W        W20282  16.674  11.581   4.202  0.2595  0.0633  0.1779
 3809W        W20283  17.357  14.369   5.372  0.0143 -0.1674  0.0134
 3810W        W20284   0.369  10.547  15.785  0.3361 -0.0116 -0.2293
 3811W        W20285  10.794   7.587  14.823  0.0513  0.0065 -0.1489
 3812W        W20286   0.070   8.331   4.749  0.1289  0.0497 -0.0932
 3813W        W20287   4.479   2.357   5.487 -0.0672  0.1798 -0.1390
 3814W        W20288   9.570  17.554  12.073 -0.1533 -0.0737  0.4717
 3815W        W20289  10.344   5.011  15.897 -0.0457 -0.3315 -0.0573
 3816W        W20290   4.802   8.498  12.360  0.1459  0.1699 -0.0426
 3817W        W20291  16.968  10.555   3.998  0.0762 -0.1536 -0.1616
 3818W        W20292  14.874   3.174   0.852  0.0776 -0.0296  0.1293
 3819W        W20293   4.140  12.050  12.173 -0.2644 -0.2202  0.1280
 3820W        W20294   6.559   2.459   2.971 -0.0583 -0.1618 -0.0819
 3821W        W20295  10.331   7.271   3.085  0.2843 -0.1893  0.0457
 3822W        W20296   6.624   7.211  11.686 -0.1894  0.1212 -0.0940
 3823W        W20297  16.025  10.767   4.096  0.0658 -0.3760  0.2473
 3824W        W20298   8.230   6.250   2.135 -0.0125 -0.0661 -0.2727
 3825W        W20299   4.074   5.994  13.536  0.1307  0.0646  0.2080
 3826W        W20300   1.903   1.383  15.009 -0.1122 -0.1321 -0.0687
 3827W        W20301   2.148   0.112  10.180 -0.1493  0.1833  0.1869
 3828W        W20302   1.678  15.696   1.098  0.1499 -0.0209  0.2489
 3829W        W20303  13.122  12.547   2.475 -0.1305  0.1827 -0.1273
 3830W        W20304   4.683  15.686   3.823 -0.0084  0.1495 -0.1539
 3831W        W20305   6.918   9.003   5.811  0.1838  0.3167 -0.1114
 3832W        W20306   0.269  18.027  14.371  0.3457  0.1847 -0.1261
 3833W        W20307   9.348   5.359  12.676 -0.2725 -0.2191 -0.2583
 3834W        W20308  14.736   1.377  15.474  0.0328  0.0114 -0.4638
 3835W        W20309   9.860   1.018  11.474 -0.1716  0.1176  0.1054
 3836W        W20310  11.039  13.605  13.542  0.0077 -0.0894  0.1551
 3837W        W20311  11.063  15.443   5.446 -0.0892 -0.2118 -0.1759
 3838W        W20312   6.602  12.472  10.360 -0.1020 -0.0696  0.1380
 3839W        W20313   8.729  12.215   1.306  0.3163 -0.2304  0.0949
 3840W        W20314   0.212  17.709   4.251 -0.2654 -0.1017 -0.1484
 3841W        W20315  12.084  12.982  12.056 -0.0946 -0.2482  0.1503
 3842W        W20316   7.976   1.383   5.119  0.2200 -0.1178 -0.1504
 3843W        W20317   5.822   3.634   4.833  0.1109  0.0031  0.2246
 3844W        W20318  18.394   0.939   2.243  0.3941  0.0851  0.1407
 3845W        W20319  10.258   2.729  12.557  0.1214 -0.1548  0.1467
 3846W        W20320  14.930   7.002  11.435 -0.2932  0.4044 -0.3396
 3847W        W20321   8.332  18.109   0.418  0.2334 -0.1264  0.0594
 3848W        W20322  10.884  14.592  12.105  0.1032 -0.0666 -0.2151
 3849W        W20323  13.242   0.684  13.903 -0.0953 -0.0454  0.1090
 3850W        W20324  16.700  14.589   5.549 -0.0266 -0.0351 -0.1587
 3851W        W20325   8.031   5.930  12.805  0.1361  0.4038  0.3350
 3852W        W20326   4.341   6.443   2.799 -0.1735 -0.3415 -0.0164
 3853W        W20327  15.691  14.773   4.241 -0.0876  0.0008  0.2948
 3854W        W20328   5.590  17.743   4.304  0.0767  0.0711  0.0421
 3855W        W20329   2.527  17.866  13.590 -0.3720  0.0401  0.0263
 3856W        W20330   4.944   1.765   0.417  0.0628  0.1409  0.0315
 3857W        W20331   9.232  13.511   2.312  0.0722  0.2517 -0.1850
 3858W        W20332   1.403  14.758  12.088  0.1202 -0.2205  0.0549
 3859W        W20333  18.400   5.826  15.694 -0.1004  0.0610  0.2014
 3860W        W20334   6.675   8.786   4.870  0.0032  0.1310 -0.2429
 3861W        W20335  11.342   0.852  13.707 -0.1117  0.1093 -0.2508
 3862W        W20336   0.423   1.768  13.947 -0.0708 -0.0553  0.0478
 3863W        W20337   2.444  10.369  12.527 -0.1108 -0.0355 -0.0836
 3864W        W20338  16.497   9.979  15.431 -0.0486  0.4914 -0.0696
 3865W        W20339   3.329  14.735   1.714  0.2978  0.2995  0.1672
 3866W        W20340   5.271   1.433  15.288 -0.1418  0.0576 -0.0339
 3867W        W20341  12.673  11.365   4.812  0.4751 -0.1640  0.1985
 3868W        W20342  13.887   0.851  13.859  0.3060 -0.1219  0.1926
 3869W        W20343   6.743   4.797  14.758  0.1020  0.0103 -0.1230
 3870W        W20344   3.203   3.545   5.565  0.0024 -0.2710  0.3865
 3871W        W20345  13.227   1.845  11.438  0.0380  0.2048 -0.0723
 3872W        W20346   4.457  18.155   5.015 -0.0646  0.1271 -0.0686
 3873W        W20347   5.937   5.582  12.087 -0.1039 -0.1628  0.0580
 3874W        W20348  14.700  17.974   0.825 -0.0908  0.0205  0.2642
 3875W        W20349  13.633  13.612  11.616 -0.0686 -0.1358 -0.0243
 3876W        W20350   4.549   3.053   3.894  0.0298  0.0552  0.0029
 3877W        W20351  11.745   6.006   2.202 -0.1515 -0.0430  0.1525
 3878W        W20352   7.188   6.459   5.338 -0.2800  0.0161  0.2509
 3879W        W20353  11.350  18.135  13.042 -0.2177 -0.0343 -0.0401
 3880W        W20354   1.479  14.834  13.774  0.1645  0.1106  0.0589
 3881W        W20355   2.510   5.054   4.017  0.1098 -0.0489  0.2360
 3882W        W20356  16.627   9.699   4.115 -0.0645  0.1377 -0.0901
 3883W        W20357   5.562   3.267  12.702 -0.0885 -0.2683  0.3563
 3884W        W20358  16.860   5.326   3.795 -0.2027 -0.1787  0.0300
 3885W        W20359   8.937   0.424   2.835 -0.1733 -0.1899  0.5031
 3886W        W20360  16.297  11.651   5.190  0.1981  0.2306  0.1329
 3887W        W20361   5.159   7.832   1.542 -0.1349 -0.2717  0.1034
 3888W        W20362  14.951   3.433  11.377  0.1155 -0.1639 -0.1827
 3889W        W20363   9.985  15.728  13.329 -0.0251  0.2223 -0.2462
 3890W        W20364   5.217   6.945   1.816 -0.0812 -0.0828  0.0503
 3891W        W20365  13.472   1.536   3.393 -0.2190  0.1895  0.2655
 3892W        W20366   6.034   8.793   1.849 -0.3861 -0.0879 -0.1059
 3893W        W20367   6.641   8.736  14.513  0.1376 -0.0557  0.0019
 3894W        W20368  10.437  12.788  14.661  0.0317  0.0586  0.0652
 3895W        W20369  15.726  10.667   4.547 -0.2522  0.0103 -0.2654
 3896W        W20370   3.346  17.565  14.432 -0.0291  0.0225 -0.1008
 3897W        W20371   7.942   5.504   0.065  0.1511 -0.3075  0.3384
 3898W        W20372   1.892   4.327  10.935  0.0081  0.0171  0.1385
 3899W        W20373   7.298  14.485  11.492  0.2100 -0.1361 -0.1571
 3900W        W20374  12.140  14.299   4.956  0.0715  0.1424  0.1193
 3901W        W20375   0.636   6.771   1.291 -0.1160  0.0911  0.2506
 3902W        W20376  12.315  13.102  15.685 -0.0118  0.1541 -0.2115
 3903W        W20377  14.769   7.030   2.775 -0.1638  0.0377  0.1912
 3904W        W20378   6.112   9.947   1.267 -0.1164 -0.0236  0.3593
 3905W        W20379   1.009  14.572  13.720 -0.1114  0.0574 -0.0188
 3906W        W20380  12.393  13.514   4.828 -0.1013 -0.2039 -0.4076
 3907W        W20381  13.493  11.499  11.001  0.0895 -0.1136  0.1562
 3908W        W20382   9.530   4.593  13.827 -0.0357 -0.1854  0.1853
 3909W        W20383  17.918  10.373  15.425  0.0872 -0.3218  0.1474
 3910W        W20384   7.839   2.045   2.836 -0.0365  0.0536 -0.1063
 3911W        W20385  11.518  10.332   1.600  0.2456 -0.0986  0.0943
 3912W        W20386  10.751   3.277  13.703 -0.1942 -0.1917  0.0866
 3913W        W20387  10.610  18.060  12.127 -0.0847 -0.4585 -0.2252
 3914W        W20388   9.624   0.120  14.954  0.2702 -0.2072 -0.0334
 3915W        W20389  11.380  13.488  12.452 -0.0408  0.0558 -0.0202
 3916W        W20390  17.551  10.187  12.570  0.1661 -0.3534 -0.0124
 3917W        W20391  11.813   2.009   4.763 -0.1006 -0.2764  0.0842
 3918W        W20392   7.672   5.508  14.097 -0.3985  0.1222 -0.2152
 3919W        W20393   2.036   1.903   3.914 -0.0045  0.3796  0.0871
 3920W        W20394  12.589  18.280   1.990 -0.0459  0.0652  0.1116
 3921W        W20395   9.389   2.958  13.052 -0.1818 -0.1097  0.1698
 3922W        W20396   4.701  17.790   1.801 -0.0308  0.3340 -0.2784
 3923W        W20397  10.679  10.064   5.045 -0.3857  0.0759 -0.1143
 3924W        W20398   0.297  12.650  15.489 -0.1727 -0.0429  0.1229
 3925W        W20399  16.784  13.088   1.754  0.0438 -0.3284  0.0612
 3926W        W20400   2.216   3.265  14.362  0.1551  0.3183 -0.1295
 3927W        W20401  10.677  17.016  10.728  0.2944 -0.1931  0.3046
 3928W        W20402   5.800  15.746   4.322 -0.2584  0.1152  0.1334
 3929W        W20403  16.298  13.060   0.373 -0.0305  0.5223  0.0814
 3930W        W20404   6.612  10.279  15.097 -0.4473  0.4180 -0.2416
 3931W        W20405  18.202   0.312  11.545  0.1832 -0.0122 -0.4587
 3932W        W20406  13.635  13.851  14.222  0.2984  0.2110  0.0614
 3933W        W20407   8.735  14.431   4.999 -0.0310  0.3988 -0.1093
 3934W        W20408   7.829   9.025   3.491 -0.0461 -0.0133  0.2012
 3935W        W20409  17.980   5.389  12.549 -0.0979 -0.1357  0.0776
 3936W        W20410  11.257  14.953   4.860  0.1823 -0.4155 -0.2836
 3937W        W20411   2.036   7.116   3.623 -0.2007  0.4795  0.3449
 3938W        W20412   2.689   1.817  12.034  0.2238 -0.0046  0.1524
 3939W        W20413  13.186   5.150   4.178  0.1344 -0.0417 -0.1018
 3940W        W20414  14.230   3.381   5.477 -0.0610 -0.2980 -0.4840
 3941W        W20415  10.019   6.834  11.295 -0.0391 -0.0274  0.1041
 3942W        W20416  18.415   4.310   4.118  0.1432  0.0684 -0.2666
 3943W        W20417  11.987  18.215  12.828  0.5338 -0.1558  0.1144
 3944W        W20418   2.768  13.504   2.752 -0.1748 -0.1998  0.0161
 3945W        W20419   0.732  11.960   0.518  0.1463 -0.1076  0.1789
 3946W        W20420   2.396  10.288   0.063 -0.0970 -0.0208 -0.3109
 3947W        W20421   4.383   4.951   9.870 -0.2439  0.0377  0.1015
 3948W        W20422  16.601   0.265  15.815  0.0414 -0.1143  0.2383
 3949W        W20423  10.799   8.341   0.463 -0.0082 -0.1110  0.1749
 3950W        W20424   8.531  15.150  14.211  0.0831 -0.0507 -0.2397
 3951W        W20425   3.755   3.557   5.462  0.0795  0.4607 -0.2744
 3952W        W20426   3.519  11.228   1.890 -0.0565  0.0529  0.1834
 3953W        W20427   1.043  17.356   4.300  0.2100  0.1095  0.0922
 3954W        W20428  11.807   3.175  11.259  0.1252 -0.2723 -0.0971
 3955W        W20429   5.898  14.496  10.589 -0.0953 -0.2546  0.2391
 3956W        W20430   0.758  16.951   2.846  0.0244  0.3022 -0.3301
 3957W        W20431  14.218  10.116  10.356  0.0846  0.0330  0.0536
 3958W        W20432   1.956   3.576  12.936  0.0613  0.1831 -0.0914
 3959W        W20433   0.723  15.257   1.638 -0.0584  0.1700  0.0079
 3960W        W20434   8.372   4.097  12.981  0.0868  0.0217 -0.0156
 3961W        W20435   5.906  17.718   0.186  0.0372 -0.3784 -0.3208
 3962W        W20436   5.285   5.295  15.537 -0.4414  0.1523  0.0837
 3963W        W20437  15.222   3.640  14.241 -0.0602  0.0123  0.3479
 3964W        W20438  17.826   3.681  13.716  0.0451  0.2645 -0.0083
 3965W        W20439  14.908   1.739   0.731 -0.0060 -0.1564  0.1959
 3966W        W20440   6.942   3.565  13.910  0.2686  0.1887  0.1419
 3967W        W20441   1.563   5.219  11.192  0.2184  0.0707 -0.1590
 3968W        W20442  17.460  17.691   2.203  0.0513 -0.0959 -0.0183
 3969W        W20443  14.237  13.656  12.480  0.1229  0.1730 -0.1567
 3970W        W20444   6.181   0.405  13.850  0.0888 -0.0178  0.0858
 3971W        W20445   6.882   5.389   5.874 -0.2418  0.0471 -0.0243
 3972W        W20446   2.212   0.885   2.063 -0.0530  0.1283 -0.0614
 3973W        W20447  10.217   1.474   3.578 -0.3870  0.2150  0.1929
 3974W        W20448  11.493   3.261   4.447  0.0218  0.0480 -0.1589
 3975W        W20449   1.907   6.985  11.409  0.2768  0.0009 -0.0081
 3976W        W20450  10.780   9.836   6.282  0.0762 -0.0734  0.1611
 3977W        W20451   5.396   4.823  15.609  0.0014 -0.3803 -0.2243
 3978W        W20452   9.698   2.761  14.407  0.0530  0.1495 -0.1285
 3979W        W20453   0.253  13.546   4.721  0.0942  0.2442 -0.2142
 3980W        W20454   9.425   3.954  12.678 -0.2106  0.0240 -0.2081
 3981W        W20455  17.619   8.293   0.087  0.0426 -0.2682 -0.3554
 3982W        W20456   4.068   8.616  11.732  0.0946  0.1419 -0.1886
 3983W        W20457  15.259   3.423   5.415 -0.0736  0.2351 -0.4386
 3984W        W20458  16.113  13.275   3.010 -0.2827 -0.1757 -0.2962
 3985W        W20459  13.164   2.524   4.237  0.2755 -0.2371 -0.2128
 3986W        W20460   6.833  10.203   4.424 -0.0263  0.3893 -0.1819
 3987W        W20461  10.914  11.640   2.179  0.0678 -0.1473  0.1924
 3988W        W20462  10.953  15.372  13.867  0.0566 -0.3165 -0.3152
 3989W        W20463   1.696  17.133  11.369  0.1862 -0.2875 -0.0624
 3990W        W20464  18.302  14.905   0.966  0.0870  0.0093 -0.1586
 3991W        W20465   4.926  15.811  13.934 -0.1073  0.0536  0.1577
 3992W        W20466   6.323  15.815   0.694  0.2800 -0.2212  0.1805
 3993W        W20467   1.291   0.082   3.725  0.1470 -0.0590 -0.0698
 3994W        W20468   6.304   6.806  11.360 -0.0996 -0.2190 -0.0217
 3995W        W20469  13.231  12.133  11.436  0.0814 -0.0243 -0.0499
 3996W        W20470  11.558  14.843   1.284 -0.0939 -0.2116  0.2573
 3997W        W20471  12.691  16.920  12.212  0.4890  0.0550 -0.1909
 3998W        W20472   6.238   7.272   0.465 -0.0108  0.1234 -0.3772
 3999W        W20473   3.634  14.286  14.800  0.1900  0.1509  0.2382
 4000W        W20474  14.907   7.097  14.781 -0.1473  0.1301  0.0314
 4001W        W20475   3.269   6.623   4.588  0.3089 -0.2096  0.0589
 4002W        W20476   5.350  10.233  10.303 -0.5687  0.0422  0.1012
 4003W        W20477   5.938  13.371   5.284  0.1311  0.0422 -0.0487
 4004W        W20478   9.002   7.467  11.923 -0.0112  0.1808 -0.2482
 4005W        W20479   7.458   8.904   4.223  0.1980  0.1696 -0.0529
 4006W        W20480   5.304   8.574  11.530 -0.3798 -0.2157 -0.0128
 4007W        W20481  13.581  10.197   2.883  0.2578 -0.0822  0.2361
 4008W        W20482   9.500  16.408  14.391 -0.2754  0.1310  0.1491
 4009W        W20483  14.430   6.502  12.164 -0.0648  0.0685 -0.0083
 4010W        W20484  14.698  11.512   0.488 -0.1110  0.2081  0.2795
 4011W        W20485   9.317   7.671   4.486  0.1841 -0.3473 -0.1613
 4012W        W20486  17.800   5.179   2.458  0.2692  0.0710 -0.1103
 4013W        W20487   6.623  13.979   4.426 -0.1584  0.1400 -0.0571
 4014W        W20488   9.108   4.287  14.327 -0.1571  0.2405 -0.0412
 4015W        W20489  16.986  14.180   1.070 -0.1330  0.0506 -0.0157
 4016W        W20490  14.721   4.187  12.269  0.0600  0.1151 -0.3034
 4017W        W20491   2.431   5.909   1.257 -0.2621  0.1024  0.0949
 4018W        W20492   7.520   6.914   5.337  0.3736 -0.1139  0.0435
 4019W        W20493   1.498   6.038   0.908 -0.2398  0.1300 -0.0445
 4020W        W20494   8.650   0.239   2.447 -0.1505 -0.1583  0.0259
 4021W        W20495  10.167   2.290  14.264  0.2065 -0.2234 -0.2248
 4022W        W20496   8.695   2.965   0.927 -0.0116  0.0748 -0.0010
 4023W        W20497  10.086  16.801   4.892 -0.0093 -0.2694 -0.2542
 4024W        W20498  10.112   8.733  12.099  0.2012 -0.1005 -0.1322
 4025W        W20499   8.989  17.912   3.515 -0.0664  0.0698  0.2576
 4026W        W20500   7.982  16.745  14.077  0.1786 -0.2625 -0.3600
 4027W        W20501   8.084  13.959   0.583 -0.1605 -0.0753 -0.3433
 4028W        W20502  17.709  17.671   4.166 -0.2109 -0.0038 -0.0216
 4029W        W20503  14.806  15.419   4.042 -0.0933  0.1006  0.2148
 4030W        W20504   8.242   4.328  12.003 -0.2026 -0.3744 -0.0366
 4031W        W20505   6.588  13.513  14.648  0.1940  0.4133 -0.1723
 4032W        W20506  18.228   3.108   3.617 -0.2791 -0.0409  0.1290
 4033W        W20507   4.355  13.916  13.150 -0.1040  0.0841 -0.0693
 4034W        W20508   7.559  17.988  13.121 -0.0523 -0.0495  0.0215
 4035W        W20509   9.792  17.972  13.179  0.1825  0.0196 -0.1995
 4036W        W20510   7.931   1.846   2.071 -0.1617 -0.1710  0.2416
 4037W        W20511  15.460  18.447   0.835  0.1550 -0.1068 -0.0681
 4038W        W20512  15.032  13.678  15.066  0.1628 -0.0830  0.2978
 4039W        W20513   4.325  16.842   1.558 -0.2365  0.2092 -0.0220
 4040W        W20514  17.470   1.373  12.249  0.0062  0.4163  0.0522
 4041W        W20515  14.279  11.863   4.456 -0.1229  0.3748 -0.1903
 4042W        W20516  15.769   5.020   2.628  0.0234  0.0554  0.1063
 4043W        W20517   2.198   9.702   0.017  0.1409 -0.0484  0.0649
 4044W        W20518   1.605   6.786  13.439 -0.1727  0.3000 -0.0154
 4045W        W20519  17.681   1.972  12.222 -0.1741 -0.1319  0.1414
 4046W        W20520   2.250   3.750   5.084  0.2322  0.1058  0.4447
 4047W        W20521   4.570  11.270  15.900  0.2636 -0.0977  0.3204
 4048W        W20522   7.284   3.897   0.581 -0.1195 -0.0248 -0.2513
 4049W        W20523  15.314   5.425   5.657  0.1990  0.2616  0.2706
 4050W        W20524   5.886   6.968  12.512  0.0298 -0.2891  0.2650
 4051W        W20525  10.826  16.317  12.492  0.3581 -0.1947 -0.0604
 4052W        W20526   7.000  10.207   4.923  0.0438  0.0339  0.0505
 4053W        W20527   9.684  17.626   1.705 -0.0677 -0.0231 -0.0343
 4054W        W20528  14.810   3.727  10.251  0.1468 -0.0138  0.2575
 4055W        W20529   5.542  17.361  15.909 -0.3696  0.1840  0.0542
 4056W        W20530   5.017   9.000  13.048 -0.1172  0.1153  0.2923
 4057W        W20531  13.532  14.800   1.093 -0.1997  0.1313  0.0263
 4058W        W20532   0.055   1.606   0.248  0.2858 -0.0341  0.0169
 4059W        W20533  10.349  14.489   3.670  0.2169  0.1202  0.0034
 4060W        W20534   9.838   5.707  13.215  0.1404 -0.1001  0.0681
 4061W        W20535   4.068  16.251   1.807  0.0040  0.0439  0.0584
 4062W        W20536   0.542  14.699  10.587  0.1316 -0.0735  0.1742
 4063W        W20537  13.439   9.529  11.651  0.1165  0.2394 -0.1844
 4064W        W20538   6.103  18.081   1.554  0.2200  0.0364 -0.1606
 4065W        W20539   6.318   3.559   4.940 -0.3118  0.0292 -0.0864
 4066W        W20540   8.639  17.038   5.262  0.1296  0.0753  0.0153
 4067W        W20541   1.586  16.539   2.321  0.2124  0.1545  0.1775
 4068W        W20542   6.125  14.920   0.393  0.0946 -0.2376 -0.3762
 4069W        W20543  13.008   2.234   0.223  0.1350  0.1418  0.1628
 4070W        W20544   0.036  17.576   3.259  0.2699  0.0774 -0.1845
 4071W        W20545   9.305  17.079   4.619  0.1050 -0.2726 -0.1197
 4072W        W20546   1.430  13.567  13.187 -0.0472 -0.1604 -0.0802
 4073W        W20547  11.390   4.637   0.560 -0.0493 -0.2923 -0.0687
 4074W        W20548  10.962   9.508   1.300 -0.0711  0.1358  0.3620
 4075W        W20549  11.157  13.488  11.581 -0.3773 -0.1776  0.3059
 4076W        W20550   7.723   7.045   0.721  0.0252 -0.0341  0.2616
 4077W        W20551  14.019   6.048   1.026  0.2256 -0.0183  0.0510
 4078W        W20552   3.375   4.292   4.378  0.2502  0.1155  0.0750
 4079W        W20553   8.141   6.846  11.364 -0.1944  0.0221 -0.1867
 4080W        W20554   9.861  16.192  15.380  0.0340 -0.0825 -0.1130
 4081W        W20555   5.365  11.289  12.413 -0.0875 -0.3352 -0.1578
 4082W        W20556   7.677  16.549   1.717 -0.3169  0.1018  0.0282
 4083W        W20557   5.746   8.827   0.806 -0.1076  0.4115  0.0606
 4084W        W20558  12.451   4.879   1.719  0.1187  0.1446 -0.0632
 4085W        W20559  15.173  10.127   1.553 -0.0208 -0.0834 -0.0585
 4086W        W20560  11.715   7.064   4.108  0.3232  0.2482  0.3777
 4087W        W20561   9.415   7.999  15.261  0.0163  0.0932 -0.0175
 4088W        W20562   5.244  17.628   4.689 -0.4453 -0.1214  0.1473
 4089W        W20563   6.329  12.652   1.501 -0.0570 -0.0252  0.0986
 4090W        W20564  10.230  11.773  13.804 -0.1504 -0.2438 -0.0083
 4091W        W20565   9.642   9.530  15.487  0.3062  0.0841  0.1608
 4092W        W20566  18.428   8.023   3.583 -0.0823  0.3421 -0.1633
 4093W        W20567   8.910   0.287   0.173 -0.2865 -0.1601  0.1027
 4094W        W20568  11.342   7.003   5.752  0.2046  0.2889  0.3368
 4095W        W20569   6.057   0.441  10.698 -0.2034 -0.0855 -0.0179
 4096W        W20570   9.712  16.672   1.668 -0.0332  0.1135 -0.3142
 4097W        W20571   7.258  14.143   2.645  0.1719  0.0858  0.0099
 4098W        W20572   0.127   3.247   0.154 -0.0227 -0.1934 -0.0121
 4099W        W20573  17.505   7.079   3.555  0.1580  0.0704  0.3240
 4100W        W20574  14.501   8.964  14.567  0.2660  0.0198 -0.2764
 4101W        W20575  12.057  13.402   4.349  0.3590  0.0340  0.0553
 4102W        W20576   2.809   5.244  12.693  0.0051  0.0472 -0.0742
 4103W        W20577   3.289  11.061   1.430 -0.0649  0.0630 -0.0232
 4104W        W20578   2.220  11.017   3.358 -0.1520 -0.0542 -0.0014
 4105W        W20579   7.276   5.882  12.264 -0.0375  0.1939  0.0412
 4106W        W20580   4.150  10.593   4.441 -0.0163  0.0267  0.2795
 4107W        W20581   1.253  13.761  11.825  0.1748 -0.2498 -0.1348
 4108W        W20582   1.327  10.178   4.441 -0.3360  0.3815 -0.1229
 4109W        W20583   8.716   6.941  13.270 -0.2394  0.0976  0.0969
 4110W        W20584   2.901  15.865   3.020 -0.1155 -0.0388 -0.0023
 4111W        W20585   4.370   1.649   6.043  0.0994 -0.0809  0.1061
 4112W        W20586   0.487  13.911  14.041  0.0282  0.0365 -0.2410
 4113W        W20587  10.754  15.798  12.142  0.0305  0.1315 -0.4972
 4114W        W20588  14.427   9.877   2.297 -0.1320 -0.0682  0.3069
 4115W        W20589   4.127  12.609   5.233 -0.1563  0.0223 -0.0735
 4116W        W20590   1.814   6.485  15.336  0.0687 -0.0060  0.1060
 4117W        W20591  12.099  14.108   4.024 -0.2423 -0.1671 -0.0555
 4118W        W20592   1.449   0.046   4.723 -0.3604 -0.0291 -0.0339
 4119W        W20593   1.940  17.383   5.139  0.1137 -0.1682 -0.0826
 4120W        W20594  10.332  14.993   4.858  0.3162 -0.0397  0.0310
 4121W        W20595  16.471   8.819   0.933 -0.2275 -0.1548 -0.0198
 4122W        W20596  14.193   5.425  15.749  0.0279  0.3310 -0.2560
 4123W        W20597   6.014   0.002   2.005 -0.1894  0.0686 -0.0890
 4124W        W20598   3.852   9.611   5.252  0.2554 -0.2490  0.1273
 4125W        W20599   8.936   3.923   1.793 -0.0407 -0.4910  0.0992
 4126W        W20600   2.474  14.048   4.969  0.1725  0.0669  0.1260
 4127W        W20601   8.515  15.607   4.677 -0.1567 -0.2223 -0.0285
 4128W        W20602  10.667  14.684  11.465  0.0681  0.1609  0.1063
 4129W        W20603  16.783   8.683   2.026 -0.2634 -0.1126 -0.0322
 4130W        W20604   6.847  13.749  13.057  0.3018 -0.1393  0.3350
 4131W        W20605  17.434   5.178  15.105 -0.0411  0.0729  0.0986
 4132W        W20606   7.245  16.207   2.112 -0.2864  0.0389  0.3994
 4133W        W20607  12.224   4.775  13.258 -0.0222 -0.0764  0.0973
 4134W        W20608  12.669  16.254   0.351 -0.2033 -0.4818 -0.3430
 4135W        W20609   5.325   5.797   0.096  0.0271  0.1310  0.1062
 4136W        W20610   3.725  11.745  13.997 -0.1251 -0.1547  0.0596
 4137W        W20611  14.228  12.133   2.743 -0.0751 -0.1145  0.1120
 4138W        W20612  14.876   2.407  11.765  0.1165  0.1955  0.2423
 4139W        W20613   6.984   2.549  11.513 -0.2267 -0.2318  0.0134
 4140W        W20614   5.983   9.304  14.636  0.0269 -0.0677 -0.0570
 4141W        W20615  12.369  14.316   0.383 -0.3536  0.1647  0.0831
 4142W        W20616   1.755  14.723  11.526  0.1584  0.0367 -0.0667
 4143W        W20617   9.620   8.145  14.179 -0.0622  0.0866 -0.0287
 4144W        W20618   6.740   1.435   0.173  0.2802 -0.2199 -0.1605
 4145W        W20619  13.481  17.578  12.142 -0.3446  0.0205 -0.3614
 4146W        W20620   9.312  10.000  10.916 -0.1152 -0.1619 -0.1336
 4147W        W20621  10.796  18.220  13.202 -0.0381 -0.0079  0.0127
 4148W        W20622  17.904  18.183   1.630 -0.1558  0.0254 -0.2386
 4149W        W20623  16.982   4.342   4.584 -0.0993  0.0137 -0.4215
 4150W        W20624   5.895   8.225   4.378  0.2050  0.0206  0.3111
 4151W        W20625  11.954   9.233  13.018  0.1618  0.0571 -0.2656
 4152W        W20626  15.662   6.915   1.548 -0.0009  0.0113  0.1927
 4153W        W20627   0.435  10.014   0.694 -0.1701 -0.2329 -0.1538
 4154W        W20628   1.810   5.058   5.131  0.0355  0.0494 -0.2670
 4155W        W20629  11.571  15.155   6.178 -0.3128 -0.0786 -0.2353
 4156W        W20630   1.573   1.763  12.303 -0.2427  0.2563  0.0553
 4157W        W20631   6.125   1.075   4.666  0.1075 -0.1074  0.2934
 4158W        W20632   2.088  15.136  12.387  0.0330 -0.0222 -0.0745
 4159W        W20633   2.829   5.336   3.609 -0.4489 -0.3192  0.0643
 4160W        W20634  13.899   7.353  13.854 -0.2817 -0.0210  0.1907
 4161W        W20635   8.305  12.695   5.179 -0.1190  0.1399 -0.3270
 4162W        W20636   0.736   8.448   3.389 -0.2552  0.1200  0.0309
 4163W        W20637   1.000  10.940  11.634 -0.1987 -0.1464 -0.5113
 4164W        W20638   8.378   3.011  14.788  0.2896 -0.0315  0.1691
 4165W        W20639   9.378  13.739  11.248 -0.1363 -0.1041  0.0813
 4166W        W20640   5.511   9.187   1.047  0.0541 -0.1060  0.0099
 4167W        W20641   6.913   8.350  12.131  0.2329 -0.2151  0.1415
 4168W        W20642   2.919  13.922   3.976  0.2905 -0.0724  0.1171
 4169W        W20643   4.325   5.152  12.642  0.0730  0.2767  0.1706
 4170W        W20644   5.122  17.495   1.744  0.2140 -0.0813 -0.4634
 4171W        W20645   8.564   5.526   1.223 -0.1473  0.0284  0.0293
 4172W        W20646  15.326   0.549   1.468 -0.0369  0.0823  0.0783
 4173W        W20647   1.762  12.050   1.814  0.3045 -0.2630  0.1064
 4174W        W20648  14.245   0.511  15.342 -0.1201 -0.2938 -0.1762
 4175W        W20649  17.300  11.430  14.849 -0.1911 -0.0654  0.0266
 4176W        W20650   0.856   6.302   0.490  0.0117 -0.2477 -0.1778
 4177W        W20651   3.857  15.378  15.814  0.0082 -0.1777 -0.3201
 4178W        W20652   0.911  13.649   4.075  0.0790  0.1294  0.1969
 4179W        W20653  14.555  10.763   3.587 -0.2699  0.5079 -0.0410
 4180W        W20654   3.691   5.808   3.422 -0.1004  0.0807  0.1588
 4181W        W20655   0.330   9.926   2.772  0.2082  0.1537 -0.1384
 4182W        W20656   9.218  15.502  11.187 -0.1385  0.4479  0.0115
 4183W        W20657   2.101   6.507   4.770 -0.4026  0.2280 -0.2293
 4184W        W20658  15.657  15.804  14.251  0.1568 -0.0580  0.0689
 4185W        W20659  10.265   8.488  11.499 -0.1994  0.3352 -0.1461
 4186W        W20660   9.512  13.423  13.456  0.2289  0.1467 -0.0145
 4187W        W20661   2.186   9.484   2.079 -0.0454  0.4023  0.1390
 4188W        W20662  16.153  14.817   3.101  0.0695 -0.2727 -0.2861
 4189W        W20663   7.087  15.701  14.156  0.0975 -0.0921 -0.1820
 4190W        W20664  14.283   6.722  10.233  0.0305  0.2061  0.0493
 4191W        W20665   6.508  10.284   1.442  0.1363 -0.1136 -0.2741
 4192W        W20666   3.664   3.643  14.668 -0.0771  0.0474  0.1131
 4193W        W20667  14.969   6.179   1.724  0.1530  0.0459 -0.0395
 4194W        W20668   2.427   8.958   2.247 -0.1825 -0.2914  0.1076
 4195W        W20669   5.448   4.065  12.623  0.0017 -0.0571  0.0033
 4196W        W20670  17.142   3.916  12.189 -0.4447  0.0267 -0.0155
 4197W        W20671  10.707   1.220   5.509 -0.0296 -0.1592 -0.0607
 4198W        W20672   0.506  13.906   2.334  0.1762  0.2842  0.0536
 4199W        W20673   6.115  17.327   0.022 -0.0546  0.2600 -0.2111
 4200W        W20674   6.725   0.309   0.674  0.3218  0.0728  0.0646
 4201W        W20675   9.506  15.415   1.446 -0.1084 -0.1072  0.1838
 4202W        W20676  12.538   0.020  10.675  0.0572  0.2814  0.1409
 4203W        W20677  17.692  14.984   3.555  0.4088 -0.2451 -0.2569
 4204W        W20678   1.333  13.219  15.389 -0.1323 -0.1152  0.0299
 4205W        W20679   1.247   0.718   4.182  0.1267  0.1794 -0.0998
 4206W        W20680   2.362   9.554   4.331  0.1790 -0.4799 -0.0058
 4207W        W20681  12.971  11.264  12.362  0.0532  0.0103  0.1990
 4208W        W20682  14.544  11.451   1.506 -0.1929  0.0510  0.4302
 4209W        W20683  10.972   0.429  14.572 -0.2915  0.2236 -0.1080
 4210W        W20684  16.481  13.379  15.882  0.0004  0.2282  0.2599
 4211W        W20685  15.607   3.618   1.512  0.0711  0.2888 -0.0459
 4212W        W20686   5.635   5.830   5.148  0.0168  0.0225 -0.0607
 4213W        W20687   0.381   2.805   4.476 -0.1940 -0.0571 -0.2234
 4214W        W20688  11.425  17.953  15.484 -0.1066  0.3295 -0.1314
 4215W        W20689  12.703  17.434  15.861  0.1518  0.3803 -0.0852
 4216W        W20690  15.330   8.650   5.539  0.1075 -0.1256  0.1408
 4217W        W20691  13.436   8.769   4.772  0.0810 -0.0657 -0.1019
 4218W        W20692   0.909   1.851  15.459 -0.0702  0.0907  0.2442
 4219W        W20693   2.788  13.082  14.343  0.2816 -0.0287 -0.0457
 4220W        W20694   3.032  17.138   3.556 -0.0696  0.1468 -0.1921
 4221W        W20695   7.551  17.447   4.751 -0.0253 -0.1663 -0.1929
 4222W        W20696  15.109   9.763  12.224 -0.0465 -0.2859  0.3630
 4223W        W20697  10.095   4.483  13.944  0.2387 -0.0154  0.0889
 4224W        W20698   9.532  15.868   1.557  0.0198  0.4110 -0.1089
 4225W        W20699  15.262   1.180  15.180 -0.1169  0.3007 -0.0149
 4226W        W20700  18.470  11.801   0.865 -0.0747 -0.1815  0.0372
 4227W        W20701  14.166   5.291  11.760  0.0008  0.0721 -0.1364
 4228W        W20702  17.824   8.539   0.556  0.0871 -0.0701  0.2121
 4229W        W20703   8.651   1.299  12.406  0.0867 -0.1473  0.3610
 4230W        W20704  17.749   9.413   4.652  0.2467 -0.3923 -0.3204
 4231W        W20705   9.735  10.410   2.714  0.1052 -0.1917  0.0027
 4232W        W20706   5.625  15.182   5.117 -0.2220 -0.3240 -0.0302
 4233W        W20707  17.951  13.567   1.107 -0.0839 -0.2062 -0.1486
 4234W        W20708  16.693  17.583   1.426  0.0907 -0.3007  0.1093
 4235W        W20709   8.291   0.670   4.185 -0.1948 -0.4857  0.0275
 4236W        W20710  12.537   5.677   4.427 -0.0583  0.3885  0.3460
 4237W        W20711   2.814   4.179   4.431  0.3650  0.1231 -0.2663
 4238W        W20712   7.249   2.276  15.276  0.2873 -0.1192 -0.1319
 4239W        W20713  16.839  13.116   0.228  0.0253  0.0161  0.0196
 4240W        W20714  13.213   9.266  14.909  0.0066  0.2048 -0.2335
 4241W        W20715   9.607  18.218  15.762  0.0026  0.0799 -0.2526
 4242W        W20716  16.096  11.565  11.826  0.1346  0.2070 -0.3783
 4243W        W20717  14.779   5.663   0.581 -0.1510  0.1052  0.1914
 4244W        W20718   5.393  14.389   0.821 -0.1674  0.0038 -0.1334
 4245W        W20719  10.597   0.602   2.568 -0.0534  0.0544  0.0095
 4246W        W20720  17.663  14.596  13.093 -0.2365 -0.3979 -0.2642
 4247W        W20721   3.369   3.519   0.916 -0.1522  0.0721 -0.1303
 4248W        W20722  10.961   8.003   1.742  0.0132  0.0214 -0.1929
 4249W        W20723  11.398   4.794  14.350 -0.2342 -0.0669 -0.2272
 4250W        W20724   2.317  17.858   2.187  0.2941  0.0901 -0.1283
 4251W        W20725  17.607   6.354  14.785 -0.1605  0.1798  0.1265
 4252W        W20726   7.944   9.087  11.565  0.0064 -0.1179 -0.4226
 4253W        W20727  12.184  12.240   4.663  0.0699 -0.1178  0.0317
 4254W        W20728  17.364   3.017  14.676 -0.1577  0.0151 -0.1278
 4255W        W20729   2.601   4.952  11.923  0.0619 -0.1372  0.1147
 4256W        W20730  15.240   9.609   2.511 -0.1895  0.0953  0.0819
 4257W        W20731  15.830  11.786  13.472  0.3458 -0.0120  0.3611
 4258W        W20732  11.406  14.998  13.338  0.0381 -0.2413  0.2846
 4259W        W20733  11.459  13.500   1.457 -0.0293  0.0702 -0.0927
 4260W        W20734  13.975   8.435  14.083 -0.0243  0.0761 -0.1345
 4261W        W20735   0.236   7.877  15.383 -0.1696  0.1771 -0.1674
 4262W        W20736   6.168  15.422   4.582  0.0265  0.1985  0.1821
 4263W        W20737   2.657  11.759   2.806  0.0896 -0.0098 -0.1270
 4264W        W20738   8.904  11.299   5.777 -0.0421  0.0488 -0.2113
 4265W        W20739   6.345   3.074   0.125  0.1664 -0.1669 -0.0113
 4266W        W20740   4.102  18.094  14.313  0.0454  0.2589  0.1640
 4267W        W20741  17.882   6.014  13.360  0.2189  0.0887  0.0670
 4268W        W20742   5.702  18.149   4.627  0.2489  0.2590  0.0369
 4269W        W20743  18.136  14.758   0.118 -0.0322 -0.1160 -0.0746
 4270W        W20744   5.784   0.682   1.382 -0.0042  0.2001 -0.2619
 4271W        W20745   8.896  18.397  10.288 -0.0058 -0.3430  0.0552
 4272W        W20746   2.087   3.922   2.274  0.0534 -0.1183  0.0181
 4273W        W20747  14.832  15.511  11.989 -0.0922  0.0139 -0.1918
 4274W        W20748   9.259  12.946   1.424 -0.1409  0.0069  0.3748
 4275W        W20749   1.615  15.536  11.717 -0.1478  0.1690  0.2861
 4276W        W20750  18.365   4.953  15.383  0.2755  0.4066 -0.3034
 4277W        W20751   1.575   5.948   1.394 -0.2258 -0.0327 -0.0613
 4278W        W20752   4.609   1.395  13.219 -0.1552  0.1352  0.4823
 4279W        W20753  16.156   1.836  12.846 -0.2354  0.1560 -0.2798
 4280W        W20754   4.612   0.583   0.313 -0.0532 -0.0909 -0.2758
 4281W        W20755  17.846  14.513  12.159  0.3704  0.2788 -0.3764
 4282W        W20756  11.983   5.033   2.294  0.0981 -0.1715  0.2394
 4283W        W20757   5.632   0.169  11.291 -0.1008  0.1162  0.0617
 4284W        W20758   9.552  16.523  13.340 -0.1410 -0.0605 -0.2338
 4285W        W20759  17.177   2.151  14.612  0.2419  0.4047  0.2607
 4286W        W20760   6.724  11.550  14.277 -0.2789  0.0542 -0.1665
 4287W        W20761   5.545  13.545  12.435 -0.1038  0.0526 -0.1865
 4288W        W20762  14.360   5.501  14.935  0.1496 -0.2019 -0.2725
 4289W        W20763  13.859   1.379   0.243 -0.2781 -0.1119  0.1093
 4290W        W20764  15.292  12.547  13.390 -0.0342 -0.0502  0.1524
 4291W        W20765  16.389  18.140   4.718 -0.0087 -0.1730 -0.0634
 4292W        W20766   8.404  10.844  11.997 -0.4235  0.0434 -0.2357
 4293W        W20767   0.711   6.085  12.874  0.1041 -0.3412  0.1795
 4294W        W20768   0.983   3.159   2.922  0.0893 -0.0141  0.1073
 4295W        W20769   4.052   4.172   3.621 -0.1666 -0.1720 -0.0779
 4296W        W20770  12.390   1.356   0.264  0.1663  0.5394  0.0893
 4297W        W20771  18.180  17.677  13.126 -0.2948 -0.0607  0.0824
 4298W        W20772   7.564  15.917   1.832  0.0823 -0.0544  0.1902
 4299W        W20773   3.152  13.750   5.475 -0.2095  0.1949  0.0873
 4300W        W20774  18.205   9.767   0.850 -0.1211 -0.2602 -0.1268
 4301W        W20775  18.306   8.201  15.378 -0.0914  0.0443 -0.0246
 4302W        W20776  12.320   1.757  13.688 -0.1502 -0.1833 -0.2892
 4303W        W20777  17.552  14.019  14.425 -0.2365  0.1019  0.1292
 4304W        W20778   6.544   1.428   1.482  0.0014  0.0684  0.1694
 4305W        W20779   9.064   5.956   4.076  0.2589 -0.2675 -0.1148
 4306W        W20780   7.320  16.144   1.000 -0.0136 -0.1468  0.3332
 4307W        W20781   6.012  10.296  13.510  0.1682 -0.2030  0.3035
 4308W        W20782  15.127  16.651  14.037  0.2656 -0.2634  0.1253
 4309W        W20783  18.478   8.394   3.090  0.1442 -0.1772  0.3034
 4310W        W20784  10.470   9.973  13.476  0.2165  0.0678  0.2756
 4311W        W20785   7.578   9.141  14.072  0.0131  0.1993  0.0583
 4312W        W20786   8.005   8.527   2.032 -0.3274  0.0763  0.3206
 4313W        W20787  10.959  14.678   4.321 -0.0302 -0.0160  0.1566
 4314W        W20788   3.568   0.333  14.197  0.0423 -0.2134 -0.0680
 4315W        W20789  17.246   6.945  14.391  0.2084  0.1946 -0.1107
 4316W        W20790  17.711  17.539  15.164  0.1411  0.3500  0.1116
 4317W        W20791  13.081   9.079  11.783  0.1063  0.0485 -0.3286
 4318W        W20792   5.742   9.479  15.031  0.1248  0.0372  0.0816
 4319W        W20793  11.328   4.042   2.840  0.0124  0.0126 -0.0243
 4320W        W20794   6.536  10.635  14.179  0.0868 -0.0939 -0.1584
 4321W        W20795   4.179   3.572   3.148  0.1596 -0.0436 -0.0873
 4322W        W20796  17.215  11.189  11.936 -0.0687 -0.0299  0.0005
 4323W        W20797   6.198  14.472   2.933  0.1036 -0.0207  0.0535
 4324W        W20798   0.400   2.096   3.328 -0.1858 -0.1550 -0.2045
 4325W        W20799   2.783  18.467  12.881 -0.3044 -0.1027  0.2133
 4326W        W20800   6.590  14.244   1.707 -0.3747 -0.1598  0.2808
 4327W        W20801  12.534  15.896  13.782 -0.1423 -0.1175 -0.1566
 4328W        W20802  16.184   0.373   0.541  0.0240 -0.1702  0.1130
 4329W        W20803  10.052  14.891  15.648 -0.1155 -0.2106 -0.1182
 4330W        W20804  16.713   2.336  13.204  0.1664 -0.0598  0.0461
 4331W        W20805   5.053  14.696  12.791 -0.0128 -0.1084 -0.0283
 4332W        W20806   4.462  12.772  14.862  0.3593  0.2169  0.3796
 4333W        W20807   5.682  18.119  15.019  0.1822 -0.1596 -0.1813
 4334W        W20808  12.874  16.638   0.755  0.1142  0.2610 -0.3259
 4335W        W20809   4.565  17.418   3.462 -0.0026 -0.0425  0.1540
 4336W        W20810  14.960  16.979   3.254 -0.1418 -0.2947  0.2579
 4337W        W20811   1.835  13.832   4.020 -0.0321  0.2193  0.0667
 4338W        W20812   9.557  15.261  12.549  0.0564  0.2014  0.0814
 4339W        W20813   4.926  13.154   0.401 -0.1674  0.2745 -0.2282
 4340W        W20814   1.183   0.706  15.447  0.1678 -0.0049 -0.3053
 4341W        W20815   1.610   2.647  13.511  0.0697 -0.0361 -0.0218
 4342W        W20816   3.274  17.555  11.083 -0.4800  0.0440  0.1032
 4343W        W20817   9.602   7.793   1.624 -0.0439  0.1151 -0.0966
 4344W        W20818  11.916  10.115   5.528  0.2386  0.3890 -0.2530
 4345W        W20819   0.892  12.809   0.297  0.2643  0.0304  0.0432
 4346W        W20820   0.954  15.004  11.344  0.0937  0.0600 -0.1736
 4347W        W20821   7.408   1.198   2.286  0.1165 -0.2161  0.0854
 4348W        W20822   9.931  11.917   3.635 -0.0793 -0.1320 -0.1613
 4349W        W20823   1.722  14.943  13.333  0.1144  0.3767 -0.6039
 4350W        W20824  11.085  11.907  13.921 -0.5212 -0.3448  0.0453
 4351W        W20825   8.688  16.242   5.597 -0.1086 -0.0184  0.1238
 4352W        W20826  14.860   0.758   1.708  0.2618  0.0043 -0.0698
 4353W        W20827  13.570  11.767  11.453 -0.1602  0.0235  0.1625
 4354W        W20828  13.536   3.851  15.321  0.2195  0.1886 -0.1781
 4355W        W20829  13.757  16.075   0.754 -0.0503 -0.1153 -0.3229
 4356W        W20830   1.689  14.178   3.696  0.2123  0.1310 -0.1254
 4357W        W20831   7.100   8.819  15.331  0.0163  0.1008 -0.2739
 4358W        W20832   6.571   4.283  12.849  0.0376 -0.1057  0.4283
 4359W        W20833   3.146  10.955   3.167  0.4446  0.1497 -0.1168
 4360W        W20834   8.904  11.113   1.843 -0.2851  0.1552 -0.0002
 4361W        W20835  11.396   4.184   1.820 -0.2275 -0.1989 -0.2561
 4362W        W20836  14.681  14.124   0.049  0.1655 -0.0752 -0.0362
 4363W        W20837   3.809  18.424  13.230 -0.2183  0.2712  0.0864
 4364W        W20838   2.134  11.264  14.373 -0.0625 -0.1356  0.0700
 4365W        W20839  10.212  16.548  12.146 -0.0920 -0.2862  0.0737
 4366W        W20840   1.218  10.542  11.958 -0.0122 -0.0309 -0.0202
 4367W        W20841   8.214   6.694   2.410 -0.0426  0.1513  0.2245
 4368W        W20842  14.513  11.748  13.090  0.0989 -0.1842 -0.0185
 4369W        W20843  11.599  15.790  13.504  0.2167 -0.2659 -0.1852
 4370W        W20844   1.400   9.700  15.032  0.1310  0.2997  0.0296
 4371W        W20845  15.916  11.576  15.894 -0.0624  0.0884 -0.0507
 4372W        W20846  10.782   6.571   0.621 -0.3639 -0.0807 -0.2056
 4373W        W20847   6.740   9.974   1.829  0.0983 -0.2918  0.1797
 4374W        W20848  10.359   3.784   3.913 -0.1302  0.0157 -0.0590
 4375W        W20849   2.775   8.190   0.902 -0.0029  0.1223 -0.0846
 4376W        W20850  14.279   5.081  11.228  0.1548  0.0461  0.1156
 4377W        W20851   9.508  12.119  15.847 -0.1409  0.0943 -0.2582
 4378W        W20852  12.188  10.319  13.927 -0.0797  0.1051 -0.0866
 4379W        W20853   4.566  17.535  12.229  0.0971 -0.3669 -0.4078
 4380W        W20854   5.177   5.534   3.630  0.1504  0.0808  0.0077
 4381W        W20855  15.280   8.126  15.064  0.1870 -0.1236  0.1411
 4382W        W20856  12.526   1.951   0.553 -0.0872 -0.2116  0.1972
 4383W        W20857  16.229   8.004   2.015 -0.1652 -0.0030  0.0142
 4384W        W20858  18.209   1.807  11.675 -0.0012  0.0766 -0.2944
 4385W        W20859  10.716   7.488   1.630 -0.2438  0.0018  0.0280
 4386W        W20860   9.687  13.943   1.948 -0.1805  0.0428  0.2921
 4387W        W20861  18.075   6.497  15.626  0.1116  0.1165 -0.1150
 4388W        W20862  10.620  10.820   1.928  0.0545 -0.0491  0.3390
 4389W        W20863  13.609  14.400  15.931  0.0190 -0.1150 -0.3650
 4390W        W20864   2.662  14.353  14.227  0.0733  0.2648  0.2335
 4391W        W20865   5.323  13.947  14.532 -0.2910  0.1115  0.0109
 4392W        W20866  12.804   0.994  11.640 -0.3192  0.4036  0.0110
 4393W        W20867  17.943   5.415   4.708  0.4327 -0.1006 -0.1136
 4394W        W20868   9.039   8.105   0.105 -0.0845  0.1549 -0.0723
 4395W        W20869  14.416   1.193   2.388 -0.0733  0.0465 -0.0257
 4396W        W20870  16.736  13.335   5.012  0.0819  0.1592 -0.0635
 4397W        W20871   8.880  16.412  12.625  0.2329  0.2301  0.0787
 4398W        W20872  16.402   5.646   3.784 -0.1433  0.2341  0.0857
 4399W        W20873   1.235   1.059   1.414 -0.2601  0.0561 -0.0105
 4400W        W20874   7.528   2.080   3.884  0.2540 -0.0184  0.1801
 4401W        W20875   7.777   8.076  14.085 -0.1546 -0.2600  0.1575
 4402W        W20876  17.426  17.218   0.547  0.0657  0.0216  0.0638
 4403W        W20877   7.741  18.399   2.722 -0.1655  0.4000  0.1554
 4404W        W20878   6.521  15.268   5.066  0.0616  0.0244  0.1479
 4405W        W20879   5.054  11.223  15.184 -0.3348 -0.1018 -0.0444
 4406W        W20880   9.420  12.482   4.257  0.1985 -0.0719  0.0801
 4407W        W20881   1.550   9.243   2.657 -0.1327  0.2928 -0.0503
 4408W        W20882   3.556  13.466   4.587 -0.1161 -0.0545  0.0767
 4409W        W20883  10.483   5.882  10.986 -0.0063  0.0039  0.1358
 4410W        W20884   8.957  12.307   3.767 -0.0580 -0.0041 -0.5098
 4411W        W20885   7.282   9.536  11.618  0.0627 -0.2492 -0.1250
 4412W        W20886   6.142  11.917   2.793 -0.0273  0.1058  0.1403
 4413W        W20887  11.580  13.506   4.600  0.0034  0.3124  0.0498
 4414W        W20888   0.656   4.662  11.585 -0.1330 -0.0823 -0.2050
 4415W        W20889  12.986   3.863  12.425  0.0039  0.1651  0.0166
 4416W        W20890  13.314   7.518   2.911  0.0066 -0.1473  0.3460
 4417W        W20891  12.398   7.069  11.806  0.3065  0.1557  0.2509
 4418W        W20892   8.218   4.215   1.026  0.0752 -0.3033 -0.0750
 4419W        W20893  13.527  18.032   0.325 -0.0343 -0.2255 -0.1308
 4420W        W20894   1.323   9.521   2.321  0.1674  0.4098 -0.3024
 4421W        W20895  10.924   4.097  12.050 -0.2446 -0.2906 -0.4011
 4422W        W20896   0.728  17.809   5.547  0.0770  0.2087  0.0130
 4423W        W20897   5.808   9.693   0.504 -0.0128 -0.0276  0.0984
 4424W        W20898   0.945   5.311  11.115 -0.0567 -0.1954  0.1324
 4425W        W20899   8.914   1.230   0.204  0.1342 -0.2487  0.2993
 4426W        W20900   7.502   6.729   2.073  0.2187  0.4267  0.0340
 4427W        W20901   1.419  14.352   2.450 -0.0304  0.0421 -0.1810
 4428W        W20902  14.935   2.028  11.295  0.2936 -0.3619  0.1657
 4429W        W20903  10.138   5.827   5.168  0.3028  0.2310  0.0491
 4430W        W20904  16.926   2.738  15.806  0.4971 -0.1550  0.1318
 4431W        W20905   9.618  17.399  13.162  0.1393  0.0229 -0.0544
 4432W        W20906   6.474  16.709  12.460  0.1196  0.0238  0.2777
 4433W        W20907  15.311  16.180  11.288  0.1021 -0.0756  0.2554
 4434W        W20908  11.523   1.230  14.749  0.1162 -0.2097 -0.0425
 4435W        W20909  17.313  17.582   5.448 -0.1648 -0.1552 -0.3080
 4436W        W20910  13.934   3.334  12.124  0.0421  0.1769 -0.1087
 4437W        W20911   1.406   1.915  13.097  0.1285  0.0489 -0.1547
 4438W        W20912  14.583  15.385   2.601  0.0596  0.1381  0.2218
 4439W        W20913   9.742   2.914  10.156  0.2786 -0.1575 -0.2809
 4440W        W20914  16.652   3.286  13.417 -0.2828 -0.1537 -0.1030
 4441W        W20915  14.149  12.590  11.226  0.2081 -0.0071 -0.0134
 4442W        W20916  13.347  16.542   4.731  0.0555 -0.2033  0.0711
 4443W        W20917   4.178  15.456  13.323 -0.1400 -0.1000 -0.1660
 4444W        W20918  11.790  15.931  12.117  0.1517 -0.0249 -0.2394
 4445W        W20919  12.782  15.224  13.097  0.2888 -0.1543 -0.0666
 4446W        W20920   8.569  18.351  15.036 -0.0051  0.2332 -0.0184
 4447W        W20921   9.332  12.571   1.854  0.4593 -0.4441  0.1425
 4448W        W20922  10.754  15.859   0.275  0.0142  0.0977 -0.0633
 4449W        W20923   1.502   7.676   2.077  0.1341 -0.0268 -0.1486
 4450W        W20924   1.630  15.762   0.607 -0.0282 -0.2245  0.2936
 4451W        W20925  10.331  12.182   5.019  0.0581 -0.4315 -0.0921
 4452W        W20926   0.662  17.508  13.955  0.1160 -0.4550 -0.0354
 4453W        W20927  15.874   1.424  13.097  0.2594 -0.0578  0.0333
 4454W        W20928   8.795   0.789   0.459  0.1780 -0.0925 -0.0602
 4455W        W20929   6.302   7.546  11.810  0.2486  0.4563  0.1252
 4456W        W20930  12.199   4.930  11.509  0.3663 -0.1182 -0.0031
 4457W        W20931   7.104  11.368   1.673  0.0034  0.0479  0.0376
 4458W        W20932  15.238   6.820   1.316  0.1099  0.2445 -0.2331
 4459W        W20933   6.120   0.589  14.594 -0.2874 -0.0758  0.0185
 4460W        W20934  15.259  15.463   1.426 -0.1751 -0.3053  0.2150
 4461W        W20935   3.466   5.728  12.774 -0.1398  0.3496  0.0248
 4462W        W20936   9.346   2.458  12.924  0.0020  0.1431 -0.0896
 4463W        W20937   9.195  11.774  11.447 -0.1256  0.3415 -0.0978
 4464W        W20938   2.563   7.939  11.633  0.0051 -0.2630 -0.1241
 4465W        W20939  12.162  16.482   3.168 -0.1814 -0.4351  0.2278
 4466W        W20940   4.070  17.460   1.187  0.1033  0.0300  0.0467
 4467W        W20941   2.043   0.034  12.512 -0.0735  0.1081 -0.1147
 4468W        W20942   4.138   3.381  11.649 -0.1271  0.2510  0.0291
 4469W        W20943   1.168   6.794   3.732 -0.0364  0.0955  0.2621
 4470W        W20944  12.723   1.670  11.444  0.0719  0.1605  0.0608
 4471W        W20945   9.782  16.599  13.859 -0.2599 -0.1691  0.1660
 4472W        W20946   0.897   1.384  12.720  0.1829 -0.0079 -0.1918
 4473W        W20947  18.419   9.959  13.685  0.0214  0.0306  0.0658
 4474W        W20948  15.353   1.855  14.860 -0.2745 -0.1011 -0.1224
 4475W        W20949   3.240   3.501   3.060  0.2212  0.2322  0.0349
 4476W        W20950  12.473   4.669   3.862  0.1456 -0.0092  0.1569
 4477W        W20951  11.016   5.997   3.317  0.2113  0.0734  0.0093
 4478W        W20952  13.932  15.366   4.198  0.0211  0.0374 -0.2175
 4479W        W20953  13.749   4.361  13.861 -0.0382  0.0436  0.1683
 4480W        W20954  14.568   7.150   5.977  0.1406 -0.1498  0.2086
 4481W        W20955   2.397   7.113   2.128 -0.1543  0.2574  0.1977
 4482W        W20956  13.073  17.691  12.436  0.0727  0.0930  0.0886
 4483W        W20957   1.114  15.325   1.262  0.0094  0.0562 -0.0456
 4484W        W20958   4.575   2.999  12.280 -0.0670 -0.2489 -0.0103
 4485W        W20959  13.724   8.139   2.363 -0.0480 -0.0888  0.1786
 4486W        W20960  14.513  17.023  12.676 -0.2156  0.1826  0.1087
 4487W        W20961  10.826  17.959   4.213  0.0633 -0.1252  0.1296
 4488W        W20962  17.153   6.259  14.943 -0.0655 -0.0202  0.0829
 4489W        W20963  16.822   5.774   5.584  0.1211  0.0847 -0.2152
 4490W        W20964  11.083   6.680  14.396  0.1199  0.0529  0.2057
 4491W        W20965  12.820  17.509   0.988 -0.4867 -0.1406 -0.0461
 4492W        W20966   8.605   8.646   3.817 -0.0214 -0.1848 -0.1316
 4493W        W20967   0.386  17.737   0.643  0.2945 -0.0996  0.1828
 4494W        W20968  16.737  12.084  14.165  0.0172  0.2565  0.0785
 4495W        W20969   9.387  12.590  11.152  0.0192  0.0088  0.0893
 4496W        W20970  10.808  15.078   0.747 -0.1439  0.3075 -0.0151
 4497W        W20971   1.701   2.776   1.448 -0.0356 -0.0811  0.1713
 4498W        W20972  12.077   9.678   5.604  0.3359 -0.1501 -0.3102
 4499W        W20973   3.756  10.848   4.650  0.1615  0.1136 -0.2703
 4500W        W20974   2.458   3.887   5.513 -0.1475 -0.3620  0.1453
 4501W        W20975   4.510   7.980   1.828  0.2091 -0.0432  0.1780
 4502W        W20976   5.189  11.827  13.243 -0.0806  0.1886 -0.3446
 4503W        W20977   9.222   8.032   5.007  0.1609  0.2007 -0.0036
 4504W        W20978  12.723   5.069   2.657 -0.1494  0.1746 -0.1707
 4505W        W20979  18.047   0.050  14.746  0.0378 -0.0386  0.2118
 4506W        W20980   4.625   5.013   2.043 -0.2007 -0.1900 -0.0197
 4507W        W20981  10.176   2.149  14.832  0.1680  0.2124  0.1230
 4508W        W20982  15.324  14.084   1.005 -0.0483 -0.1611  0.0807
 4509W        W20983   5.268  10.792  14.453  0.0682  0.0525  0.1193
 4510W        W20984  17.873   4.382  12.700  0.1140  0.1874 -0.2896
 4511W        W20985  12.542  14.816   2.278  0.0181  0.0844 -0.1769
 4512W        W20986  13.314   2.064   1.342 -0.1826  0.2082 -0.2536
 4513W        W20987   5.041   3.763   4.383  0.0421  0.0312 -0.2409
 4514W        W20988  18.371   5.023  12.199  0.3558  0.2326 -0.1951
 4515W        W20989   8.956   2.668  13.104 -0.0495 -0.3202  0.1933
 4516W        W20990   8.037  10.438   3.537 -0.1257 -0.1257  0.1599
 4517W        W20991  13.870   5.647   1.629 -0.1118  0.1245 -0.0550
 4518W        W20992   4.756   3.807  13.723  0.0250  0.0048 -0.4926
 4519W        W20993   7.620  15.742  15.769 -0.0051 -0.0052  0.1698
 4520W        W20994  11.951  15.226   5.393  0.0666 -0.1753 -0.1574
 4521W        W20995   0.319   4.541   4.539 -0.2889  0.0042 -0.2688
 4522W        W20996   2.376   7.820   1.085  0.0058  0.0363 -0.3634
 4523W        W20997   6.469  18.175   3.445 -0.3215 -0.0079 -0.0982
 4524W        W20998  12.395   0.786   3.668 -0.0729  0.0792  0.0074
 4525W        W20999  17.208  12.300  11.482  0.1360  0.0430  0.1053
 4526W        W21000   2.131  18.259  15.698  0.0411 -0.1636  0.0416
 4527W        W21001   7.487  11.919  13.720 -0.0377  0.0722 -0.1772
 4528W        W21002  17.457   0.565  12.356  0.0659  0.1090  0.0499
 4529W        W21003   5.140  16.331  12.441  0.0999  0.3053 -0.0103
 4530W        W21004  10.543   6.312  15.674 -0.1358  0.0419  0.1483
 4531W        W21005   0.493  16.722   5.292  0.1231  0.5585 -0.2217
 4532W        W21006  14.927   3.028  15.395 -0.0397  0.0850  0.4869
 4533W        W21007  18.033  10.998  13.149 -0.0680  0.1944 -0.2137
 4534W        W21008  14.927  14.524  13.727  0.1586 -0.1626 -0.0892
 4535W        W21009  17.899   9.340   0.037 -0.1000  0.0033 -0.1494
 4536W        W21010   9.228  13.279   5.369 -0.0160  0.0423  0.0730
 4537W        W21011  15.093   7.535   1.440 -0.0765 -0.2615  0.1010
 4538W        W21012   9.160  13.243   4.835  0.1436 -0.4452 -0.0764
 4539W        W21013   8.411   7.206  15.884  0.1456  0.0318  0.0729
 4540W        W21014   2.651   0.928   4.338 -0.2592  0.0848 -0.0756
 4541W        W21015  12.442   7.961  12.760 -0.0491  0.2184  0.0526
 4542W        W21016  13.171   6.400   2.085  0.1328  0.0157 -0.3401
 4543W        W21017  15.265   8.362  10.971 -0.1605  0.2332 -0.1689
 4544W        W21018  16.749  11.697   3.072  0.4099  0.0879 -0.0443
 4545W        W21019   4.431   0.146  12.193  0.1257 -0.2562 -0.2414
 4546W        W21020   8.316   0.358  11.021 -0.3169  0.2765 -0.3550
 4547W        W21021   7.692  13.294   3.998 -0.2529  0.1726 -0.3501
 4548W        W21022   7.806  14.216   3.791  0.0890 -0.3211 -0.3263
 4549W        W21023  15.324   3.821  13.399  0.0506 -0.3310 -0.0904
 4550W        W21024   1.477  15.356  13.607 -0.0914  0.1393 -0.1140
 4551W        W21025   7.837  15.879   0.935 -0.2860 -0.0575  0.4458
 4552W        W21026   5.621   4.337   4.408  0.1738  0.2486  0.0161
 4553W        W21027  10.012   3.393  11.584  0.2563  0.0192  0.1620
 4554W        W21028  16.621   7.588   9.758 -0.1370  0.0131  0.1059
 4555W        W21029  15.778   1.037   4.232 -0.0908 -0.1441 -0.1173
 4556W        W21030  13.858   9.813   5.096  0.0969  0.0466  0.0081
 4557W        W21031   5.540  10.685   4.503 -0.4431 -0.0114 -0.3934
 4558W        W21032  12.791   5.204  12.333  0.1248  0.0920 -0.1484
 4559W        W21033  11.854   8.886   4.256  0.0579  0.0965  0.1802
 4560W        W21034   1.212  15.498   0.741 -0.0019  0.1136  0.0982
 4561W        W21035   6.650   6.005  13.502  0.1361 -0.1160  0.0105
 4562W        W21036  11.628  10.789  11.768 -0.0898  0.2242  0.0107
 4563W        W21037   3.103  13.215   0.052 -0.0485  0.1855  0.1480
 4564W        W21038  13.289   9.410  12.121  0.1303 -0.0532 -0.0395
 4565W        W21039   9.031   4.249   0.539 -0.1152 -0.1786 -0.1094
 4566W        W21040  12.410   9.684   4.750 -0.2115 -0.1619 -0.1911
 4567W        W21041   8.944  17.704  15.832  0.1495  0.4168  0.0813
 4568W        W21042  12.734   0.800  14.605 -0.2349  0.1307 -0.1007
 4569W        W21043   3.678   8.611   1.719 -0.0371  0.1091  0.0795
 4570W        W21044  14.415  15.368   5.186  0.0155  0.2210 -0.2332
 4571W        W21045  12.426  11.726   5.618  0.3142  0.0949 -0.3264
 4572W        W21046   6.097   2.440   1.748  0.0334 -0.1933  0.1670
 4573W        W21047  12.019  17.728   2.393 -0.0666 -0.0723 -0.1801
 4574W        W21048   6.527  14.553   3.670  0.5257  0.0243  0.1629
 4575W        W21049  18.407  16.755  13.411  0.3534 -0.0938 -0.1407
 4576W        W21050  16.085   7.743  14.589 -0.0548  0.1769 -0.1602
 4577W        W21051  13.870   3.289  14.055 -0.0652 -0.1836 -0.1821
 4578W        W21052  18.135   0.377  14.395  0.0641 -0.0683  0.5338
 4579W        W21053  18.006   1.223   2.092 -0.2422 -0.0462 -0.2763
 4580W        W21054  17.535  12.361  14.502  0.0337 -0.0924 -0.0154
 4581W        W21055   0.883  10.352  11.490  0.2189 -0.0127 -0.1275
 4582W        W21056  14.122  17.053   2.105  0.2465 -0.2050  0.1157
 4583W        W21057  14.566  11.628  11.826  0.1314  0.1294  0.1248
 4584W        W21058  10.155   9.495  11.315 -0.1700 -0.3470 -0.0563
 4585W        W21059  15.014  10.554   4.155 -0.0267 -0.0079 -0.0767
 4586W        W21060  11.547  18.351   4.652  0.1384 -0.0728 -0.0571
 4587W        W21061  13.743  15.464  10.504  0.3171  0.0100  0.4118
 4588W        W21062   0.120  11.436   1.716 -0.0427  0.0517  0.2599
 4589W        W21063   0.156   4.658   3.607  0.1315  0.0840  0.0249
 4590W        W21064   9.854  18.363   3.737 -0.1606  0.1182  0.2635
 4591W        W21065   5.484  10.339   2.362 -0.0168  0.0911 -0.1243
 4592W        W21066   7.785  11.550  11.304 -0.1182  0.2234  0.4277
 4593W        W21067  16.351   6.026   1.134  0.0030  0.1921  0.2294
 4594W        W21068  17.039  14.911  12.590 -0.2988  0.1491 -0.2858
 4595W        W21069  14.019   1.368  15.411  0.0952 -0.0454  0.1018
 4596W        W21070   8.523  11.620  14.654 -0.0917 -0.2187 -0.1603
 4597W        W21071  14.957  16.774  12.416  0.1857  0.1188 -0.0389
 4598W        W21072  15.312   3.533   1.913  0.3934  0.0771 -0.1636
 4599W        W21073   2.876   7.205   1.848  0.1350 -0.0301 -0.3470
 4600W        W21074  18.042   6.956  15.448  0.0962  0.4085  0.0927
 4601W        W21075   0.199  14.421   5.343  0.0795 -0.2306  0.1558
 4602W        W21076   8.887   2.119   9.538  0.4829 -0.2998 -0.0889
 4603W        W21077   3.030  14.011   4.942 -0.0076 -0.1157  0.0470
 4604W        W21078   9.403  10.057   1.819  0.2265  0.0570 -0.2570
 4605W        W21079  15.756   6.929   4.753 -0.1595  0.2534 -0.2687
 4606W        W21080   2.561  17.893  15.478 -0.5442 -0.1293 -0.1399
 4607W        W21081  16.007   7.388  13.054 -0.0548 -0.1068  0.1117
 4608W        W21082  10.037   3.873  15.460 -0.2317 -0.0068  0.0464
 4609W        W21083   7.468  10.681   3.277 -0.0796 -0.0271 -0.1311
 4610W        W21084  14.102  12.774   2.683  0.0753  0.1058 -0.2924
 4611W        W21085  12.972  16.348   3.297 -0.2371  0.1319  0.3714
 4612W        W21086   1.078   9.348  13.327 -0.0450  0.0443 -0.1218
 4613W        W21087  13.890  14.587   3.971 -0.0188 -0.0327  0.0974
 4614W        W21088  12.985   9.532   0.565 -0.0939  0.1015 -0.2256
 4615W        W21089  16.032  15.864   5.828 -0.0026  0.0135  0.0270
 4616W        W21090  15.535  17.531   1.839 -0.2803 -0.0354  0.1940
 4617W        W21091  17.921  12.160  14.038 -0.3989  0.0525  0.0488
 4618W        W21092  10.602  11.082  13.199 -0.0609  0.0826 -0.1229
 4619W        W21093  11.542   8.346  12.459 -0.0926 -0.0491 -0.0920
 4620W        W21094  11.210   4.865   1.021 -0.0123 -0.2307 -0.3942
 4621W        W21095  15.949  18.069  15.935 -0.2428 -0.1544  0.1632
 4622W        W21096  16.609  11.482  14.614  0.3384 -0.0330  0.1156
 4623W        W21097   5.553   8.026   2.329 -0.0030 -0.1270 -0.0803
 4624W        W21098  10.617  11.239   2.878 -0.2304  0.0409 -0.1619
 4625W        W21099  11.108   0.717  14.173 -0.1619  0.1452 -0.0050
 4626W        W21100  12.593  18.192   0.127  0.0049 -0.0984 -0.2813
 4627W        W21101   9.015   8.252  15.055 -0.4436 -0.0760 -0.0358
 4628W        W21102   0.553   0.275  12.460 -0.0058 -0.2029 -0.2619
 4629W        W21103  10.036   1.373  11.771 -0.0794 -0.1914 -0.1770
 4630W        W21104  12.455  18.407   3.535 -0.1658 -0.2735 -0.1401
 4631W        W21105  17.755  18.261   3.472 -0.1859  0.0205  0.0792
 4632W        W21106   1.035  13.431  12.895  0.1086  0.2523 -0.0621
 4633W        W21107   4.442   9.313  12.819 -0.0055  0.0414 -0.1022
 4634W        W21108  14.821   3.002   0.394  0.0259  0.1032  0.1564
 4635W        W21109  15.384   7.349  13.870 -0.1641  0.1384 -0.1782
 4636W        W21110   5.944  13.610   4.833  0.0214  0.3432 -0.5967
 4637W        W21111   5.789   8.524  11.386  0.0042 -0.1843  0.1596
 4638W        W21112  14.136   9.571  15.153  0.1936 -0.0646 -0.1785
 4639W        W21113  18.008   1.626  13.075 -0.1008 -0.0029  0.1030
 4640W        W21114   0.981   3.920   5.454  0.0011  0.0836  0.3223
 4641W        W21115  16.154  11.416  11.399  0.6361  0.1770  0.0091
 4642W        W21116  13.817  10.088  14.578  0.1161  0.1984  0.1732
 4643W        W21117   8.069   6.504  11.699  0.2434  0.2018  0.0734
 4644W        W21118  14.521   7.600  15.590  0.0984 -0.1676 -0.0657
 4645W        W21119   9.776  10.765   1.384  0.2644  0.0017  0.4452
 4646W        W21120   7.540   7.752  12.473 -0.1145  0.1653  0.2524
 4647W        W21121  13.390   0.531  11.232 -0.0233  0.1164 -0.4124
 4648W        W21122   1.077  16.615  14.974  0.6251  0.2235  0.0326
 4649W        W21123  13.054   5.135   1.242  0.1899  0.2087 -0.1236
 4650W        W21124  10.808   8.609  11.532 -0.1239 -0.1106  0.2520
 4651W        W21125   1.605  12.155  15.437  0.0310 -0.2307 -0.0224
 4652W        W21126  16.249   4.844   0.215  0.2063  0.2839  0.1075
 4653W        W21127  17.251   0.419   3.561 -0.0556  0.0729 -0.1333
 4654W        W21128   3.115   0.478   2.079 -0.2094 -0.0270 -0.0297
 4655W        W21129   0.518  10.675  15.347  0.3303  0.1672  0.0581
 4656W        W21130  12.783   4.694  14.309  0.1102 -0.0008 -0.3157
 4657W        W21131  17.591  16.314  15.290 -0.0734  0.3590 -0.2305
 4658W        W21132  17.451  10.777  11.155  0.0698 -0.0433  0.0451
 4659W        W21133   5.163   2.941   6.018  0.1339 -0.3116  0.0423
 4660W        W21134  16.587   4.743  11.213  0.0910  0.4286  0.1362
 4661W        W21135   8.462  15.696  11.454 -0.0642 -0.1578  0.0489
 4662W        W21136  15.280   0.888  12.680  0.2189 -0.1414 -0.1318
 4663W        W21137   2.673  13.799  11.766 -0.1137  0.3644 -0.1146
 4664W        W21138  18.362   7.069  14.118  0.0902 -0.0581  0.1531
 4665W        W21139  16.293   6.370  15.761 -0.1742  0.0106 -0.1405
 4666W        W21140   8.126  15.711  13.554  0.1876 -0.2301  0.5049
 4667W        W21141  15.794   3.169   0.122 -0.0877  0.1665  0.2733
 4668W        W21142  16.086  14.741   0.681 -0.3062  0.1596  0.2372
 4669W        W21143  14.079  10.762   3.458  0.2599 -0.1333  0.0616
 4670W        W21144   1.946  18.236  11.816  0.0289 -0.0264 -0.3138
 4671W        W21145  15.993  12.814   2.844  0.6525 -0.1809  0.0234
 4672W        W21146   9.801   1.735  13.484  0.3841  0.1305 -0.0743
 4673W        W21147  10.921  12.299  12.954  0.2197 -0.0868  0.3003
 4674W        W21148  10.982   4.385   1.009 -0.0026 -0.0931  0.0642
 4675W        W21149   3.369   3.540   3.686 -0.0852 -0.0145 -0.2594
 4676W        W21150  18.171  16.114   1.956  0.0589  0.0414  0.1722
 4677W        W21151   6.081  18.328  13.984 -0.0052 -0.0806  0.4874
 4678W        W21152   6.859  10.368   0.814 -0.0806  0.1487 -0.1979
 4679W        W21153  10.950  10.027  15.508 -0.4055  0.0106  0.1622
 4680W        W21154   1.358  11.776   1.618  0.0230  0.1643 -0.1764
 4681W        W21155   2.170   6.680   3.852 -0.0413  0.0737  0.2547
 4682W        W21156  15.552   0.119  15.074  0.1114  0.1717 -0.3034
 4683W        W21157  17.622   6.575   5.413 -0.0620  0.2017 -0.0792
 4684W        W21158   0.736  13.102   2.829 -0.2645  0.0957 -0.1437
 4685W        W21159  14.021  16.175   1.135 -0.1091 -0.2686 -0.2318
 4686W        W21160   0.257  14.515   2.258 -0.0840  0.1035  0.0823
 4687W        W21161  15.360   4.551   1.253 -0.2055  0.1238 -0.0619
 4688W        W21162  15.478   7.246   4.461 -0.2524 -0.0413  0.0868
 4689W        W21163  18.431   3.107   4.509  0.0506  0.0444 -0.0207
 4690W        W21164   2.293   9.779   2.541 -0.1960  0.0543  0.2723
 4691W        W21165   8.334  17.000   1.202  0.6999  0.1288  0.1473
 4692W        W21166   7.692   1.329   4.176 -0.0782 -0.0542 -0.1913
 4693W        W21167  18.252  16.037   4.947  0.1760  0.0445  0.2239
 4694W        W21168  14.265  12.602   3.112  0.1659 -0.2338 -0.0431
 4695W        W21169   1.041   4.476   1.220  0.1058  0.0566 -0.0514
 4696W        W21170  11.054  13.148   4.441  0.2080 -0.0884  0.0918
 4697W        W21171  12.380   8.398   5.163 -0.1320 -0.0259  0.2717
 4698W        W21172   1.750   3.429  13.673  0.2213 -0.3300  0.1130
 4699W        W21173  13.120   9.198   2.859  0.2133 -0.1805  0.1586
 4700W        W21174  11.668  12.258   5.390  0.0890 -0.1065  0.1792
 4701W        W21175   6.085   5.912  11.720  0.1841 -0.2020  0.0662
 4702W        W21176   4.063  12.201  14.826  0.2539 -0.0833  0.1216
 4703W        W21177  15.220  10.326   6.240  0.0509  0.1861 -0.1049
 4704W        W21178   5.328   7.595  12.755  0.2812  0.1480  0.0145
 4705W        W21179   6.839  15.336  14.895  0.2110 -0.0215 -0.0933
 4706W        W21180   8.318   1.859   5.111 -0.0692  0.0986 -0.2654
 4707W        W21181  13.618  13.016  12.472  0.1205  0.0052 -0.0899
 4708W        W21182  18.213   9.488  12.571 -0.2364 -0.2567  0.2987
 4709W        W21183   4.245  12.148  14.306 -0.1579  0.0840 -0.0580
 4710W        W21184   0.831  17.950   3.803 -0.0681 -0.0827 -0.1564
 4711W        W21185   7.257   3.695  14.288  0.2591 -0.0509 -0.2610
 4712W        W21186  10.390  13.320  14.443  0.1126 -0.1536 -0.1142
 4713W        W21187   9.726   8.150   3.849 -0.2372 -0.0336  0.1207
 4714W        W21188   2.991   1.141  13.939  0.2711 -0.3250 -0.2703
 4715W        W21189  17.482   3.119  12.076  0.0342  0.1517 -0.0197
 4716W        W21190   2.986  15.879   4.591  0.1760  0.2362  0.2638
 4717W        W21191   7.738   0.358  12.173  0.3012 -0.0138  0.0127
 4718W        W21192  13.651  13.433   4.467  0.0992 -0.0549  0.0367
 4719W        W21193   7.437   0.018   5.129  0.3808  0.2705 -0.1981
 4720W        W21194   7.795   3.969  12.965  0.0556 -0.2289 -0.0347
 4721W        W21195  11.447   3.825  13.237 -0.1705 -0.3443  0.0570
 4722W        W21196   5.566   7.850   0.606 -0.1831 -0.1488  0.0388
 4723W        W21197  16.846   7.999   3.600  0.0238  0.1085  0.3291
 4724W        W21198   9.752   9.951  11.179  0.0910 -0.1521  0.2771
 4725W        W21199  12.665  17.479  12.403 -0.2604  0.2257  0.0556
 4726W        W21200   2.045   5.502   2.510 -0.0509  0.0786 -0.2580
 4727W        W21201  12.244   0.007  14.185 -0.0515 -0.1416 -0.1473
 4728W        W21202  12.042  14.458   3.681  0.1694 -0.0391 -0.4151
 4729W        W21203  15.327   7.859   1.783  0.0562 -0.0885  0.3564
 4730W        W21204  18.206   3.309   1.086 -0.0980  0.0861  0.0406
 4731W        W21205   8.846   1.932   3.909  0.3316  0.0777 -0.1479
 4732W        W21206  11.676   0.005   0.932  0.2115 -0.1450 -0.0227
 4733W        W21207   2.126   3.541   2.895  0.0083  0.0932  0.1223
 4734W        W21208   0.746   7.490   2.304 -0.2162  0.1780  0.0205
 4735W        W21209   3.897  13.421   0.775 -0.0099 -0.0435  0.1423
 4736W        W21210  16.026  10.065  11.836  0.1927 -0.0285 -0.0828
 4737W        W21211  15.127   7.252   2.512 -0.1841 -0.2511  0.2175
 4738W        W21212   1.459   4.760   4.400  0.1205 -0.1470 -0.0392
 4739W        W21213  13.459   3.967  13.178 -0.1667 -0.2124 -0.1471
 4740W        W21214  15.331  12.324  12.291  0.2095 -0.3371  0.1517
 4741W        W21215  10.765   0.042   2.623  0.2866  0.0967 -0.0783
 4742W        W21216   0.342   4.356  11.805  0.0141  0.0337 -0.1595
 4743W        W21217   6.632   3.676   3.085 -0.0872  0.2259  0.1117
 4744W        W21218  11.374  12.587   0.499  0.1013  0.0407  0.2512
 4745W        W21219  13.700   2.220   4.885 -0.2732 -0.1195  0.0476
 4746W        W21220   2.015  18.024   0.728  0.2123 -0.1392  0.0402
 4747W        W21221  16.361  12.861  11.160 -0.2763  0.0869  0.1433
 4748W        W21222   7.887  12.995   3.147 -0.0289 -0.0714  0.1245
 4749W        W21223   4.197  11.122  15.587  0.2862 -0.0764 -0.0399
 4750W        W21224  13.384  17.244   5.413 -0.1111 -0.0672  0.1645
 4751W        W21225   3.477  18.227   0.448  0.4144  0.0537  0.0142
 4752W        W21226   0.561  17.938  12.553  0.1275  0.1164 -0.1336
 4753W        W21227  12.949   3.273   5.816  0.1570 -0.2222  0.0137
 4754W        W21228  11.468  18.255  14.668 -0.0952 -0.1906 -0.0218
 4755W        W21229  11.657   2.294   4.349 -0.0227  0.0426  0.3036
 4756W        W21230  15.183  12.371   3.457 -0.1259 -0.2537 -0.2190
 4757W        W21231   4.700  15.971  15.383  0.1335  0.1846 -0.1574
 4758W        W21232   0.240  17.783  15.607  0.0322  0.2361 -0.1746
 4759W        W21233  13.374   4.563   1.907 -0.0158 -0.2762  0.1475
 4760W        W21234   8.558  14.950   2.718  0.2506  0.2039  0.0034
 4761W        W21235  16.406  10.568   0.728 -0.0731 -0.3595 -0.2478
 4762W        W21236  11.732  12.462   1.314 -0.0096  0.1439 -0.2816
 4763W        W21237  18.122  14.827  14.264  0.1444  0.3626  0.0599
 4764W        W21238  16.921  11.460   0.186  0.0395  0.0419 -0.1327
 4765W        W21239  10.137  17.125   3.520 -0.0126 -0.3246  0.1295
 4766W        W21240   5.734   8.436  14.739  0.1342  0.1740  0.0428
 4767W        W21241   5.382  14.172   3.207 -0.1406  0.1150  0.1939
 4768W        W21242  16.864   4.167  13.905  0.0233 -0.1170  0.0630
 4769W        W21243   4.920  10.187   4.110  0.0411  0.0158  0.1321
 4770W        W21244  17.834  15.941   2.380 -0.2305  0.2529 -0.3896
 4771W        W21245  14.912   7.154  12.967 -0.1547 -0.1090 -0.2195
 4772W        W21246   8.409  13.938   1.674 -0.4553 -0.0530 -0.0347
 4773W        W21247  11.364   1.946   1.440 -0.0678 -0.0392 -0.1254
 4774W        W21248   7.405   8.093  15.335 -0.1410  0.0086 -0.2323
 4775W        W21249  13.942  16.154   1.632 -0.2337  0.1326  0.2778
 4776W        W21250   6.946   8.042   5.197  0.1746 -0.2417 -0.1620
 4777W        W21251  14.191  12.230   1.841  0.1717  0.0112 -0.2024
 4778W        W21252  14.036  12.749   1.715 -0.0079 -0.1441  0.0240
 4779W        W21253   3.402  13.222  14.277  0.0887 -0.0771  0.2732
 4780W        W21254   8.029  11.928  13.010 -0.1497 -0.2081 -0.0615
 4781W        W21255   6.659  11.037  14.571  0.0561 -0.1151  0.4272
 4782W        W21256   0.357  16.633  15.882 -0.0123 -0.1587  0.1987
 4783W        W21257   1.409   9.667  12.036  0.0667  0.2677  0.0795
 4784W        W21258  16.898  16.699  15.584 -0.0261  0.3110 -0.0833
 4785W        W21259   6.756  15.836   3.468 -0.1603 -0.0139  0.1814
 4786W        W21260   7.358  17.155  12.088 -0.1237  0.2198  0.1041
 4787W        W21261  17.053   9.433   4.178 -0.2574 -0.0122 -0.0529
 4788W        W21262  12.616   4.571  15.669 -0.0529 -0.0127  0.0402
 4789W        W21263   8.921  14.929  14.978  0.2661  0.0014 -0.0407
 4790W        W21264   9.092  10.413   4.183 -0.3441 -0.0360  0.0576
 4791W        W21265  16.346  16.434  12.152 -0.0216 -0.1811  0.1746
 4792W        W21266   2.637   5.471   0.063 -0.1372  0.0955  0.0199
 4793W        W21267  15.624   3.338  14.252 -0.1132 -0.1228  0.0058
 4794W        W21268  18.162  17.516  13.995  0.0861 -0.0068 -0.0168
 4795W        W21269   3.004   1.161   4.113 -0.1431 -0.0096 -0.0266
 4796W        W21270  10.404   1.976  13.950 -0.1018  0.0668 -0.2472
 4797W        W21271  11.296  13.520   0.307 -0.2084  0.0374  0.0321
 4798W        W21272   9.368  10.251   9.956 -0.1160 -0.1798 -0.1074
 4799W        W21273   3.557   2.350  13.180 -0.4855 -0.1147  0.2348
 4800W        W21274   2.808  13.814   2.037 -0.0400 -0.2436  0.3904
 4801W        W21275  11.832  17.290   2.670  0.0282 -0.1206  0.2284
 4802W        W21276   1.503   3.589  13.209  0.2493 -0.3574 -0.3730
 4803W        W21277   8.641   5.406  12.256 -0.2433  0.0200 -0.0383
 4804W        W21278  14.989   7.336   6.158 -0.1535  0.0312  0.0466
 4805W        W21279  13.520   0.061  12.029  0.0977  0.0743  0.2533
 4806W        W21280   3.939   9.943   3.139  0.1811 -0.2341  0.1634
 4807W        W21281  15.800  11.991  14.467 -0.0026  0.0507 -0.1486
 4808W        W21282   5.830   3.449   3.992  0.0519  0.0545  0.2671
 4809W        W21283   5.238   1.820   5.256  0.0038  0.0045 -0.0197
 4810W        W21284   6.057  13.167  15.452 -0.1423  0.2081 -0.0341
 4811W        W21285   3.488   6.907  14.598  0.0495  0.1486 -0.0616
 4812W        W21286  18.215   1.090  11.908 -0.1304  0.0640  0.0564
 4813W        W21287   8.013  13.680   1.416  0.0695 -0.2779 -0.3492
 4814W        W21288   8.383   8.923   4.720  0.0448 -0.2439 -0.0681
 4815W        W21289  12.332  17.652   0.146  0.1215 -0.1052 -0.0408
 4816W        W21290  16.820   5.464   2.024 -0.0684 -0.1598 -0.1060
 4817W        W21291  10.999  16.165  14.821 -0.0325 -0.1759  0.2312
 4818W        W21292   5.476  10.912  11.058 -0.1605 -0.0881  0.1395
 4819W        W21293  12.360  16.126  11.299  0.4159  0.2674  0.0810
 4820W        W21294  15.307   0.280  15.526  0.0081  0.1432  0.3175
 4821W        W21295   4.779  10.158   3.634 -0.1081  0.1067 -0.0582
 4822W        W21296  14.219   7.076   1.430 -0.1098  0.0169  0.0332
 4823W        W21297   3.814   7.635   2.501  0.2012 -0.0368 -0.0681
 4824W        W21298   8.982   2.022  15.520  0.1660  0.0090 -0.0802
 4825W        W21299   9.365   2.261   1.345  0.2720  0.0347  0.2058
 4826W        W21300   6.474  17.214  12.571  0.1108  0.0280 -0.0678
 4827W        W21301  13.130   2.773  10.081  0.1479  0.1986  0.1904
 4828W        W21302   0.433   0.403  13.732  0.1216 -0.1146 -0.4549
 4829W        W21303   3.445   1.054  12.687  0.0028 -0.0905 -0.0880
 4830W        W21304  15.750   7.165   3.640  0.0274  0.1863  0.1355
 4831W        W21305  17.020   6.173   2.800  0.0734 -0.0997 -0.1290
 4832W        W21306  10.224  15.233  14.464 -0.2734 -0.0064  0.1406
 4833W        W21307   7.872   9.818  11.035  0.2137  0.0111  0.0420
 4834W        W21308   1.919  15.718   1.723  0.1976 -0.2650  0.1422
 4835W        W21309   3.981  10.615   3.377 -0.1778  0.3747  0.1135
 4836W        W21310  15.614  15.984   3.109  0.2458  0.1739  0.2694
 4837W        W21311  11.224   4.110  13.841  0.2935 -0.1040  0.3033
 4838W        W21312  10.203   8.601   0.578 -0.3259  0.1159  0.2066
 4839W        W21313   3.105  11.942   5.958  0.4982  0.1285  0.2244
 4840W        W21314   7.965   2.257  15.752 -0.0337  0.0159 -0.2096
 4841W        W21315   8.394   6.225   5.193 -0.0311 -0.2052 -0.1876
 4842W        W21316  11.972  17.248  10.722  0.0625 -0.0243 -0.1970
 4843W        W21317  13.550  11.008  14.992 -0.1989  0.0862  0.0294
 4844W        W21318  13.400   4.679   3.251  0.0553  0.2594 -0.1196
 4845W        W21319   6.167   4.036   0.801  0.1070 -0.2964  0.1186
 4846W        W21320  12.191   5.085  13.975 -0.0924  0.0376 -0.0558
 4847W        W21321  14.023  13.465  15.916  0.2593 -0.2584 -0.1674
 4848W        W21322   2.920  16.973   0.021 -0.0069  0.3042 -0.2669
 4849W        W21323  10.028   0.797  15.843  0.1023 -0.5349 -0.1281
 4850W        W21324   9.589  15.783  13.731  0.1294 -0.0239  0.4328
 4851W        W21325   7.417   3.241  13.369 -0.1516 -0.1085  0.3904
 4852W        W21326  10.129  16.900  11.592 -0.0830 -0.0890  0.0196
 4853W        W21327  11.033  11.692   4.377 -0.2750 -0.0744 -0.2228
 4854W        W21328  16.949   0.009   1.821  0.2095 -0.0866 -0.0334
 4855W        W21329   9.470  12.536   2.866 -0.0267  0.0826 -0.4398
 4856W        W21330  14.552   0.996  11.977  0.1524 -0.0009  0.0444
 4857W        W21331   6.593   0.804  14.616  0.3187 -0.1062 -0.0960
 4858W        W21332   6.064   5.293  11.719 -0.0516  0.1026 -0.1819
 4859W        W21333  16.187   8.543  11.266 -0.2795 -0.0330 -0.2478
 4860W        W21334   0.771   8.767   2.308 -0.1468 -0.0719 -0.3334
 4861W        W21335   0.171   8.118  14.937  0.0853 -0.0252  0.0917
 4862W        W21336  12.493  11.858  12.814 -0.0644  0.0654 -0.0679
 4863W        W21337   7.230   6.186   0.369 -0.1465 -0.0898  0.0354
 4864W        W21338  13.234   9.762   3.718  0.0994  0.0742  0.0487
 4865W        W21339   6.946  15.094  11.873  0.3451  0.2534 -0.0361
 4866W        W21340   1.286   7.002   0.001  0.1885 -0.2056 -0.2261
 4867W        W21341  16.996   7.733  14.775 -0.0694 -0.0964  0.0192
 4868W        W21342  12.295   0.885  14.211 -0.2891 -0.1728 -0.1959
 4869W        W21343   2.271  17.650   0.537  0.2450  0.0551  0.1413
 4870W        W21344   8.214  16.926  15.593  0.2382 -0.0675  0.2237
 4871W        W21345  13.648  11.181  15.739 -0.0975  0.1799 -0.0524
 4872W        W21346   2.878   8.169   5.066  0.1002 -0.4870 -0.0121
 4873W        W21347   8.509   0.179   4.411 -0.1645  0.1375 -0.1719
 4874W        W21348  13.828   0.720  11.427  0.0893 -0.2887  0.0944
 4875W        W21349  11.833  10.244   0.634  0.1079  0.0438  0.1555
 4876W        W21350   0.713  12.047  11.927  0.1694  0.1736  0.0404
 4877W        W21351   8.897  12.287   2.352 -0.2008  0.0209  0.0490
 4878W        W21352   8.195   8.616  12.290 -0.0671  0.2071  0.0283
 4879W        W21353   9.922   6.374   3.870 -0.2415 -0.0346 -0.2668
 4880W        W21354   3.615   5.883   1.374 -0.1493  0.0043  0.0369
 4881W        W21355  13.824  13.398  12.164 -0.0547  0.1262  0.1368
 4882W        W21356  14.981  10.455   1.153 -0.2149 -0.0940  0.2859
 4883W        W21357  18.365   3.572  12.260  0.0518 -0.0468 -0.1794
 4884W        W21358  14.273   6.536   4.392  0.0741 -0.2965  0.0360
 4885W        W21359  11.236  13.003   1.699  0.0220 -0.2174  0.0176
 4886W        W21360   3.386   4.337   2.428 -0.2445  0.2979  0.0814
 4887W        W21361  13.265  10.404   5.328 -0.4429  0.0303  0.1676
 4888W        W21362  13.315  11.998   1.530 -0.0401 -0.0449  0.0071
 4889W        W21363  11.885  18.333   1.908  0.0052 -0.0085  0.4110
 4890W        W21364  18.274  16.659   1.504  0.3220 -0.0427 -0.2235
 4891W        W21365  12.835   4.177  14.257  0.0632 -0.1080 -0.0505
 4892W        W21366  11.815  12.726  10.555  0.0717  0.4698 -0.1537
 4893W        W21367  12.899   8.008  14.467  0.0344 -0.2222 -0.1991
 4894W        W21368  12.037  12.780   3.506 -0.1585  0.1212  0.1946
 4895W        W21369  14.455   3.532   1.274 -0.1821 -0.0726  0.0312
 4896W        W21370  10.064   6.272  15.817 -0.1009  0.1175 -0.0223
 4897W        W21371   2.125   2.586   3.576  0.1286  0.0018 -0.0622
 4898W        W21372  18.468  15.776   6.271  0.2148 -0.1920 -0.1830
 4899W        W21373   3.920   0.714   3.872  0.0010  0.0683 -0.0989
 4900W        W21374  12.674  15.552   4.051 -0.0038  0.0840 -0.0068
 4901W        W21375   7.535  11.199  11.033  0.3828  0.1689  0.1693
 4902W        W21376   8.021   0.852  15.200 -0.0959  0.0599 -0.0640
 4903W        W21377  10.126  16.379   2.805 -0.2758  0.0409  0.1663
 4904W        W21378   7.884   9.857  12.876  0.0200 -0.0169  0.0781
 4905W        W21379   3.000   4.490   5.047 -0.0016  0.0705  0.1988
 4906W        W21380   6.339   4.053   2.930 -0.0216  0.1290 -0.0779
 4907W        W21381   3.150  12.844  13.952  0.1267 -0.1101  0.2167
 4908W        W21382  15.970   7.516  15.097 -0.0185  0.0954  0.0168
 4909W        W21383  15.860   7.408   3.127  0.0186 -0.2039 -0.1622
 4910W        W21384  10.705   0.406   3.197 -0.1719 -0.0037  0.2843
 4911W        W21385   6.274   4.960   4.434 -0.0104 -0.1955 -0.0625
 4912W        W21386   9.396   5.066  13.149 -0.0750  0.4366 -0.1950
 4913W        W21387   7.446   7.566   3.624 -0.1582  0.0682  0.2552
 4914W        W21388   5.355  17.984   2.954 -0.0686  0.1083 -0.0881
 4915W        W21389  16.853  14.186   0.473 -0.1756 -0.2969  0.1564
 4916W        W21390   2.627   4.712  14.623  0.1309  0.2233  0.0414
 4917W        W21391  14.849  10.791   0.394 -0.1090  0.1750 -0.1940
 4918W        W21392   1.413  15.936  15.380  0.0434  0.2270 -0.0258
 4919W        W21393  15.611  17.873  12.575 -0.1112 -0.1971  0.0546
 4920W        W21394  17.681  11.260   1.799 -0.1842  0.3665 -0.1352
 4921W        W21395  16.561   5.197   0.180 -0.0895  0.2034 -0.0378
 4922W        W21396  17.072  13.789  14.519  0.1445 -0.1624 -0.1211
 4923W        W21397   6.599  11.429  10.903 -0.2370  0.0083 -0.0493
 4924W        W21398  18.079  12.187  11.871  0.1508  0.1465  0.0008
 4925W        W21399   5.362   6.484  15.401 -0.0105  0.0508 -0.0401
 4926W        W21400   5.364  13.884  15.330 -0.2071 -0.2047  0.0380
 4927W        W21401  15.122   2.671  13.793 -0.0924 -0.0038 -0.0241
 4928W        W21402  11.773   5.543  14.770 -0.0744  0.0154 -0.2578
 4929W        W21403   0.458  18.071   4.692 -0.3622 -0.0063  0.0031
 4930W        W21404   8.682   2.564   2.872 -0.0506 -0.2515 -0.0059
 4931W        W21405   1.632  15.908  13.015 -0.0758  0.0419 -0.1840
 4932W        W21406  13.147   7.675   3.979  0.1027 -0.3394 -0.0649
 4933W        W21407  13.512   4.902  13.467 -0.1059  0.0485 -0.1798
 4934W        W21408   2.607  18.386  13.327  0.0643  0.1011 -0.0434
 4935W        W21409  17.009   1.237  14.710 -0.1357  0.1670  0.0314
 4936W        W21410   9.310   9.821  13.405  0.0101  0.1168  0.1032
 4937W        W21411  14.395  10.520  14.824 -0.1602 -0.0483 -0.2576
 4938W        W21412   7.332  13.114   2.959 -0.1658  0.2184  0.0421
 4939W        W21413  14.186  13.060   4.762  0.0017 -0.2335  0.0646
 4940W        W21414  14.715   9.825  12.762  0.0844  0.0901  0.1314
 4941W        W21415  17.268   5.283   2.228  0.1681 -0.2807 -0.0041
 4942W        W21416   5.308  10.308  12.603 -0.2920  0.2925 -0.0123
 4943W        W21417   5.036  17.809  12.085  0.1092  0.0871  0.3284
 4944W        W21418   6.510  16.191  12.366  0.0621 -0.1935 -0.1775
 4945W        W21419   5.383   9.949  14.691 -0.3731 -0.0892 -0.1463
 4946W        W21420   3.500   0.508  11.358  0.0832  0.2148  0.1453
 4947W        W21421   7.991   1.220  14.905 -0.0949  0.1106 -0.3557
 4948W        W21422  16.362  17.689  12.916  0.1219  0.2168 -0.1650
 4949W        W21423  17.678   0.060   0.598  0.0008 -0.1262 -0.1102
 4950W        W21424  13.485   1.136  13.693  0.2080  0.1354 -0.1002
 4951W        W21425   4.953   7.565  10.309  0.1696  0.1944  0.1693
 4952W        W21426  13.130   3.383  10.958 -0.0269 -0.1907  0.0507
 4953W        W21427  11.901  13.229   5.293 -0.2994 -0.1687 -0.0987
 4954W        W21428  10.335   1.852  15.892 -0.2372 -0.0220  0.0643
 4955W        W21429   7.780   0.579  15.580  0.2109  0.2475 -0.1054
 4956W        W21430  14.054  11.087  12.193 -0.1599  0.0796 -0.0495
 4957W        W21431   8.938   7.201  11.260 -0.2408 -0.0924  0.0553
 4958W        W21432  15.874   5.686   1.943  0.0414  0.3173 -0.3935
 4959W        W21433   3.895   0.816   4.400  0.0767 -0.4186  0.0686
 4960W        W21434  14.767   3.112   1.329  0.2265 -0.2311  0.3873
 4961W        W21435  18.458  17.590  13.551  0.0404  0.2479  0.2378
 4962W        W21436   7.393   2.949   4.705  0.1646  0.0720  0.1877
 4963W        W21437   5.952   9.565   2.178  0.2875  0.0328 -0.2439
 4964W        W21438   4.039   9.791  13.811 -0.0084  0.0117  0.2133
 4965W        W21439  12.344   0.617  12.338  0.3233  0.0804  0.2545
 4966W        W21440   3.577   9.719  15.784 -0.0812 -0.1596  0.0649
 4967W        W21441  16.512  13.391  15.405 -0.0579  0.1629 -0.2432
 4968W        W21442   7.787   4.704   4.351  0.1022 -0.0153  0.2258
 4969W        W21443  14.887  17.435   2.463  0.4531 -0.1699  0.0475
 4970W        W21444   4.277   5.183   1.741  0.0479 -0.4011 -0.0475
 4971W        W21445   0.632   4.856   4.815  0.0402  0.1415  0.2809
 4972W        W21446   1.646   4.762   3.050 -0.2374  0.3825 -0.0290
 4973W        W21447  11.531  12.710   3.509 -0.1613 -0.1878 -0.3147
 4974W        W21448  17.599   8.203   5.043  0.0870 -0.0701  0.3228
 4975W        W21449   1.062  14.660  15.409  0.0758  0.1418 -0.3515
 4976W        W21450  15.168   7.927   3.321  0.2338 -0.0451  0.2009
 4977W        W21451  12.842  18.230  14.886  0.1734 -0.2541  0.0696
 4978W        W21452   6.399   6.044   1.941  0.1557 -0.1792  0.2675
 4979W        W21453   9.013   5.833  15.096 -0.1173  0.0708  0.0822
 4980W        W21454  16.749  17.587   3.804 -0.1299 -0.1567 -0.0815
 4981W        W21455   9.486  13.752   5.111 -0.1715  0.1678  0.1626
 4982W        W21456  10.007   3.896  14.617  0.1265 -0.3341  0.2085
 4983W        W21457  12.145   3.890   4.400 -0.1195  0.0263  0.1266
 4984W        W21458   4.404   5.202   4.134 -0.3385 -0.1303  0.2579
 4985W        W21459   8.322  17.146  14.220 -0.2313  0.2310  0.0977
 4986W        W21460  17.313  18.129  12.914  0.3815  0.2642 -0.2276
 4987W        W21461   5.901  10.646   9.722 -0.1924 -0.2179  0.0637
 4988W        W21462   8.405   7.095   2.032 -0.1436 -0.1468  0.0290
 4989W        W21463   8.705  17.209   0.189  0.1095  0.1774 -0.2200
 4990W        W21464  11.032  15.992  11.224  0.0679  0.1281  0.0180
 4991W        W21465   7.532   4.419  12.661  0.2176 -0.3528 -0.0976
 4992W        W21466   9.052   4.360   2.634 -0.0269  0.4398  0.1238
 4993W        W21467   7.341  14.401  13.126  0.1282 -0.1014 -0.1026
 4994W        W21468   9.268   4.969   5.728  0.0881 -0.1548  0.0278
 4995W        W21469   8.469  17.599  13.878 -0.0448  0.1326  0.0501
 4996W        W21470  13.898  14.287  13.267  0.0133  0.0501 -0.1760
 4997W        W21471   2.152   4.708   4.984  0.1292  0.3614  0.0750
 4998W        W21472  11.426  12.384   2.960 -0.0828 -0.0811  0.2464
 4999W        W21473   3.178   9.272   2.984 -0.4217 -0.1343 -0.2134
 5000W        W21474   3.602   6.022  11.495 -0.1243 -0.0058  0.1221
 5001W        W21475  13.527   0.611  11.930 -0.1446 -0.0132 -0.4513
 5002W        W21476   3.182  13.993   0.632  0.3163  0.1986  0.2967
 5003W        W21477   4.888  17.884   0.879  0.3770 -0.0324 -0.1614
 5004W        W21478   3.916  15.255   0.342  0.3804 -0.2066 -0.1311
 5005W        W21479   7.509  11.894  14.196 -0.0072  0.0045  0.3474
 5006W        W21480   6.171  13.431  10.220 -0.0607  0.0044 -0.0190
 5007W        W21481  11.189   4.113  12.458 -0.0163  0.0736 -0.1263
 5008W        W21482   7.248  10.228   5.366  0.2414 -0.0204 -0.2076
 5009W        W21483   3.807   7.143  12.242 -0.5792  0.3288 -0.2127
 5010W        W21484  13.896  12.446  14.976  0.5408  0.2583 -0.2029
 5011W        W21485  12.766   2.395  11.885 -0.0675  0.2017  0.4104
 5012W        W21486   2.009  13.040  11.899 -0.3211  0.1203 -0.0300
 5013W        W21487  18.223   4.529   1.185  0.1501 -0.1533  0.2791
 5014W        W21488  17.247  15.942   2.267 -0.0886 -0.0441 -0.2595
 5015W        W21489   8.884   9.656  14.698  0.2225  0.0717 -0.1906
 5016W        W21490  10.062  11.908   5.392  0.0446  0.1649 -0.0592
 5017W        W21491   2.029   8.574  11.050 -0.1347  0.0673 -0.2301
 5018W        W21492  13.154  13.960   0.714 -0.0093  0.0021  0.2023
 5019W        W21493   4.271  15.388  12.221  0.0470  0.1687  0.1499
 5020W        W21494  11.016  17.971  15.736  0.0845 -0.1510  0.0332
 5021W        W21495  15.298  11.094   1.577 -0.0313  0.0427  0.2245
 5022W        W21496   3.160   8.792  11.346  0.0667  0.0334 -0.0469
 5023W        W21497  11.096   0.092   1.896  0.0673  0.0589 -0.0496
 5024W        W21498   0.063  16.813   4.464 -0.0616 -0.0835 -0.0566
 5025W        W21499   1.274  15.765  14.958  0.2996  0.1514 -0.3037
 5026W        W21500  10.563   9.490  15.048 -0.1824  0.2458 -0.0773
 5027W        W21501  11.676  14.651   5.034  0.4705 -0.0472  0.1791
 5028W        W21502  17.933  11.862   5.079 -0.2370 -0.0849  0.2727
 5029W        W21503   1.755  17.874  10.601 -0.0281  0.1754 -0.0809
 5030W        W21504   3.000   6.733  11.194 -0.1342  0.2413  0.0494
 5031W        W21505  15.535  15.780   1.189 -0.1333  0.2675  0.3090
 5032W        W21506   9.199   0.862  11.861 -0.0035  0.1509 -0.2505
 5033W        W21507  16.490  17.994   3.311  0.2388  0.0098  0.1641
 5034W        W21508   4.327   9.700  15.849 -0.1065  0.4086  0.1152
 5035W        W21509  15.272  10.201   3.893  0.0883  0.0625 -0.1526
 5036W        W21510  18.016   4.167  12.211 -0.1150 -0.0460  0.1079
 5037W        W21511  14.107   8.215   0.632  0.0298  0.3733 -0.0746
 5038W        W21512   2.248   6.333  13.492 -0.4428 -0.0052  0.1281
 5039W        W21513  10.273   7.761   4.763 -0.0681 -0.1962  0.2056
 5040W        W21514  10.586   0.722  13.323 -0.2744  0.0578  0.0548
 5041W        W21515   9.562   5.394   3.082  0.3547 -0.3487 -0.1012
 5042W        W21516   7.331  11.454   0.229 -0.0442 -0.0380  0.3241
 5043W        W21517   1.337  17.907  12.418  0.0557 -0.1421  0.0736
 5044W        W21518  11.497   1.732   4.931  0.1580  0.0753  0.0528
 5045W        W21519   2.877   6.344   3.955 -0.2059 -0.0218  0.1265
 5046W        W21520   2.858  15.985   1.265  0.1090  0.0340 -0.0772
 5047W        W21521  11.071   3.006  11.632  0.0894  0.0268  0.1171
 5048W        W21522  15.596   7.638   4.826  0.0597 -0.0617  0.1301
 5049W        W21523  17.077   8.168   4.040  0.1942 -0.0209  0.1663
 5050W        W21524  12.276   2.388  11.566 -0.0882 -0.1459 -0.0104
 5051W        W21525   8.797   0.376  10.500  0.0307  0.0251  0.0133
 5052W        W21526   0.034   2.612  15.870 -0.1646 -0.0682  0.0959
 5053W        W21527  12.112  11.029   0.037  0.0150 -0.0656 -0.0219
 5054W        W21528  13.595   1.605   1.937  0.0015  0.2636  0.2226
 5055W        W21529   0.489  14.140  15.848  0.1079 -0.0897  0.0459
 5056W        W21530   6.128   0.526   2.999 -0.2977  0.0793  0.0346
 5057W        W21531  16.614   8.896   9.913  0.2009  0.0010 -0.1537
 5058W        W21532  16.756  10.724   2.653 -0.1854 -0.1840  0.0078
 5059W        W21533   8.793  13.559   0.242  0.2850 -0.0975  0.0840
 5060W        W21534  16.601   1.080  12.584  0.1915 -0.1893 -0.1283
 5061W        W21535  11.942   1.038   2.452 -0.2058 -0.2599  0.0736
 5062W        W21536  18.210   8.728  13.490 -0.2001  0.2935  0.2279
 5063W        W21537  16.445  12.247  13.314 -0.2039  0.0647 -0.0805
 5064W        W21538  18.180  14.950  15.236 -0.2833 -0.2422 -0.0791
 5065W        W21539  16.341   3.319  10.539 -0.0199 -0.0864  0.1600
 5066W        W21540   2.433   4.309   0.102 -0.1015  0.0606  0.0880
 5067W        W21541   6.912   8.309  14.525  0.1837  0.2263  0.0682
 5068W        W21542  17.376  10.185   2.138 -0.0595 -0.1002 -0.0760
 5069W        W21543   1.368   1.320   1.788 -0.0025 -0.0735 -0.1277
 5070W        W21544   4.630   8.731  13.948  0.2105  0.1902 -0.0819
 5071W        W21545   6.274   7.000   0.961 -0.0015 -0.0998  0.0045
 5072W        W21546  12.066   4.323   5.004  0.0748 -0.0426 -0.1050
 5073W        W21547  17.615   9.127   5.808 -0.4330 -0.0929  0.0608
 5074W        W21548   0.968  11.230   2.794  0.0525 -0.0730 -0.2122
 5075W        W21549  16.702   0.976   4.959  0.1075 -0.2932  0.2561
 5076W        W21550   2.980   4.892   2.132  0.0165  0.1593 -0.1217
 5077W        W21551   1.521   6.676   0.285 -0.0992  0.0869  0.0213
 5078W        W21552  15.209   7.139  13.345 -0.3474 -0.0269 -0.0808
 5079W        W21553  10.051  17.750   3.009 -0.1425  0.1066 -0.0104
 5080W        W21554  16.809  16.310   3.726  0.0044  0.0515 -0.3140
 5081W        W21555  11.784  14.884   3.116  0.0811  0.0396  0.2799
 5082W        W21556   0.949   7.293  15.682 -0.0794  0.1591  0.4152
 5083W        W21557  13.177   0.359   0.049 -0.2294 -0.1322  0.0447
 5084W        W21558   9.467   4.981   0.402 -0.2199  0.0683 -0.0354
 5085W        W21559   4.376  16.424  13.708  0.2277 -0.0390 -0.2076
 5086W        W21560   7.121   1.857   1.326 -0.0747  0.0142 -0.2023
 5087W        W21561  11.929   0.874   3.777 -0.0560 -0.0180 -0.5958
 5088W        W21562   0.056   4.466   2.923 -0.0756 -0.2482 -0.0425
 5089W        W21563  13.338   7.970   3.606  0.2080  0.2767 -0.1047
 5090W        W21564   1.867   9.974  14.995 -0.1196 -0.0050  0.1654
 5091W        W21565   7.587   6.310  12.515  0.2827  0.1238 -0.1853
 5092W        W21566  18.286   0.662  12.508  0.1167 -0.1040 -0.1046
 5093W        W21567   2.393  14.265  12.025  0.0159 -0.1427 -0.2313
 5094W        W21568   2.808  12.754   1.253  0.1243  0.0280 -0.1289
 5095W        W21569   3.031   2.820   4.188 -0.2357  0.0251  0.0982
 5096W        W21570   4.907   5.067  13.926  0.0312  0.0644 -0.1439
 5097W        W21571   4.718  13.861  12.019  0.1065 -0.1089 -0.0601
 5098W        W21572   0.919   1.657  13.919 -0.1733  0.1529  0.0963
 5099W        W21573   5.702  11.128  11.621  0.1037 -0.1431  0.2328
 5100W        W21574  16.339  17.914  14.062  0.0253 -0.2027 -0.0679
 5101W        W21575   9.441   8.522  15.233 -0.0513 -0.1306 -0.3241
 5102W        W21576   2.474   6.099   2.909  0.1026  0.3782 -0.1657
 5103W        W21577  18.120   8.175   5.052  0.0922 -0.3058  0.0088
 5104W        W21578   4.153  17.238   3.999 -0.1168 -0.1969 -0.0120
 5105W        W21579  15.818   0.277   0.881 -0.2874  0.1866 -0.0744
 5106W        W21580   9.552   5.040   5.308 -0.2212 -0.5925  0.1240
 5107W        W21581  13.599  10.256   0.897 -0.0308 -0.2089 -0.0348
 5108W        W21582   7.610  17.006  14.359 -0.0323  0.0620 -0.1045
 5109W        W21583   2.063  15.635  12.688  0.3859 -0.3083  0.0434
 5110W        W21584  16.502  13.886  12.852  0.1036 -0.1285  0.0216
 5111W        W21585   2.243  13.234  12.287  0.0149 -0.2297 -0.0112
 5112W        W21586   8.742  16.309   1.688  0.1822  0.0843 -0.0137
 5113W        W21587   4.888  18.312  11.440  0.0187 -0.2622 -0.2466
 5114W        W21588  13.638   9.179  12.442  0.1085 -0.0979  0.1466
 5115W        W21589   8.013   4.282  14.913 -0.1202 -0.1189 -0.1846
 5116W        W21590   3.908   6.207   4.173  0.0428 -0.1443 -0.1503
 5117W        W21591  10.632   3.401   4.096  0.1454  0.0934  0.2254
 5118W        W21592  14.182   0.447  13.914  0.4385 -0.2570  0.0511
 5119W        W21593   8.150  15.925   4.554  0.1013  0.2854 -0.1041
 5120W        W21594   7.976   2.027  10.781 -0.0377 -0.2231  0.2901
 5121W        W21595  14.611   2.858  13.618  0.2085 -0.0119  0.1144
 5122W        W21596   4.225   1.444  13.680 -0.0702  0.1209  0.1255
 5123W        W21597  10.765   4.550   4.960 -0.1339  0.1824 -0.2074
 5124W        W21598   6.775   0.634   3.582 -0.0677  0.1312  0.1712
 5125W        W21599   5.420   0.668   3.765 -0.0315  0.1186  0.1223
 5126W        W21600   0.099  14.482   1.716 -0.0592 -0.2362 -0.1872
 5127W        W21601   7.969   7.833   2.661  0.3705  0.2196  0.1293
 5128W        W21602   9.263   1.043  12.460  0.1718 -0.0547  0.0788
 5129W        W21603  14.394   1.356  13.285 -0.5064 -0.2305 -0.1748
 5130W        W21604   7.748   4.403  11.847  0.2673  0.0859 -0.1835
 5131W        W21605  17.977   0.635   0.115 -0.2726  0.0856  0.0444
 5132W        W21606   7.498  13.824   1.296 -0.1759 -0.0048  0.3505
 5133W        W21607   9.396   6.756  12.015 -0.2676  0.2336 -0.4087
 5134W        W21608   0.705  16.071   4.776  0.0057 -0.1652  0.1160
 5135W        W21609   2.782  11.130   1.680 -0.1758 -0.3272  0.0304
 5136W        W21610   9.743   2.214   2.405 -0.3325  0.1122 -0.0871
 5137W        W21611  13.442  10.909   0.106 -0.1140 -0.0977 -0.0813
 5138W        W21612   8.736   5.660   2.384 -0.0127 -0.1533  0.0339
 5139W        W21613  17.152   2.312   0.080  0.1300  0.0120 -0.0516
 5140W        W21614   7.198  14.699  13.454  0.0141 -0.2881 -0.0087
 5141W        W21615   0.692   1.716   3.606 -0.0450  0.0250 -0.1965
 5142W        W21616   6.803  14.878  15.176  0.0117  0.1119 -0.0175
 5143W        W21617  16.339  15.473   2.432 -0.0657  0.1647 -0.2043
 5144W        W21618   4.782   0.652   2.740  0.2403 -0.2202 -0.0076
 5145W        W21619   5.054   2.884   0.278  0.0420 -0.0756  0.1848
 5146W        W21620   8.211   7.534   6.081 -0.1545  0.1182 -0.0030
 5147W        W21621   1.199   6.939   1.052 -0.3856 -0.3113 -0.2426
 5148W        W21622   2.041  17.401   4.600  0.0351 -0.0753  0.2185
 5149W        W21623  13.045  11.282   4.481 -0.1147 -0.4596  0.1628
 5150W        W21624  11.948   1.602   0.301  0.0178  0.0620 -0.0291
 5151W        W21625  17.190   0.757   1.183  0.0709 -0.0421 -0.1591
 5152W        W21626  18.058  15.125   2.262 -0.0971  0.1440 -0.1003
 5153W        W21627  12.011  13.630  11.320 -0.3653 -0.2201 -0.1283
 5154W        W21628   3.864   4.948  10.016 -0.0484 -0.1569  0.1238
 5155W        W21629  13.027  11.553  14.314 -0.1923 -0.0121  0.3847
 5156W        W21630   5.650  11.329   2.778 -0.1477  0.0861 -0.1279
 5157W        W21631   6.417   4.061   0.359  0.1533 -0.2322 -0.1686
 5158W        W21632  11.137  17.514   4.507  0.1796  0.0871 -0.2474
 5159W        W21633  17.859   8.001  11.051  0.0073 -0.0552  0.0500
 5160W        W21634   7.899   5.600  13.641  0.0355 -0.1017  0.0346
 5161W        W21635  15.428  17.410  12.635 -0.0932 -0.0154 -0.0454
 5162W        W21636   6.096   7.348   1.457 -0.2323 -0.0459  0.0345
 5163W        W21637   4.914  12.007   3.727  0.0834  0.2242 -0.3652
 5164W        W21638   0.059   7.261   2.461 -0.1211 -0.2115  0.4116
 5165W        W21639   0.072  13.152  15.572 -0.1459 -0.3145  0.3359
 5166W        W21640  10.715   9.561   1.785 -0.0285 -0.1260  0.1207
 5167W        W21641   6.027  13.308  13.249 -0.1353 -0.1390 -0.2206
 5168W        W21642  12.708   1.471  14.976 -0.1664  0.1525 -0.1724
 5169W        W21643   0.198  17.720   5.505 -0.0099 -0.2243 -0.1219
 5170W        W21644   7.503  15.701   4.958 -0.1028 -0.3773 -0.0952
 5171W        W21645  12.680   0.210  12.341 -0.0165 -0.1153  0.1461
 5172W        W21646  11.509   3.172   3.053  0.0767  0.1167  0.0861
 5173W        W21647   4.502  16.386  15.729 -0.0828  0.0508 -0.1291
 5174W        W21648  10.956   6.405  12.940 -0.4754  0.0565  0.1809
 5175W        W21649   0.480   2.944   1.692 -0.0481  0.1424 -0.1393
 5176W        W21650  11.983  12.118  13.079  0.0055 -0.0258  0.1501
 5177W        W21651  17.703   1.908  10.632  0.0027  0.1637 -0.3236
 5178W        W21652  14.862  11.801   2.303 -0.2488  0.2252  0.3461
 5179W        W21653  13.303   6.337  15.869 -0.0619  0.1808 -0.0148
 5180W        W21654  13.985   2.915   0.292  0.2177  0.3034  0.1986
 5181W        W21655   6.629  16.336  14.328 -0.1418  0.0642  0.1488
 5182W        W21656   3.325   8.417   5.241  0.0614 -0.0047  0.1414
 5183W        W21657   2.256   8.663  11.756  0.0805 -0.0698 -0.0474
 5184W        W21658  17.046   7.585  13.841  0.2035 -0.1107 -0.2515
 5185W        W21659   4.984   0.950   0.364  0.1032 -0.0974  0.2912
 5186W        W21660   7.870  14.244  13.015  0.1569  0.1072  0.0213
 5187W        W21661   7.884  11.651   2.399  0.1247 -0.0752 -0.0309
 5188W        W21662  15.314  15.686  13.070 -0.0748 -0.1917 -0.1367
 5189W        W21663   7.909  18.433  13.938 -0.0320  0.2906 -0.3150
 5190W        W21664   5.029  11.179   4.059 -0.0191  0.1243 -0.0486
 5191W        W21665   9.129  12.935   3.234 -0.1954 -0.3188 -0.1557
 5192W        W21666  10.216  16.722  14.226 -0.0823 -0.2074  0.2896
 5193W        W21667  15.115   1.943  11.752 -0.0243 -0.0646  0.0051
 5194W        W21668   5.650   7.744   4.921  0.0445 -0.3740 -0.3398
 5195W        W21669   4.032   4.196  11.774 -0.2019 -0.0918 -0.2102
 5196W        W21670  13.722   8.177  13.422 -0.0195 -0.1042  0.1402
 5197W        W21671  17.868   3.101   2.700  0.0941 -0.0528 -0.0311
 5198W        W21672   3.764  14.541   0.386 -0.1277  0.1664 -0.1383
 5199W        W21673  13.718   9.526   3.644 -0.0608 -0.2578 -0.1712
 5200W        W21674   9.203   4.822   2.429  0.2907  0.0157 -0.0163
 5201W        W21675  13.410  12.749   5.167 -0.1848  0.0179  0.0821
 5202W        W21676   6.094  12.379   1.828  0.2435 -0.2580 -0.4151
 5203W        W21677   7.721   0.573   1.506  0.0843  0.0517 -0.3413
 5204W        W21678  14.879   0.619  14.117 -0.1152  0.0979  0.1031
 5205W        W21679   9.857  17.074  10.767  0.1068  0.1384  0.0625
 5206W        W21680  11.348   5.310  12.172  0.1465 -0.1938  0.0881
 5207W        W21681  13.685  13.933   1.552  0.1794 -0.2273 -0.0288
 5208W        W21682  14.845   0.813   2.602  0.3022 -0.3470 -0.0302
 5209W        W21683  13.905   9.376  15.614  0.0055 -0.1676  0.1825
 5210W        W21684   5.666   3.932   3.488 -0.1529  0.2914  0.0048
 5211W        W21685   0.235  11.743  13.514  0.2442 -0.2070  0.0273
 5212W        W21686   2.877   5.559   1.361  0.3265  0.1622 -0.1187
 5213W        W21687  10.065   9.345  12.611  0.1802  0.1336 -0.1478
 5214W        W21688  11.712   5.890  13.434 -0.0163 -0.1001 -0.0204
 5215W        W21689  17.347   9.364   0.658 -0.1053  0.0616 -0.0123
 5216W        W21690  17.013   3.145   1.799 -0.0194  0.1136 -0.0607
 5217W        W21691  14.855  17.340  14.611 -0.3371  0.2460  0.0486
 5218W        W21692   5.409  10.116   2.789  0.0577 -0.0093  0.0144
 5219W        W21693  15.992  16.953   2.298 -0.0271  0.0242  0.0146
 5220W        W21694   9.331  12.839  11.697  0.3061  0.0203 -0.2345
 5221W        W21695  13.306   1.406   0.331  0.1199 -0.0912  0.1764
 5222W        W21696   7.384   4.961  13.748  0.1862 -0.3890  0.1211
 5223W        W21697  17.198   9.108   5.539 -0.1321 -0.2600  0.1883
 5224W        W21698  10.784  16.395   0.367 -0.2652 -0.6512 -0.0954
 5225W        W21699  16.578   4.932   6.054 -0.3610  0.0914  0.0045
 5226W        W21700  16.877   7.223  11.530  0.1049  0.0987  0.0157
 5227W        W21701  16.448   6.073  15.154 -0.2149  0.3604  0.1929
 5228W        W21702  12.138  17.380  11.301 -0.2195  0.2389 -0.1977
 5229W        W21703   2.712  15.928  15.870 -0.1100 -0.1032  0.0942
 5230W        W21704  18.134   7.692   4.655 -0.3649 -0.3048 -0.0409
 5231W        W21705  14.952  15.762   1.017 -0.1288 -0.0218  0.1799
 5232W        W21706   0.266   8.481  11.031 -0.0213 -0.0287  0.1303
 5233W        W21707  14.012  17.088  12.661  0.1318  0.1104 -0.2184
 5234W        W21708   3.469   6.765  14.146  0.1748 -0.1186 -0.2702
 5235W        W21709   9.406  18.167  14.771  0.1859  0.1926 -0.1410
 5236W        W21710   7.933   4.022   3.755 -0.2208  0.2169 -0.2206
 5237W        W21711   9.541   5.296  15.386 -0.1217 -0.0088 -0.0671
 5238W        W21712   9.879   4.967   0.056 -0.0070  0.0700 -0.2303
 5239W        W21713   7.067  14.205  15.951 -0.4549 -0.3394 -0.1286
 5240W        W21714   8.256  17.726   5.335 -0.1801 -0.1675  0.0899
 5241W        W21715  11.049   2.644  10.136 -0.2517 -0.2900 -0.0313
 5242W        W21716   2.773   8.646   2.874 -0.3956  0.1918 -0.1356
 5243W        W21717  18.178  15.501   3.234  0.0330  0.3091  0.2861
 5244W        W21718  11.885   0.977  13.916  0.1461 -0.0154 -0.2184
 5245W        W21719  16.778  14.963  11.558 -0.2661  0.1774 -0.3050
 5246W        W21720   7.389  17.570   0.265 -0.1678  0.0715 -0.2501
 5247W        W21721  10.262   0.763   3.108  0.2108 -0.0715  0.0205
 5248W        W21722  16.510  18.187  15.829 -0.0550  0.2906  0.1439
 5249W        W21723  14.770   1.156  15.960  0.0911  0.1543  0.0020
 5250W        W21724  11.670   0.338  15.406  0.1028 -0.1529 -0.3865
 5251W        W21725  16.995   1.977   3.176  0.3526 -0.2819 -0.1620
 5252W        W21726   4.353  17.072  12.168 -0.1153 -0.3036  0.0736
 5253W        W21727  12.330   4.641   0.145 -0.0653  0.0832  0.0548
 5254W        W21728   1.278   4.489  13.656 -0.0570 -0.1046  0.1017
 5255W        W21729  10.615  15.986   3.446 -0.0561  0.2491  0.0527
 5256W        W21730  17.867  12.806   5.584  0.0260  0.3663 -0.0067
 5257W        W21731  16.936   8.621   3.767 -0.0511 -0.0977 -0.1028
 5258W        W21732  11.191  13.987  15.185 -0.0066 -0.2194  0.3860
 5259W        W21733   6.010  11.101  13.795 -0.1894 -0.1102 -0.1382
 5260W        W21734  10.063   3.478   2.224  0.0808 -0.0859 -0.2797
 5261W        W21735   3.953   7.917   4.241  0.0124 -0.2184  0.1784
 5262W        W21736   1.416   8.844   1.092  0.2761  0.0940  0.3294
 5263W        W21737   5.886   6.206  14.408 -0.2118  0.1477 -0.2166
 5264W        W21738  14.393  11.927   1.445 -0.2014 -0.1632 -0.1289
 5265W        W21739   9.896  16.344  12.787 -0.1545 -0.1034  0.0043
 5266W        W21740  13.619   4.136   0.606 -0.0466  0.0552 -0.2495
 5267W        W21741   7.902  13.609   3.140 -0.2158  0.0095 -0.0107
 5268W        W21742  16.142  17.752   0.557 -0.1840 -0.0171 -0.1946
 5269W        W21743  16.638  11.357   3.424  0.0701 -0.3146  0.1543
 5270W        W21744   5.290   2.334   3.533 -0.0560 -0.1411  0.1595
 5271W        W21745  17.692   8.487   1.032 -0.0079 -0.0053  0.0855
 5272W        W21746  16.601  10.481   1.840 -0.0249 -0.0143  0.0279
 5273W        W21747   6.571  15.809   5.870 -0.1207  0.3812  0.1574
 5274W        W21748  15.258  12.998   2.331  0.1855 -0.2216 -0.0216
 5275W        W21749   6.465   8.163   1.965 -0.1844 -0.1566  0.0620
 5276W        W21750  12.672   7.432  10.338 -0.1580  0.1700 -0.2267
 5277W        W21751  16.424   8.900   3.524  0.1022  0.3121  0.0777
 5278W        W21752   0.544  12.229  15.523 -0.0635 -0.0715 -0.0950
 5279W        W21753   8.949   5.833   2.830 -0.1374  0.2797  0.0760
 5280W        W21754   7.824   9.084   5.409  0.1330  0.1108  0.1865
 5281W        W21755  17.408   9.718   2.216  0.0689 -0.1794  0.1046
 5282W        W21756   9.336  10.291  11.356  0.1657  0.0481 -0.0995
 5283W        W21757   2.502   9.086   4.501 -0.0394 -0.0231 -0.1072
 5284W        W21758  16.506   1.117   3.693  0.1633 -0.2785 -0.0774
 5285W        W21759   8.148   4.997   3.567 -0.0418  0.0992 -0.1011
 5286W        W21760  16.306  13.438   2.575  0.0589 -0.1162 -0.0909
 5287W        W21761  13.332  11.783  15.832 -0.0798 -0.0352  0.1177
 5288W        W21762  12.644   3.289   0.476  0.0305 -0.0139  0.1018
 5289W        W21763  12.550   6.766  14.423 -0.1450 -0.2399 -0.0637
 5290W        W21764   7.215   8.734   0.187 -0.2187 -0.3098  0.1714
 5291W        W21765   9.972  11.721   4.637 -0.2412 -0.1361  0.3975
 5292W        W21766  15.788  16.221   6.123 -0.0852  0.1500 -0.3223
 5293W        W21767  14.666  12.267  13.971 -0.0160  0.1782 -0.0236
 5294W        W21768  12.468  13.890  12.075  0.1604  0.3291  0.3482
 5295W        W21769  14.687  14.984   2.903  0.0828  0.3317  0.0500
 5296W        W21770   7.923  11.614  12.349 -0.2105 -0.1139 -0.5393
 5297W        W21771  11.634  11.794  13.345 -0.2062  0.0327 -0.2117
 5298W        W21772   4.700   8.818  13.447  0.3079 -0.1712 -0.0665
 5299W        W21773  17.629  11.317   3.635  0.0061 -0.3094 -0.2821
 5300W        W21774  11.193   5.342   0.176  0.0193 -0.0677  0.2243
 5301W        W21775   6.810  13.339   5.056  0.0737 -0.2927 -0.0851
 5302W        W21776   1.284  16.234  14.743 -0.1083  0.1355  0.0333
 5303W        W21777  14.795  16.592  15.338 -0.1245  0.0734  0.3895
 5304W        W21778   5.607   8.513  10.285 -0.3364  0.1417  0.1543
 5305W        W21779   0.165  12.962   3.763 -0.0914  0.1915 -0.0195
 5306W        W21780   3.752   5.399  12.257 -0.0232  0.0088 -0.1174
 5307W        W21781   9.844   2.172   1.218  0.0932 -0.1861  0.3195
 5308W        W21782   9.731   0.816  13.786 -0.2323  0.1440  0.0756
 5309W        W21783  10.983   1.882  15.096 -0.2624  0.0448  0.3044
 5310W        W21784  17.890  10.842  14.515  0.1397  0.2679 -0.2863
 5311W        W21785  17.461   2.798   3.101  0.2681  0.1546  0.3525
 5312W        W21786   2.263   1.466   2.071  0.1729 -0.1927 -0.1481
 5313W        W21787   5.889   6.441   3.017 -0.0459  0.1811 -0.0296
 5314W        W21788   8.559   5.876   3.809  0.1428 -0.1039 -0.1414
 5315W        W21789   3.796   7.553  15.247 -0.1351 -0.0693  0.1505
 5316W        W21790   7.839  17.806  11.947  0.4042  0.3294 -0.2541
 5317W        W21791  15.522  13.357  15.827 -0.3433 -0.1600 -0.0246
 5318W        W21792  13.440  17.666   4.046 -0.2776  0.0991 -0.0939
 5319W        W21793  12.134  14.866   3.969 -0.1865 -0.1271  0.2898
 5320W        W21794   0.141  12.037  11.819 -0.0868 -0.0102 -0.0185
 5321W        W21795  13.899  10.560  14.353 -0.2963 -0.1542 -0.2326
 5322W        W21796   7.285   1.414   2.742  0.5122  0.4474 -0.0679
 5323W        W21797  14.938  12.076  15.531 -0.0304 -0.2946 -0.3767
 5324W        W21798   8.603   9.153  13.513  0.1696 -0.0029 -0.0441
 5325W        W21799   3.532   3.762   4.533 -0.0551  0.1346 -0.0361
 5326W        W21800   5.522   8.614  12.848  0.3527  0.0080  0.2474
 5327W        W21801  18.309  15.089  13.844  0.1149  0.4385  0.0761
 5328W        W21802  14.552   4.905   1.290  0.1688  0.2259 -0.0967
 5329W        W21803   0.527   4.300  15.339  0.2704  0.2757  0.1833
 5330W        W21804  13.797  18.205  13.318  0.3502  0.1290  0.0788
 5331W        W21805   6.561   8.811   4.438 -0.2320  0.0848 -0.0130
 5332W        W21806  16.920   5.570  14.398 -0.3628 -0.1838  0.3942
 5333W        W21807   5.968  10.843  11.222  0.2784  0.2806  0.2052
 5334W        W21808  10.310   8.278  15.351 -0.1252  0.2481  0.0835
 5335W        W21809   5.408  10.956  15.963  0.0381 -0.0896  0.1463
 5336W        W21810  16.653   0.911  14.344 -0.0436 -0.0992  0.3709
 5337W        W21811  15.027   6.178   3.162 -0.0277 -0.1970 -0.3006
 5338W        W21812  10.419  14.487   4.386 -0.0354  0.0161 -0.3040
 5339W        W21813  11.824   2.306  12.349 -0.0025  0.1182 -0.1550
 5340W        W21814  12.298   4.348  15.331  0.0065  0.3819  0.1312
 5341W        W21815   8.853  14.351  13.580 -0.0397 -0.1790  0.4028
 5342W        W21816  18.191   0.165   3.349 -0.1057  0.2436  0.0623
 5343W        W21817  16.786   9.354  14.192  0.1802 -0.2609  0.3394
 5344W        W21818  18.311  12.244   0.121  0.1103  0.2711 -0.0485
 5345W        W21819  16.699   2.951   4.477 -0.3571  0.0252 -0.0010
 5346W        W21820   4.696  17.805   3.679 -0.1334 -0.0594  0.2040
 5347W        W21821   3.202  13.902   0.013 -0.4719 -0.0939 -0.1406
 5348W        W21822  16.520  11.109  11.372 -0.3518 -0.3167  0.0022
 5349W        W21823   8.872  10.466   3.211 -0.3315 -0.1717  0.0702
 5350W        W21824   7.838  12.324   0.280 -0.2082  0.1460 -0.2333
 5351W        W21825   3.171  13.066   3.729  0.0965  0.2699 -0.0378
 5352W        W21826  10.736   0.559   0.385 -0.2029 -0.1391 -0.0053
 5353W        W21827   9.372   0.133   2.789  0.0096  0.2768 -0.2162
 5354W        W21828  15.562   4.518   4.378  0.1802  0.1815 -0.0597
 5355W        W21829  14.149   9.599  10.439  0.1639 -0.0573 -0.0636
 5356W        W21830  17.425   7.484   1.638 -0.4401 -0.0944  0.1964
 5357W        W21831   9.008  17.850   4.876  0.1719  0.0278 -0.0481
 5358W        W21832  14.709  12.462   0.501  0.2272 -0.2003 -0.1399
 5359W        W21833  10.066  13.921  15.482  0.0667 -0.1993 -0.1196
 5360W        W21834   0.017  13.128  15.092 -0.2932 -0.0245  0.1288
 5361W        W21835   3.227   9.408  12.711 -0.0882  0.0509 -0.0153
 5362W        W21836  10.052  12.854  12.114 -0.3126  0.1358  0.0800
 5363W        W21837   1.095  15.613   1.705 -0.2222  0.0625 -0.1366
 5364W        W21838  10.059   3.106  12.748 -0.0223 -0.1908  0.1356
 5365W        W21839   3.218   9.347  11.510  0.1501 -0.1125 -0.0433
 5366W        W21840  14.310  15.318   1.148 -0.0194  0.1152 -0.1823
 5367W        W21841  15.204   8.020   4.926 -0.4525  0.0615  0.0478
 5368W        W21842  18.098  10.271  13.861  0.1245 -0.0574  0.0531
 5369W        W21843   0.018   0.519   3.033  0.0482 -0.0915  0.0646
 5370W        W21844  13.136  15.263  12.157  0.1317  0.0550  0.0745
 5371W        W21845  11.074  10.094  11.930  0.1806 -0.0570  0.1964
 5372W        W21846   3.395  15.126   1.244  0.1004 -0.1484  0.1837
 5373W        W21847  14.235  12.370   4.358  0.3726 -0.1136 -0.1762
 5374W        W21848  17.470   7.299   2.147 -0.1026  0.0483  0.1310
 5375W        W21849   4.497   0.552  12.806  0.3335  0.0244 -0.0257
 5376W        W21850  18.334   3.525  13.717  0.0336 -0.0343  0.1500
 5377W        W21851   7.197  14.568  14.044  0.0844  0.0247  0.2705
 5378W        W21852   9.662   3.038  11.759  0.0488 -0.0223 -0.0492
 5379W        W21853   0.546  12.053  13.679 -0.1354 -0.0147  0.3590
 5380W        W21854   6.956   1.958   2.724 -0.3379  0.1265  0.0960
 5381W        W21855   8.543   7.543   0.932  0.2873  0.2048 -0.1931
 5382W        W21856  18.068  13.082   4.618  0.2132 -0.2730 -0.1147
 5383W        W21857  11.733  15.195  14.173  0.2624 -0.1925 -0.2839
 5384W        W21858  15.469  16.689  13.338 -0.2622  0.0544  0.0685
 5385W        W21859  16.449  11.444   2.706  0.0349  0.1673  0.2559
 5386W        W21860   7.870  17.428  15.677  0.0514  0.0514  0.2806
 5387W        W21861   9.810   9.677   2.470  0.1106 -0.0318 -0.0634
 5388W        W21862   7.326  13.372  12.143  0.0199 -0.1377  0.0876
 5389W        W21863   5.437   3.660  13.003  0.2838 -0.0117  0.0930
 5390W        W21864   2.809  14.903   2.534  0.1931 -0.0405  0.0321
 5391W        W21865   1.864   3.366  14.704 -0.1007  0.0692 -0.2090
 5392W        W21866   1.226  12.579   1.279 -0.3011 -0.0360  0.1920
 5393W        W21867   7.173  11.523   4.957  0.2530 -0.0207  0.3216
 5394W        W21868   7.827   1.259  14.331  0.1583  0.3894  0.3674
 5395W        W21869   4.471   2.417  13.150  0.3359 -0.1281 -0.1393
 5396W        W21870  18.329  14.943  12.960 -0.4537  0.0842 -0.0750
 5397W        W21871  17.296  12.988   2.158 -0.0047  0.0138  0.1192
 5398W        W21872   7.765  14.091  13.509 -0.0700 -0.2665 -0.0364
 5399W        W21873   0.363   0.206   2.713 -0.0956 -0.1035 -0.0830
 5400W        W21874   0.070  12.302   3.175  0.3351 -0.2161 -0.0155
 5401W        W21875  13.639  14.497   2.533  0.0518 -0.2628 -0.0315
 5402W        W21876   9.032   0.660  13.351 -0.0604  0.0158  0.0716
 5403W        W21877   7.244  17.148  15.562  0.0704  0.1558 -0.1460
 5404W        W21878   7.713   8.573   3.287  0.1094  0.1337  0.3117
 5405W        W21879   1.241   2.861   4.200 -0.2009 -0.0507  0.1654
 5406W        W21880   4.923   4.367   2.120 -0.3952  0.2511 -0.1923
 5407W        W21881  12.662  14.965  15.724 -0.0583  0.0127  0.0875
 5408W        W21882  17.738   6.444   0.994  0.1363 -0.0722  0.0151
 5409W        W21883   4.104  10.170  13.428  0.0014  0.1149 -0.1041
 5410W        W21884   8.619   9.242   2.919  0.0740  0.3378  0.1571
 5411W        W21885  16.110   7.634  11.307  0.0506  0.0705  0.1531
 5412W        W21886   8.456  11.262  15.591 -0.1604  0.0401  0.1502
 5413W        W21887  18.084  18.274   0.547  0.0849  0.1670  0.0782
 5414W        W21888   9.020   2.824  15.797  0.1354  0.0702  0.1561
 5415W        W21889  16.840  12.486  15.054 -0.0547  0.0637 -0.0148
 5416W        W21890   3.925  15.081   3.932 -0.0149 -0.0666 -0.0163
 5417W        W21891   1.643   5.033  13.748  0.0774  0.2615  0.1615
 5418W        W21892  10.164  12.989  13.847 -0.1656 -0.0570  0.0786
 5419W        W21893   5.054  10.571   0.189  0.0310 -0.0167  0.2422
 5420W        W21894  15.234   4.051   2.207  0.0673 -0.4826 -0.1530
 5421W        W21895  10.273  14.989   4.365 -0.0523 -0.2137  0.1820
 5422W        W21896  18.175  12.997  13.170 -0.2852  0.2289  0.2733
 5423W        W21897   8.214  16.377  15.804 -0.3015  0.1709 -0.0627
 5424W        W21898   3.673  17.415  14.978  0.1158 -0.1842  0.0960
 5425W        W21899   3.844   3.362  15.034  0.0076  0.2474  0.0861
 5426W        W21900   5.721   7.773  11.929 -0.1777 -0.1011  0.1708
 5427W        W21901  16.276  17.659   0.003  0.1329 -0.2460 -0.0250
 5428W        W21902   7.232   8.658  13.248  0.0270 -0.1218  0.1057
 5429W        W21903   9.254   5.028   3.233 -0.2312 -0.1005  0.1323
 5430W        W21904   5.366   5.213   4.485  0.1105  0.4253  0.3338
 5431W        W21905  14.781   9.216  11.907 -0.0324 -0.2625  0.1718
 5432W        W21906   7.263   8.062   1.694 -0.0300 -0.2839  0.4664
 5433W        W21907   3.469   2.225   2.648  0.0958 -0.1241 -0.1456
 5434W        W21908   8.325   3.560  11.766 -0.1141  0.0826 -0.0868
 5435W        W21909  16.724   4.715   0.008  0.1395 -0.0291 -0.0712
 5436W        W21910   8.078  16.046  11.548 -0.0197 -0.1266  0.4184
 5437W        W21911   3.191  16.233  13.985  0.0664  0.1924 -0.1404
 5438W        W21912  18.084   3.059  15.376  0.2766 -0.2126 -0.4962
 5439W        W21913  15.995  15.846   5.360 -0.0588 -0.2153  0.2501
 5440W        W21914   4.136  17.434   2.583  0.2254 -0.0266 -0.1956
 5441W        W21915   6.560   5.766  14.544  0.1590 -0.0216  0.0723
 5442W        W21916   7.338   9.484   1.341 -0.0234 -0.1633  0.1262
 5443W        W21917  10.368   5.871   4.701 -0.0361 -0.0191  0.1052
 5444W        W21918  17.816  10.119  12.984 -0.1226  0.0402  0.2618
 5445W        W21919   7.719   0.146  11.295 -0.1423  0.2262  0.0307
 5446W        W21920  16.149  15.217  15.479  0.2343 -0.0806 -0.2235
 5447W        W21921   6.368   4.690  15.087  0.1280 -0.0547  0.0963
 5448W        W21922   5.864  15.522  14.261  0.3529 -0.1835 -0.1193
 5449W        W21923   3.856  16.130   0.416  0.1313 -0.0318  0.0899
 5450W        W21924  16.438   8.865  15.513  0.0765 -0.0058  0.0080
 5451W        W21925   2.191   0.245  13.837  0.0185 -0.0531 -0.0449
 5452W        W21926  11.859  17.144  10.153 -0.4198 -0.1326  0.0318
 5453W        W21927  12.625   4.024   4.604 -0.0680 -0.1537 -0.3654
 5454W        W21928   4.099   2.113   1.949  0.1026 -0.1537 -0.1524
 5455W        W21929   5.372  16.360  11.596 -0.0935 -0.1316  0.0680
 5456W        W21930  16.299   8.322   4.693  0.0126 -0.1303  0.1582
 5457W        W21931   2.513   4.463  15.599 -0.0495  0.1354  0.1930
 5458W        W21932   9.540   6.610  15.500  0.1171 -0.2795 -0.2407
 5459W        W21933  14.429   1.489   0.804 -0.0651 -0.1098 -0.3881
 5460W        W21934   6.619   1.188  10.598 -0.1341  0.0346  0.0222
 5461W        W21935   4.415  16.134   0.219 -0.0462  0.0470  0.2240
 5462W        W21936   4.410   5.842  11.123 -0.2576  0.0760 -0.0222
 5463W        W21937  10.534   8.881  11.821  0.3197  0.0988  0.2589
 5464W        W21938   0.675   5.652  13.097  0.0640  0.4119  0.0124
 5465W        W21939   4.704  11.506  15.422  0.2630  0.0540  0.1132
 5466W        W21940  11.479  13.314  11.949 -0.1320 -0.0829  0.1055
 5467W        W21941   2.372   6.081   5.289  0.3001  0.0861 -0.1089
 5468W        W21942  14.871   8.739   2.975  0.2157  0.0575  0.0459
 5469W        W21943  12.980  17.284  12.723 -0.1714  0.0513  0.0192
 5470W        W21944  16.585  14.361   1.740  0.3446 -0.0683  0.0298
 5471W        W21945   0.903   8.866   3.174  0.0161  0.0312 -0.0187
 5472W        W21946   9.326   5.671   2.626 -0.0087  0.4130 -0.2378
 5473W        W21947   4.537   0.317   2.386 -0.0123  0.0363 -0.5040
 5474W        W21948  16.449   0.852   5.431  0.0591  0.3656  0.2113
 5475W        W21949   6.637  17.696   3.043 -0.3683  0.2655 -0.0384
 5476W        W21950   4.754  14.247  13.320 -0.0683  0.2974  0.1074
 5477W        W21951  17.132   1.203   0.338 -0.1173  0.0564 -0.0888
 5478W        W21952  16.871  17.436   5.802 -0.4303  0.0052  0.1481
 5479W        W21953  11.449   9.071   5.677 -0.1460 -0.0651 -0.0295
 5480W        W21954   0.545   7.702   1.439 -0.0947 -0.0730 -0.2711
 5481W        W21955  10.298  11.552  12.355 -0.2729 -0.1536  0.0299
 5482W        W21956   3.556   1.484  11.262  0.2349  0.2602  0.3081
 5483W        W21957   1.634   9.969  15.873 -0.0307  0.1640 -0.3204
 5484W        W21958  17.743  16.301  11.688  0.1066 -0.0509  0.0877
 5485W        W21959   4.350   8.456  13.664 -0.0654 -0.1420 -0.1636
 5486W        W21960   2.278   9.628  13.090  0.1530 -0.1583  0.1281
 5487W        W21961  18.184  15.831   2.847 -0.0561 -0.1256 -0.2580
 5488W        W21962  12.358   9.570  15.243 -0.0549  0.0704 -0.0585
 5489W        W21963   7.191   5.862   2.543 -0.3825  0.0495  0.1436
 5490W        W21964   6.682   0.366  13.694 -0.1730 -0.2685  0.0490
 5491W        W21965   0.153  12.896   4.677  0.0527 -0.1633  0.0834
 5492W        W21966  13.708   8.836  15.042 -0.0053 -0.0233  0.0497
 5493W        W21967  16.358   4.326   1.519  0.2148 -0.1719  0.2908
 5494W        W21968  12.954   3.772   3.745  0.1105  0.0625 -0.3586
 5495W        W21969   8.685   4.380   4.796  0.1681  0.0265  0.0962
 5496W        W21970  14.826   1.125  13.909  0.2183 -0.3319 -0.1479
 5497W        W21971   4.138   5.686   5.640 -0.0586 -0.0561 -0.1402
 5498W        W21972   6.819   7.950   3.529  0.1726  0.0075  0.3754
 5499W        W21973   6.861  12.198   2.781 -0.0553  0.1489 -0.2570
 5500W        W21974   0.258  11.030  14.019  0.1521  0.1077 -0.0297
 5501W        W21975  16.853   3.591   0.976  0.1772  0.0941  0.1366
 5502W        W21976   6.607   6.336  10.732  0.0670  0.2461 -0.0568
 5503W        W21977  17.112   4.270   3.795 -0.1943 -0.1216  0.1183
 5504W        W21978  10.833  10.766   1.078  0.1599  0.2700 -0.0258
 5505W        W21979  14.510   1.435  14.072 -0.0629  0.1199 -0.0571
 5506W        W21980   9.106  18.299  15.362  0.0283 -0.1287  0.3814
 5507W        W21981   7.969   2.761  12.639  0.2487 -0.2802  0.0471
 5508W        W21982   7.632   0.493   5.139  0.2299 -0.1722 -0.2375
 5509W        W21983  11.155  18.131  15.120  0.1193  0.0393 -0.0816
 5510W        W21984   5.594   7.298  15.935 -0.0468  0.0176  0.2059
 5511W        W21985   2.548   8.193   4.216 -0.0990  0.1676  0.2321
 5512W        W21986  12.085   7.577  13.388  0.1862 -0.2692 -0.1523
 5513W        W21987   9.788   5.499   2.659 -0.0559 -0.0694 -0.2138
 5514W        W21988  12.973   5.661   4.094  0.2257  0.1094  0.2341
 5515W        W21989   6.932  10.591  15.314  0.2322  0.1558 -0.2960
 5516W        W21990   2.597  15.618  11.406 -0.2302  0.0385 -0.0414
 5517W        W21991   1.676  10.741   3.874  0.0725  0.0465 -0.0138
 5518W        W21992  13.828   4.640   3.944 -0.0603 -0.1217 -0.2095
 5519W        W21993   4.925  18.076   2.719 -0.0369 -0.1983  0.2685
 5520W        W21994  13.719  10.585   0.557  0.0236 -0.2190 -0.1448
 5521W        W21995   0.782   1.104  11.120 -0.0361  0.2829  0.4110
 5522W        W21996  16.912  11.610   5.057 -0.0728 -0.2054 -0.0837
 5523W        W21997  13.132   7.424  11.651 -0.0219 -0.2252  0.0931
 5524W        W21998   8.215  18.284   3.135  0.0658  0.1001  0.1971
 5525W        W21999   6.046   1.706   5.053 -0.2390 -0.0710 -0.2785
 5526W        W22000   8.350  17.733   5.828  0.0995  0.2298 -0.0571
 5527W        W22001  14.162  15.301   2.906  0.3004  0.3486 -0.3265
 5528W        W22002   2.848   4.116   3.749 -0.1346  0.2113  0.0968
 5529W        W22003   0.985  16.402   4.544  0.1851  0.0782  0.1477
 5530W        W22004   3.380   9.535  15.381  0.1831  0.1734 -0.0927
 5531W        W22005  16.917   2.881  13.160 -0.0941  0.0511  0.1277
 5532W        W22006   6.948  15.057   1.655 -0.3005  0.0782  0.1029
 5533W        W22007  13.391   7.001   1.860 -0.0758 -0.1671 -0.1963
 5534W        W22008  12.162   5.639   4.782  0.2929 -0.1133  0.0069
 5535W        W22009  14.878  16.520   2.917  0.0048  0.1367 -0.1588
 5536W        W22010  15.145  12.986   4.651 -0.1825  0.1177  0.2196
 5537W        W22011  13.273   6.568  11.439 -0.1853  0.0564 -0.0007
 5538W        W22012  13.591  15.599   0.727 -0.2334  0.3044 -0.1716
 5539W        W22013   5.024   4.087  14.970 -0.1863 -0.0169  0.1283
 5540W        W22014   9.900   2.128   4.601  0.0854  0.0501  0.1038
 5541W        W22015   3.442  18.452   1.836  0.0472  0.2858 -0.0313
 5542W        W22016  10.904  10.323   0.651  0.1862  0.0135  0.1156
 5543W        W22017  18.308   4.400   2.445 -0.0337 -0.2320 -0.1182
 5544W        W22018   6.929  17.819  11.822 -0.0495 -0.0524 -0.1354
 5545W        W22019   7.413   2.159  15.790  0.0638  0.1241 -0.3552
 5546W        W22020  11.067   5.825   2.773 -0.0800 -0.0083 -0.1991
 5547W        W22021   0.855  16.688   4.931  0.1993  0.0199 -0.0782
 5548W        W22022  15.278  15.772  12.011  0.2317 -0.2614  0.1081
 5549W        W22023  15.958  10.068  13.315 -0.0562  0.0378 -0.2116
 5550W        W22024  13.350   3.247   2.050  0.0904  0.0398  0.0196
 5551W        W22025   2.998  17.178  11.413 -0.2637  0.2380  0.0763
 5552W        W22026  17.422  18.203  13.409 -0.2819 -0.0642  0.0465
 5553W        W22027   7.080   3.972   4.983 -0.0394  0.2528  0.2894
 5554W        W22028  11.437   8.376   5.016  0.0210 -0.1046 -0.1212
 5555W        W22029   8.488  14.413   5.613  0.1163  0.2136 -0.1361
 5556W        W22030  12.438  14.133  15.410 -0.0354 -0.0009  0.1034
 5557W        W22031  15.830   1.320  12.599  0.1146 -0.0567 -0.0104
 5558W        W22032   4.751   5.260  12.427 -0.0381  0.2007 -0.3121
 5559W        W22033  10.553  16.593  11.772  0.2324  0.0092  0.4456
 5560W        W22034  16.289   4.577   4.131 -0.0671 -0.0214  0.0178
 5561W        W22035  12.331  11.997  14.870  0.0773  0.0881 -0.1191
 5562W        W22036   3.150   2.197   2.230  0.1388  0.1827  0.1526
 5563W        W22037   9.964  13.404  15.513 -0.0691  0.1182 -0.0366
 5564W        W22038  15.585   9.926   3.641  0.0622  0.3497  0.0323
 5565W        W22039   3.704   6.371   0.574 -0.0368 -0.0209  0.1246
 5566W        W22040  11.004   4.909  14.634  0.2583  0.0056  0.2403
 5567W        W22041  11.440   8.838   5.240  0.2385 -0.1709 -0.0537
 5568W        W22042  18.361   0.020  11.940  0.1069  0.0308  0.2378
 5569W        W22043   5.474   7.152   0.797 -0.2020 -0.1285 -0.1229
 5570W        W22044   1.207  18.454   1.139  0.1286  0.0617  0.0307
 5571W        W22045  12.173  11.853  12.100  0.0002  0.0190 -0.1757
 5572W        W22046   1.386  17.067   0.785  0.0480 -0.1378  0.0715
 5573W        W22047  16.817   7.364   4.296  0.4112  0.0247  0.2061
 5574W        W22048   4.227   6.318  10.883 -0.1880 -0.1762  0.0027
 5575W        W22049   2.430   5.993   4.731  0.0722  0.3396 -0.1031
 5576W        W22050  18.234   1.541   3.872 -0.0000 -0.0620 -0.1651
 5577W        W22051  18.194   3.278   4.094  0.2097  0.1877  0.0518
 5578W        W22052   9.663   0.469   1.275  0.2215 -0.3818 -0.0093
 5579W        W22053   7.521  18.461   1.192  0.1030  0.1481  0.0824
 5580W        W22054   9.735  10.004  10.657  0.0460  0.2014  0.2473
 5581W        W22055   8.373   2.457  13.834  0.1937 -0.4651 -0.0899
 5582W        W22056   9.229   5.475  13.856 -0.0477  0.0558 -0.0638
 5583W        W22057  10.142   3.230  13.569  0.2440  0.2486 -0.1587
 5584W        W22058   7.482   9.812  14.605  0.1443  0.0208  0.0511
 5585W        W22059   3.168   8.493  14.533  0.0408  0.0107 -0.4079
 5586W        W22060   4.234   1.585   5.085  0.0004 -0.2930 -0.0003
 5587W        W22061  10.026   8.034   4.313 -0.0416 -0.2181 -0.2866
 5588W        W22062  18.252  10.615  14.163  0.0214 -0.2857  0.2338
 5589W        W22063   8.305   2.523  11.845 -0.0666  0.2459  0.1696
 5590W        W22064  11.179   5.394  11.147 -0.0923  0.1804 -0.0133
 5591W        W22065   0.066   2.164  11.846 -0.0053  0.2412 -0.0462
 5592W        W22066  16.348   2.584   2.036 -0.2270 -0.0950  0.1388
 5593W        W22067  10.753   9.033  15.017 -0.1104 -0.0245  0.3698
 5594W        W22068  10.261  11.839  15.098  0.1141 -0.0711  0.0892
 5595W        W22069  10.243   4.651  14.979 -0.0267 -0.1780 -0.2305
 5596W        W22070   3.413   6.840  10.665  0.0190 -0.0017 -0.3524
 5597W        W22071   5.343  12.548   2.954  0.4475 -0.1295  0.0794
 5598W        W22072  16.230   6.406   3.593 -0.0461 -0.2085  0.1766
 5599W        W22073   9.104  15.163   2.673 -0.1244 -0.1363  0.0080
 5600W        W22074   0.484   0.275  15.236 -0.1027  0.2966 -0.0601
 5601W        W22075   0.898  11.631   6.026 -0.0279  0.0769 -0.1505
 5602W        W22076   3.126   6.627   5.488  0.0859  0.1268 -0.0756
 5603W        W22077   6.481  12.950  14.171 -0.2321 -0.1344 -0.2074
 5604W        W22078  12.090   5.985   0.138  0.1599  0.1968 -0.1965
 5605W        W22079   3.103   6.137  12.364 -0.0568  0.0360 -0.0704
 5606W        W22080  17.462   1.438   2.038  0.0136 -0.1729 -0.0957
 5607W        W22081   5.639  13.206  11.919 -0.2516  0.0547 -0.1387
 5608W        W22082  12.686  12.318   5.167  0.0185  0.3072 -0.1477
 5609W        W22083   9.818  12.239   4.058  0.1947  0.2428  0.0388
 5610W        W22084   0.859  18.403   3.954  0.0215  0.1696 -0.2642
 5611W        W22085  12.656  13.656  14.402  0.0177 -0.1887 -0.0690
 5612W        W22086   2.546   0.367   1.124 -0.0655 -0.0063  0.0219
 5613W        W22087   0.546  10.982   2.609 -0.1035 -0.3870 -0.0838
 5614W        W22088   0.011  10.670   4.251  0.1348 -0.0785  0.0898
 5615W        W22089   2.600  18.128  11.141 -0.2382  0.2930  0.1100
 5616W        W22090   4.390   9.245  10.872 -0.1204 -0.0400  0.2115
 5617W        W22091   7.401   6.928   1.087  0.2124 -0.0822 -0.0110
 5618W        W22092   4.679  14.243  15.865 -0.0213 -0.0425  0.0623
 5619W        W22093   5.148   3.674   3.420  0.2942 -0.2048  0.1788
 5620W        W22094   4.315   7.005  12.902  0.1252  0.0586 -0.1235
 5621W        W22095   7.819  11.084  10.631  0.1605  0.2629 -0.1430
 5622W        W22096   2.140  13.936   5.335  0.0267  0.0090  0.0690
 5623W        W22097   4.159  14.412  12.633  0.1953 -0.0664  0.0618
 5624W        W22098   8.064   1.885  12.028 -0.1876 -0.1133  0.2134
 5625W        W22099   9.818   5.433   1.031 -0.0504 -0.0680 -0.2367
 5626W        W22100   0.986   8.878  15.212  0.1961 -0.0236 -0.1476
 5627W        W22101  15.106   1.680   2.340  0.1040 -0.1291  0.0340
 5628W        W22102  10.948  13.151  12.744 -0.1659 -0.1082 -0.0888
 5629W        W22103  15.555  15.302   3.975 -0.2920  0.3137 -0.0586
 5630W        W22104  15.293   4.692   2.607 -0.2920 -0.2482  0.0122
 5631W        W22105   6.155   5.631  15.667  0.1182 -0.3071 -0.2643
 5632W        W22106  15.475   0.342   3.530  0.0553  0.3086 -0.0983
 5633W        W22107   1.224  15.018  13.368  0.2352 -0.0122 -0.3929
 5634W        W22108  11.179   1.985  12.734 -0.3362 -0.1053  0.0155
 5635W        W22109   5.517   3.016  12.258  0.2362  0.0316 -0.0875
 5636W        W22110   4.336  17.891   0.870 -0.0014 -0.0487  0.0350
 5637W        W22111   3.998   4.697  11.952 -0.1495 -0.0923  0.3017
 5638W        W22112   4.281  16.380  12.438  0.3703 -0.1333 -0.0786
 5639W        W22113  10.154   3.884   5.335 -0.3216  0.0022  0.0664
 5640W        W22114  10.001   0.455  15.459 -0.0968  0.0690  0.0673
 5641W        W22115  15.160  14.224   5.270  0.1682  0.0287 -0.0110
 5642W        W22116  17.335   0.508  12.864 -0.0859 -0.1245  0.0406
 5643W        W22117  13.374  15.534   5.067 -0.1017 -0.0187  0.0864
 5644W        W22118   8.717   8.428   0.851 -0.0605 -0.2465  0.3186
 5645W        W22119   5.957  12.300   0.409  0.1338 -0.1457  0.0337
 5646W        W22120   1.985  15.501  14.265  0.1511 -0.0966  0.2235
 5647W        W22121   8.910   3.504   0.565  0.3605 -0.0286 -0.0522
 5648W        W22122  10.168   9.407  14.744  0.0253 -0.0145  0.1796
 5649W        W22123   4.368   0.468   2.911 -0.0563  0.1085 -0.2353
 5650W        W22124  10.038  15.820   4.445  0.1446 -0.5079  0.1932
 5651W        W22125  16.481   4.785  11.723 -0.1600  0.2647  0.2244
 5652W        W22126  16.556  13.581   3.071  0.2766  0.1054 -0.1759
 5653W        W22127   4.768   9.633  10.444 -0.0303  0.2183 -0.1043
 5654W        W22128   4.879   8.627  14.400 -0.1727  0.0204  0.0160
 5655W        W22129   7.452  13.121   1.833  0.1862  0.0476 -0.0281
 5656W        W22130  15.817   2.440   4.386 -0.1242  0.0129  0.0156
 5657W        W22131   8.986  14.449  13.116 -0.0140  0.0011  0.1212
 5658W        W22132  10.936  13.537  15.441  0.1074 -0.0744 -0.0935
 5659W        W22133  11.843   2.171  10.053  0.1602 -0.2042  0.1174
 5660W        W22134  10.915   4.342  11.655  0.0072 -0.1991  0.0307
 5661W        W22135   7.283   4.722   0.863 -0.1068 -0.2528 -0.0871
 5662W        W22136  12.101  14.863   2.692 -0.0300 -0.0115  0.0681
 5663W        W22137  17.026  10.683   6.182 -0.1507  0.0293  0.0162
 5664W        W22138   0.066   7.951  14.436 -0.0340  0.1966 -0.3148
 5665W        W22139   3.715   3.375   3.155  0.3038 -0.0907  0.1914
 5666W        W22140  11.126  12.002  12.129 -0.1696 -0.0481 -0.0379
 5667W        W22141   9.813  18.091   5.038  0.0822  0.2689  0.0638
 5668W        W22142  17.214  16.285   1.761 -0.4486 -0.2111 -0.2157
 5669W        W22143  13.627   6.461   1.038  0.0143 -0.2953  0.0102
 5670W        W22144   3.290   6.517   3.214 -0.1880  0.1167 -0.1802
 5671W        W22145   0.443  17.288   0.573  0.2040 -0.0041  0.0419
 5672W        W22146   4.426  16.951  13.595  0.0424 -0.1313  0.0247
 5673W        W22147  11.350  13.186   3.468 -0.0323 -0.1742  0.0499
 5674W        W22148  15.694   9.760  14.555  0.1247 -0.1103 -0.0721
 5675W        W22149  13.078   7.766  14.860 -0.1498  0.0282  0.1453
 5676W        W22150  14.597   4.408  11.834  0.2189  0.1353  0.0382
 5677W        W22151  11.739   7.815  12.120 -0.0546  0.0391 -0.1059
 5678W        W22152   0.925  11.024   0.191  0.0205 -0.1550  0.4207
 5679W        W22153   7.335   6.129  11.214 -0.2577 -0.2262  0.1473
 5680W        W22154   8.984  13.185   0.508 -0.3163  0.1930  0.0435
 5681W        W22155  13.477  15.649  14.832 -0.0744 -0.0230  0.2109
 5682W        W22156  15.480   6.835  15.683  0.0230 -0.0915  0.1080
 5683W        W22157   3.654  16.816   0.703 -0.2574  0.0737  0.0712
 5684W        W22158   0.787  17.525   3.561 -0.1828 -0.0509 -0.1311
 5685W        W22159   2.011   4.926   6.048 -0.0185 -0.0250 -0.2541
 5686W        W22160  12.657  10.479  11.298 -0.1220 -0.2544 -0.3502
 5687W        W22161  11.569  12.054  13.905  0.0903  0.1708  0.2066
 5688W        W22162   7.791  18.290  11.625  0.1349 -0.0766 -0.0239
 5689W        W22163   6.817   9.821   0.593  0.0429  0.2614  0.1422
 5690W        W22164  15.335   3.371  15.362 -0.2992 -0.1590  0.2016
 5691W        W22165   6.417  15.139   2.271 -0.0899  0.2364 -0.0635
 5692W        W22166  10.462   3.347   2.585 -0.2021 -0.1624  0.0897
 5693W        W22167   6.482   5.346   0.449  0.1992 -0.1858  0.0515
 5694W        W22168  10.693   3.701  12.204  0.0561 -0.3855  0.3572
 5695W        W22169   8.808  14.731   4.656  0.1313  0.0900  0.1707
 5696W        W22170   2.014   5.088  15.169  0.2096 -0.1615  0.0065
 5697W        W22171  13.206  18.405  12.459  0.4314  0.0514  0.0189
 5698W        W22172  18.046   5.979   4.185  0.0670  0.1068  0.0654
 5699W        W22173   3.142  11.510   1.706 -0.0068 -0.2872  0.1606
 5700W        W22174   6.262  12.814   4.195  0.0935 -0.2485 -0.2268
 5701W        W22175  13.628  11.218  11.870  0.0611 -0.1070 -0.3526
 5702W        W22176   3.935   0.309   4.309 -0.0042 -0.1292  0.2134
 5703W        W22177   0.029  11.053   1.439  0.1105 -0.0115  0.1382
 5704W        W22178  15.591   6.423   1.156  0.0876  0.1103 -0.2623
 5705W        W22179  16.628  10.755   4.966 -0.1517  0.1582  0.0234
 5706W        W22180   4.305  12.681   4.484  0.1154 -0.0294 -0.4692
 5707W        W22181   1.655  17.133  14.275 -0.1090 -0.1541 -0.2403
 5708W        W22182  10.825   5.448   0.629  0.0297  0.4283 -0.2776
 5709W        W22183   7.705  12.810  14.616 -0.1408 -0.1863  0.2450
 5710W        W22184  16.201   9.563  15.527  0.0738 -0.1004  0.1699
 5711W        W22185   8.844   5.973   4.561 -0.1873  0.2461 -0.0334
 5712W        W22186   9.247  15.980  10.999 -0.1476  0.1472 -0.0208
 5713W        W22187   4.679  15.532   5.210 -0.1061  0.1839 -0.1294
 5714W        W22188   0.190   1.249   0.666 -0.1640 -0.0395  0.2989
 5715W        W22189   6.123   8.924  15.102 -0.0930  0.0849 -0.2067
 5716W        W22190   9.978  10.989   5.624 -0.2765  0.1637 -0.0240
 5717W        W22191  12.157  16.847  12.098  0.0870 -0.2213  0.3884
 5718W        W22192   2.297   4.100   4.523  0.0671  0.0306 -0.3286
 5719W        W22193  17.924  17.900   3.213  0.1916  0.1376  0.2391
 5720W        W22194  16.999   4.438   3.148 -0.2681 -0.2199  0.0079
 5721W        W22195  18.049  17.215   1.517 -0.0884  0.1673  0.0104
 5722W        W22196  15.242   8.940  14.244  0.1372 -0.1969 -0.2696
 5723W        W22197   6.777  11.015   0.402 -0.2222  0.0953  0.1419
 5724W        W22198   7.906   0.331   9.467 -0.0573  0.1331  0.0082
 5725W        W22199   9.082   0.617  15.645  0.1285 -0.0486 -0.1539
 5726W        W22200   5.316   7.952  15.343  0.1356  0.1552  0.3890
 5727W        W22201  11.227   0.141  13.097  0.0615 -0.1071  0.0399
 5728W        W22202   6.500   6.480  13.326  0.4762 -0.0075  0.0966
 5729W        W22203   6.634  17.557  12.199 -0.0592 -0.0382  0.0192
 5730W        W22204  15.061   6.936  13.797 -0.0672  0.0739 -0.0195
 5731W        W22205   7.510  12.892  15.768  0.2405 -0.3481 -0.0510
 5732W        W22206   6.385  15.771   1.502  0.0768 -0.0729  0.1169
 5733W        W22207   7.377   1.230  14.161  0.1626 -0.1573  0.2856
 5734W        W22208   5.217   6.991  11.695  0.0119  0.1165  0.0127
 5735W        W22209  10.037  16.623   4.439 -0.0085 -0.3339 -0.1300
 5736W        W22210  13.026  10.772   3.950 -0.2220  0.1344  0.0319
 5737W        W22211   4.176  10.182   3.604 -0.0559  0.2606 -0.1183
 5738W        W22212  13.271  18.187   4.673  0.3578 -0.0107  0.0332
 5739W        W22213  10.462   2.811  13.643  0.0223 -0.0571  0.0536
 5740W        W22214   4.182   1.548   0.512 -0.0432 -0.0837  0.0934
 5741W        W22215   6.237   4.018   2.052  0.2375 -0.0744 -0.0827
 5742W        W22216   6.735   7.841  12.996 -0.0298 -0.0921 -0.2529
 5743W        W22217  16.980   4.137   2.392  0.0130 -0.0957 -0.1616
 5744W        W22218   0.089   5.834   0.925  0.1723  0.2796 -0.0823
 5745W        W22219  16.733   5.836   1.703  0.0478 -0.1572  0.2174
 5746W        W22220   4.687   5.868   1.151 -0.1170 -0.1419  0.1415
 5747W        W22221  18.070  12.742  12.587 -0.3421  0.0184  0.1570
 5748W        W22222   0.516   5.238   2.798  0.0848  0.1148 -0.0205
 5749W        W22223   1.103  12.361  15.325 -0.5500  0.0678 -0.1766
 5750W        W22224  13.140   7.212   0.061 -0.1028  0.0443  0.0127
 5751W        W22225   5.890  10.094  12.901  0.2371 -0.2024 -0.0189
 5752W        W22226   8.160   3.948   2.701  0.0964  0.2509  0.0935
 5753W        W22227  11.869  17.658   3.165  0.0987 -0.2180 -0.2168
 5754W        W22228   6.953   0.144  14.118 -0.1460 -0.0045 -0.0500
 5755W        W22229  10.757   7.002   2.444  0.0592  0.2739  0.1209
 5756W        W22230  15.311   7.735  15.953  0.1690 -0.0882  0.1026
 5757W        W22231  18.043   0.121   0.997 -0.3624  0.3285  0.1189
 5758W        W22232  15.793   0.330  12.233  0.3041  0.0495 -0.0316
 5759W        W22233   4.136  10.911  10.800 -0.2502 -0.1169 -0.3110
 5760W        W22234  14.441  13.153  14.267 -0.1875 -0.1146  0.0904
 5761W        W22235  15.767   6.651  11.977  0.1137 -0.1327  0.2964
 5762W        W22236   8.933  18.221  14.564 -0.0357 -0.0429  0.0604
 5763W        W22237  14.840  14.856   0.641 -0.3276 -0.0700  0.1918
 5764W        W22238  18.156   3.803  15.057  0.0653  0.1872  0.1955
 5765W        W22239  15.786   8.583   0.224  0.0524 -0.1883  0.2911
 5766W        W22240   3.730  17.758  11.837 -0.0104  0.2303 -0.0882
 5767W        W22241  16.032  14.177   3.546  0.0297 -0.2761  0.1817
 5768W        W22242   5.038   8.110  15.795  0.3136  0.0317 -0.1218
 5769W        W22243   5.923   7.946  14.652 -0.2684 -0.0085  0.0144
 5770W        W22244  14.792   1.137  11.540 -0.2596 -0.2073  0.0342
 5771W        W22245   4.433   3.719   1.479 -0.1242 -0.1791  0.1743
 5772W        W22246  11.427  14.727  14.477 -0.0804 -0.0199  0.0992
 5773W        W22247   0.064   9.064  15.443 -0.2975 -0.0013  0.0167
 5774W        W22248   3.631  10.664   1.629 -0.3543 -0.0446  0.2268
 5775W        W22249   8.256   9.256   0.094  0.1213 -0.3048 -0.0056
 5776W        W22250  10.300   4.025   0.676  0.0567 -0.0737 -0.2108
 5777W        W22251  14.397   5.524  14.049  0.1759  0.2827  0.1514
 5778W        W22252   6.915  14.848   3.355 -0.0843  0.0957 -0.3883
 5779W        W22253  17.233   9.235   1.105 -0.0254 -0.1855 -0.1287
 5780W        W22254  16.094   4.554  13.396  0.0811  0.1510  0.3051
 5781W        W22255   0.166   8.613   3.510  0.0871 -0.0566  0.0390
 5782W        W22256  17.257  18.449   3.310  0.0011  0.2191  0.0059
 5783W        W22257   7.624  11.634  10.733  0.0175 -0.0815 -0.0523
 5784W        W22258  14.269  12.407  12.042 -0.1571 -0.1376  0.1334
 5785W        W22259   3.974  15.970  14.611 -0.1522  0.0493  0.0435
 5786W        W22260   2.933  13.551  15.693  0.1324 -0.0997  0.1128
 5787W        W22261   5.514   2.076   3.052  0.2592 -0.2008 -0.3462
 5788W        W22262  13.775  13.441  12.642  0.0366  0.0761 -0.0216
 5789W        W22263   0.392   1.603  15.358  0.3541 -0.0437 -0.1874
 5790W        W22264   6.295  14.246   0.731  0.1635 -0.2269  0.0953
 5791W        W22265   2.709  12.560   0.767  0.0246  0.1498 -0.1466
 5792W        W22266  13.826  14.941   0.701  0.0416  0.4226  0.0761
 5793W        W22267   6.348  17.826   5.043  0.0272  0.1611  0.0811
 5794W        W22268  16.485  10.583   4.103 -0.3867 -0.2186  0.1699
 5795W        W22269   7.044  10.116  13.388  0.3517 -0.0573 -0.0273
 5796W        W22270  16.271   7.777   4.280 -0.0474 -0.0155  0.1054
 5797W        W22271   0.119   1.469  14.898  0.1700  0.1400  0.1285
 5798W        W22272  13.158  12.713   2.938  0.0672  0.3294 -0.1266
 5799W        W22273  12.911  10.642  14.657  0.1579  0.1979  0.1422
 5800W        W22274   5.840   5.267   1.557  0.0080 -0.0284 -0.0972
 5801W        W22275  16.492   8.259   1.007  0.2386 -0.1447  0.0653
 5802W        W22276   1.478  10.625  10.088  0.0912  0.0063  0.3242
 5803W        W22277  13.457   2.535   1.420  0.1341 -0.0379  0.2121
 5804W        W22278   0.459   7.921   0.253  0.1530  0.0874  0.0330
 5805W        W22279  11.972  12.488  15.184 -0.2587 -0.2863 -0.1423
 5806W        W22280   8.055   5.774   1.318 -0.1373 -0.0458 -0.1975
 5807W        W22281   1.360   7.168  15.438  0.1236  0.4237  0.0139
 5808W        W22282   1.399  11.225  15.728  0.1286 -0.1146  0.3766
 5809W        W22283  15.227  17.828   0.608 -0.0993 -0.2543 -0.0476
 5810W        W22284  15.247   6.440  11.985 -0.0529  0.0364 -0.0367
 5811W        W22285   1.467  11.680  15.552  0.1394 -0.1533 -0.1085
 5812W        W22286  16.059  16.375   0.581  0.2283 -0.1002  0.0247
 5813W        W22287  11.735  14.457  14.841 -0.0341  0.0731 -0.1424
 5814W        W22288  16.441   7.627   1.718  0.0709 -0.2139 -0.1786
 5815W        W22289  13.000  13.943  12.262  0.2201  0.3272  0.1751
 5816W        W22290   3.438  13.786  14.182 -0.0994 -0.3212 -0.0043
 5817W        W22291  16.322  12.854  14.173 -0.0669 -0.3209  0.0162
 5818W        W22292   0.568   2.389   4.733  0.1965 -0.2531  0.0617
 5819W        W22293  12.489  15.648   2.983 -0.1589 -0.0910  0.0345
 5820W        W22294  16.014  13.534   5.902  0.0152  0.0675 -0.1980
 5821W        W22295   9.334   3.591   1.734 -0.0909 -0.0412 -0.0220
 5822W        W22296   9.334  12.769   2.391 -0.0269  0.0143 -0.0870
 5823W        W22297  17.968  16.583  15.056  0.2131  0.0721 -0.2452
 5824W        W22298  15.905  17.049   4.236  0.1892 -0.0112  0.0429
 5825W        W22299   9.053   9.216  12.249 -0.1678  0.2197 -0.1055
 5826W        W22300   1.929  13.226   5.579 -0.0466 -0.3264  0.1366
 5827W        W22301   3.709  15.004  12.608  0.2018 -0.1348 -0.0755
 5828W        W22302  16.917   7.094   4.849 -0.0457  0.0721 -0.0663
 5829W        W22303  13.755  16.933  13.165 -0.0569  0.2106 -0.2086
 5830W        W22304   5.936   4.835   3.224 -0.0049 -0.1249  0.2238
 5831W        W22305   5.864  14.141   3.136 -0.0884 -0.2733  0.0660
 5832W        W22306   1.304  17.083  12.617  0.0590  0.1657  0.1091
 5833W        W22307  17.757   8.168  11.557 -0.1894 -0.1059 -0.3133
 5834W        W22308   0.823  17.975   2.890  0.2010 -0.1070 -0.0284
 5835W        W22309   7.586   7.430  11.952 -0.1718 -0.0549 -0.2347
 5836W        W22310   9.048   0.175   5.007 -0.2387  0.1421 -0.0115
 5837W        W22311   1.817  17.236  13.427 -0.0332  0.0677  0.2009
 5838W        W22312  15.893   3.952  13.714  0.1618  0.0760  0.1536
 5839W        W22313   0.632   7.843   5.079  0.2907 -0.0384  0.2025
 5840W        W22314   2.305   1.564  14.773 -0.0969  0.2032 -0.4003
 5841W        W22315   3.209  12.723  11.539 -0.0511 -0.0005  0.0428
 5842W        W22316   3.841   8.688  15.378 -0.0745  0.0937  0.0088
 5843W        W22317   4.991   1.250  15.711 -0.0099 -0.1063  0.2656
 5844W        W22318   5.584   1.023  14.128  0.0443 -0.3718 -0.0636
 5845W        W22319   1.649   5.803   2.341  0.2598  0.1410  0.2057
 5846W        W22320   5.084  17.045  14.745 -0.3357  0.2034 -0.1752
 5847W        W22321  16.090  17.803  14.569  0.0571 -0.1126 -0.0487
 5848W        W22322   0.022   0.110   0.729  0.1455 -0.0386  0.2306
 5849W        W22323   8.069   6.694   1.941  0.0294  0.0301  0.2144
 5850W        W22324   5.598  10.507  15.333  0.3751 -0.3568  0.1756
 5851W        W22325   1.068  13.111   1.086 -0.1006  0.0590 -0.0133
 5852W        W22326  12.959  12.606  14.813 -0.1777 -0.0388  0.2037
 5853W        W22327  16.815  10.812   3.560 -0.3176  0.0340 -0.1858
 5854W        W22328  16.874  15.342   1.645  0.1122  0.1620  0.0312
 5855W        W22329  16.636  14.451  12.782  0.1968  0.3079  0.1109
 5856W        W22330  12.550   3.449   2.068 -0.0247 -0.2230 -0.1894
 5857W        W22331  14.500   1.827   1.657  0.1421 -0.0929  0.1668
 5858W        W22332  15.139  16.847   5.340  0.1756  0.0902  0.1426
 5859W        W22333   2.035   6.172   1.105  0.0850 -0.1411  0.0331
 5860W        W22334   4.970  12.506   1.107 -0.2319  0.1939 -0.0531
 5861W        W22335   2.015   5.338   1.800  0.1809 -0.1002  0.2518
 5862W        W22336   2.357   7.555   3.302 -0.0219  0.0363 -0.2383
 5863W        W22337  13.771   8.909  14.023  0.0430  0.0970 -0.1496
 5864W        W22338   9.892   0.059   0.406  0.2664 -0.0276 -0.3063
 5865W        W22339   8.897   5.836  13.770  0.1495 -0.0395 -0.0809
 5866W        W22340  17.561   1.930   2.119  0.1460 -0.2251  0.0972
 5867W        W22341   6.952  18.393   2.038  0.1179  0.0399  0.0316
 5868W        W22342  17.437   9.537  15.953  0.0656  0.0817 -0.5895
 5869W        W22343  10.531   5.037  14.752  0.2348 -0.2211 -0.0036
 5870W        W22344   1.656   8.521  14.800  0.1539 -0.1735 -0.2439
 5871W        W22345  10.769  14.286   1.195  0.1140  0.2183  0.0471
 5872W        W22346   1.752  16.131  14.441 -0.1324 -0.0503  0.1925
 5873W        W22347   2.828  10.123  12.787 -0.0572  0.0635 -0.2215
 5874W        W22348   6.466   5.219   5.368  0.1006  0.0776  0.0331
 5875W        W22349  17.534   8.942  14.357 -0.0275  0.2010 -0.0184
 5876W        W22350   4.166   9.575  11.164  0.2114  0.0375  0.1597
 5877W        W22351  14.634   7.364   1.507 -0.0462  0.1558 -0.0507
 5878W        W22352  15.752   8.752   3.515  0.2554 -0.1690  0.0214
 5879W        W22353  15.016  13.737   2.126 -0.1099  0.1212 -0.0074
 5880W        W22354   6.027   9.286   4.303  0.0128  0.2426 -0.1094
 5881W        W22355   8.844   7.536  10.710  0.2520  0.1565 -0.0806
 5882W        W22356  15.201   6.907  15.191 -0.1598 -0.0161 -0.1695
 5883W        W22357   8.498  12.641  11.547 -0.2803 -0.0239 -0.1158
 5884W        W22358  10.321   0.651   3.674 -0.0360 -0.0077  0.2610
 5885W        W22359   8.392  12.567   1.973 -0.1754 -0.3176 -0.0528
 5886W        W22360   4.103  17.139  14.784  0.0325 -0.2584 -0.1525
 5887W        W22361  11.379   5.839   1.883 -0.0834  0.0315 -0.1399
 5888W        W22362  12.258  13.665  14.141 -0.0571 -0.0029  0.0347
 5889W        W22363  14.174  12.355   1.347 -0.0066  0.0891 -0.1083
 5890W        W22364  15.807   6.825  14.463  0.2965 -0.1073 -0.0732
 5891W        W22365  12.708   6.983   4.487 -0.1286 -0.1822 -0.1959
 5892W        W22366   2.956  13.374   1.835  0.2706 -0.2169  0.0655
 5893W        W22367   6.820  16.822   0.488 -0.1147 -0.0776 -0.1631
 5894W        W22368   6.539  11.167   1.523 -0.1811  0.2153  0.0030
 5895W        W22369  16.749   1.787  10.287  0.1171  0.3216 -0.2546
 5896W        W22370  16.279   0.498  12.124  0.2271 -0.0348  0.0259
 5897W        W22371   4.003  10.087   5.048  0.4046 -0.0623  0.1676
 5898W        W22372   3.411   8.651   4.525  0.1321 -0.1531  0.2455
 5899W        W22373   0.986  15.316   2.609 -0.0566 -0.2018  0.0998
 5900W        W22374  11.490   1.262   2.026  0.0874 -0.1285 -0.1972
 5901W        W22375   8.238  13.003  13.747  0.1516 -0.1928  0.2538
 5902W        W22376  11.858   1.775  11.430  0.3856  0.0145 -0.1604
 5903W        W22377   2.740   0.825   1.875 -0.1343  0.1540 -0.1018
 5904W        W22378   4.911  14.357  11.988 -0.0986  0.0890  0.0711
 5905W        W22379  14.122  13.769   4.366 -0.2765  0.0051 -0.1761
 5906W        W22380  14.905  14.577   1.127  0.0960  0.1415 -0.1773
 5907W        W22381   7.437   0.759  15.934 -0.0480  0.1680  0.0124
 5908W        W22382  16.424  15.461   1.261 -0.0171  0.0136 -0.1298
 5909W        W22383  18.053  16.415   2.407  0.3140  0.0002  0.1425
 5910W        W22384  13.174   6.105   4.010 -0.1615 -0.1273 -0.1051
 5911W        W22385   0.096   9.628  15.091  0.0503  0.2194 -0.0309
 5912W        W22386   1.532   9.304   1.860 -0.3052 -0.0459  0.2718
 5913W        W22387   3.287  16.428   5.922 -0.0357 -0.0186 -0.1293
 5914W        W22388   9.890  10.888   0.869 -0.0783 -0.0323 -0.0495
 5915W        W22389   8.918   9.366  12.776 -0.0551  0.0545 -0.2735
 5916W        W22390  11.527   5.023  13.377 -0.0829  0.0764 -0.2471
 5917W        W22391   6.158   6.861   1.522 -0.1412  0.0053 -0.1151
 5918W        W22392  17.752   8.147   2.102 -0.1541 -0.0845  0.0449
 5919W        W22393   5.789   6.460   3.862  0.0596  0.0907  0.2049
 5920W        W22394  16.218   8.769  10.832  0.0412 -0.1072 -0.0421
 5921W        W22395   5.472   6.324  13.993  0.0204 -0.1828 -0.1314
 5922W        W22396   0.792  10.279   4.533  0.3394 -0.0220 -0.4004
 5923W        W22397  12.205   9.541  14.241  0.0359  0.2618  0.0052
 5924W        W22398   7.580   1.185   0.234  0.2084  0.1342  0.2114
 5925W        W22399   7.921   5.282  11.143 -0.3017 -0.0704  0.1191
 5926W        W22400  17.133  16.965  11.948 -0.0703 -0.0663 -0.2861
 5927W        W22401  16.896   7.849  13.451  0.0955 -0.1514  0.1111
 5928W        W22402  17.445   8.862   0.787  0.1595  0.1929  0.0816
 5929W        W22403   6.048   6.501  11.680 -0.3489  0.0005  0.1809
 5930W        W22404  18.359   8.818  11.147  0.0790  0.2739 -0.1254
 5931W        W22405  13.377   8.313  12.968  0.0919  0.1013  0.1382
 5932W        W22406   2.175   9.615  14.974  0.0991 -0.0278  0.0735
 5933W        W22407   4.791   0.336  11.857 -0.0574  0.1748 -0.3829
 5934W        W22408   6.640  12.023   3.199 -0.1476  0.1823 -0.0233
 5935W        W22409  17.659   1.959  14.014 -0.2162  0.0580 -0.1135
 5936W        W22410  11.750  14.558  12.018 -0.0960 -0.2803 -0.1628
 5937W        W22411  11.369   6.315  14.744 -0.0454 -0.4905  0.2662
 5938W        W22412  15.595   9.612  13.608  0.1578 -0.2633 -0.2309
 5939W        W22413  13.541   7.524   0.545 -0.0530 -0.0081 -0.1827
 5940W        W22414   8.994   4.583  11.619 -0.4830 -0.0841  0.1452
 5941W        W22415  11.984   3.430   4.389  0.2298  0.1773  0.1728
 5942W        W22416  16.403   3.849   0.744 -0.0571 -0.3178  0.0956
 5943W        W22417   9.292   2.861  15.411 -0.1471  0.0950  0.0281
 5944W        W22418  13.236   7.918  11.731 -0.1370  0.1475 -0.2241
 5945W        W22419   4.983   3.645   0.715  0.0563  0.0422 -0.1522
 5946W        W22420  12.231   8.953   1.282  0.0693  0.2087  0.2460
 5947W        W22421  10.144   0.285  15.023 -0.0511 -0.1009  0.1330
 5948W        W22422  11.142   2.419   4.325 -0.2526 -0.1308  0.2729
 5949W        W22423  16.684   7.920  12.988 -0.0551  0.2411 -0.0703
 5950W        W22424   4.449  10.648  15.733  0.0929 -0.2699  0.4143
 5951W        W22425  16.989  11.617  12.246  0.0619 -0.0780  0.1092
 5952W        W22426  12.656   2.548   0.392 -0.1962 -0.1066 -0.4128
 5953W        W22427   4.639   6.999  12.520 -0.0939 -0.1061  0.2051
 5954W        W22428   1.430   4.171   1.449  0.3104  0.1641 -0.1397
 5955W        W22429   9.144  10.399  15.008 -0.1540 -0.1891 -0.0047
 5956W        W22430  15.976   6.696  15.613  0.2805 -0.2479 -0.2033
 5957W        W22431  14.794  17.351   1.572 -0.0064 -0.2848 -0.2678
 5958W        W22432  15.303   7.255   3.861 -0.3979 -0.0258 -0.0733
 5959W        W22433  10.762  13.009   3.094 -0.3103  0.1361  0.0750
 5960W        W22434  14.121   3.010  12.492 -0.3967  0.1961 -0.3862
 5961W        W22435   4.517  10.721   3.054 -0.1310 -0.4834  0.0704
 5962W        W22436   8.230   9.671  14.240  0.0189 -0.0087  0.1527
 5963W        W22437  15.787  15.531  12.135 -0.3748  0.0606 -0.2548
 5964W        W22438  11.872  13.879   2.999 -0.0311  0.4266 -0.1328
 5965W        W22439  16.427   9.722   2.980  0.3321  0.2350 -0.1107
 5966W        W22440   3.039   6.680   2.645 -0.2228  0.1541  0.1566
 5967W        W22441   8.336   9.679   5.312 -0.4357  0.2556  0.1492
 5968W        W22442   4.429   0.724  13.629  0.1382 -0.2395 -0.2287
 5969W        W22443  10.346  12.002  15.644  0.0564 -0.1553 -0.1067
 5970W        W22444  10.994  18.415   4.048  0.2406 -0.1511  0.0158
 5971W        W22445   6.445   3.214   2.894  0.1094 -0.1152  0.1974
 5972W        W22446   4.007  14.474  11.919  0.3456 -0.4834 -0.0434
 5973W        W22447  15.382   9.402  11.265  0.2954 -0.1639  0.1525
 5974W        W22448   6.751   6.698  12.866  0.0017 -0.1549  0.0359
 5975W        W22449   1.565   6.789  14.984 -0.2108  0.2749  0.0699
 5976W        W22450   1.431  14.362   5.904 -0.0865 -0.0954 -0.0210
 5977W        W22451   6.859   3.222   3.591  0.0647  0.1729 -0.2604
 5978W        W22452  16.103   4.861   3.559  0.1567  0.0537 -0.2078
 5979W        W22453  11.178  10.819  14.844  0.2172  0.3714  0.3228
 5980W        W22454  10.087   6.240  11.394 -0.0161  0.0097 -0.0706
 5981W        W22455   7.341   2.931  11.607 -0.0838 -0.0583  0.1754
 5982W        W22456  14.955   7.101   4.472  0.1255  0.1142  0.1652
 5983W        W22457  13.779   6.712  11.494  0.2612  0.0936  0.2324
 5984W        W22458   1.261   1.934   5.896 -0.1346  0.4564  0.1124
 5985W        W22459  16.634  15.219  12.394 -0.0305 -0.0109  0.0120
 5986W        W22460   8.709   7.385   1.676  0.1184  0.2022  0.0982
 5987W        W22461   3.928   1.617  12.334  0.3344 -0.1415  0.0346
 5988W        W22462  16.158   1.548   2.363 -0.1175  0.0296  0.1679
 5989W        W22463  11.022   2.186  11.588 -0.1466 -0.2655  0.1694
 5990W        W22464   2.863   6.262   0.746  0.0119 -0.1493  0.1486
 5991W        W22465  17.449   7.342  12.148  0.0077 -0.4747  0.1255
 5992W        W22466  12.076   8.002   1.319  0.0373 -0.1914  0.2879
 5993W        W22467  12.976  17.038   0.086 -0.2155 -0.0636 -0.1146
 5994W        W22468   9.352   4.428  12.917  0.1346  0.0101 -0.1849
 5995W        W22469   0.360  17.326   3.687  0.2012  0.2011  0.3534
 5996W        W22470   6.099   8.191  11.634  0.1083  0.2528  0.0525
 5997W        W22471  13.317   4.498   3.743  0.0679 -0.2445  0.1090
 5998W        W22472   1.671  13.182  14.429 -0.0630  0.0146 -0.0370
 5999W        W22473   8.717   5.358  13.790  0.2040  0.0159 -0.1151
 6000W        W22474  12.546  10.688   2.303 -0.2724 -0.4108  0.0821
 6001W        W22475  15.122   8.946  15.927 -0.0131 -0.4679 -0.2752
 6002W        W22476   7.995  18.322  12.974 -0.2708  0.2590  0.3608
 6003W        W22477   6.521   1.793   1.928  0.2466  0.2639  0.4130
 6004W        W22478  10.710   1.617   0.844  0.0049  0.4153 -0.3934
 6005W        W22479   9.428  18.449  13.129  0.5851  0.0364  0.0052
 6006W        W22480   4.313   6.789  11.195  0.1116  0.7158  0.1139
 6007W        W22481   3.819   6.290  14.368 -0.2326 -0.5365 -0.3368
 6008W        W22482  15.994   5.126  14.359 -0.0968  0.1473  0.2905
 6009W        W22483  16.531   3.732   3.076 -0.3463  0.0384  0.2219
 6010W        W22484   7.255  12.536   4.205  0.0615  0.3675 -0.0687
 6011W        W22485  13.356  15.260  14.424 -0.2169 -0.3442 -0.1526
 6012W        W22486  17.043   0.349   5.911  0.0295 -0.1056 -0.0864
 6013W        W22487   3.478   3.769   2.335  0.2608  0.1245 -0.0746
 6014W        W22488   0.706  18.402   1.293  0.0867  0.1967  0.0331
 6015W        W22489  17.940   3.657  12.681  0.0770 -0.1622 -0.1677
 6016W        W22490   3.076  17.268   1.844 -0.1015  0.0725  0.1309
 6017W        W22491  11.114  10.217   4.330  0.2378  0.1356  0.0247
 6018W        W22492  10.052   8.736  11.118  0.2056 -0.1675  0.2163
 6019W        W22493  14.023  18.119  15.053 -0.1598  0.1197 -0.1846
 6020W        W22494  15.832  10.476  15.460 -0.1184 -0.3578  0.4223
 6021W        W22495   4.102  14.444  14.537  0.2153  0.2110 -0.1796
 6022W        W22496  15.107  12.847   2.794  0.1079 -0.1092 -0.0342
 6023W        W22497  14.413   1.341   3.492 -0.0583 -0.2104 -0.0499
 6024W        W22498  14.066   0.353   2.672  0.2045 -0.0296  0.2258
 6025W        W22499   2.323   4.014  11.152  0.0496 -0.3872  0.0982
 6026W        W22500   8.104  11.088   1.134  0.1416 -0.1413 -0.2634
 6027W        W22501  11.266   4.635   5.121  0.2691  0.2109  0.0065
 6028W        W22502  14.824   3.897   3.730 -0.1149 -0.1121  0.1740
 6029W        W22503   5.461  17.324  11.389  0.1933 -0.2452 -0.1855
 6030W        W22504  18.160   5.828   4.918  0.2492  0.0478 -0.2087
 6031W        W22505   3.586   4.784   0.459  0.0233  0.3297  0.0240
 6032W        W22506  12.683   5.191  14.380 -0.0375  0.0863  0.1141
 6033W        W22507   1.065   3.163   3.776 -0.3061 -0.3892  0.1371
 6034W        W22508  14.221   4.556  14.097  0.1829  0.0545  0.0886
 6035W        W22509  13.448   3.768   2.460 -0.3442 -0.0061  0.0160
 6036W        W22510   0.860  10.717   3.087  0.6322 -0.2160  0.2392
 6037W        W22511  13.883   3.420   3.109 -0.0811 -0.1690  0.1358
 6038W        W22512   9.723   4.697   1.776  0.0859  0.2139 -0.3413
 6039W        W22513   7.289   3.543  10.614 -0.3230 -0.2138 -0.2596
 6040W        W22514  17.905  11.738   3.606 -0.4915  0.1395 -0.0250
 6041W        W22515  17.325   7.154   0.690 -0.2014 -0.1620  0.0026
 6042W        W22516  13.566  13.334  14.129  0.0527 -0.0640 -0.0874
 6043W        W22517   0.653  16.388   1.966 -0.0877  0.0951  0.3783
 6044W        W22518  15.105   1.033   5.083 -0.1732 -0.0099 -0.0904
 6045W        W22519  14.196  15.272   5.594  0.0237 -0.0136 -0.2830
 6046W        W22520   4.413  14.172  12.282  0.3779 -0.1328  0.1508
 6047W        W22521  10.890  17.883  10.805 -0.1685 -0.0928  0.0361
 6048W        W22522   5.821  14.388  12.386  0.0060 -0.3222  0.2480
 6049W        W22523   0.454   3.621   4.078 -0.0541 -0.1763 -0.0188
 6050W        W22524  18.385   1.666  15.377 -0.0032 -0.2659  0.1308
 6051W        W22525  17.501  12.087  13.143 -0.0215 -0.1117  0.4161
 6052W        W22526  10.220  15.800   0.408 -0.0171  0.1261 -0.0039
 6053W        W22527  15.794  15.869  13.117 -0.2583 -0.0725 -0.3024
 6054W        W22528  18.263   1.481  15.829  0.0730  0.4660  0.2740
 6055W        W22529   9.070   7.039   5.415 -0.2338 -0.0612  0.1106
 6056W        W22530   3.102   6.167   2.859  0.0005 -0.1310 -0.2858
 6057W        W22531   9.185  12.854   0.173 -0.3342 -0.4260 -0.2439
 6058W        W22532   4.410  17.510  13.712 -0.0272  0.0462 -0.0239
 6059W        W22533  15.498  14.663   0.234 -0.2760  0.3992 -0.1915
 6060W        W22534   4.742  13.953  14.047 -0.1651 -0.3997 -0.2896
 6061W        W22535   7.574  14.954  14.178 -0.2962  0.0185 -0.3114
 6062W        W22536   8.841   2.337   4.498  0.1570  0.2908 -0.1027
 6063W        W22537  10.768   6.021   4.444  0.1177 -0.1903  0.0750
 6064W        W22538   9.567  16.196  11.569  0.0316  0.0301 -0.0551
 6065W        W22539   8.679   4.321   0.123  0.0660  0.1113 -0.1421
 6066W        W22540  16.205  11.036   0.648 -0.3955 -0.2614 -0.0653
 6067W        W22541  15.471   1.817   1.606 -0.1383  0.0430  0.0397
 6068W        W22542   2.465  15.510  15.933 -0.0779 -0.1015  0.1409
 6069W        W22543   5.471  15.886  11.740  0.1637 -0.0510 -0.1010
 6070W        W22544  11.386  16.087   2.158 -0.0707  0.0827 -0.0033
 6071W        W22545  17.911  15.949  13.062  0.0084  0.0399  0.1695
 6072W        W22546   9.589  10.157   0.726 -0.0273 -0.2764 -0.0932
 6073W        W22547   4.857  12.153   0.476 -0.0113 -0.1117 -0.0003
 6074W        W22548   0.082  15.759   2.015  0.1712 -0.2848  0.2114
 6075W        W22549   9.646  11.001  12.891  0.1668  0.0705 -0.3976
 6076W        W22550   0.997   6.242   4.989  0.0007 -0.0362 -0.2952
 6077W        W22551  10.891  10.329   3.127 -0.3339  0.0818  0.2534
 6078W        W22552   4.878   5.349   3.237  0.0118  0.1494  0.1211
 6079W        W22553   3.092   3.931  12.404 -0.0685 -0.2162  0.0747
 6080W        W22554   5.600   5.916  12.357  0.2024 -0.0425 -0.2736
 6081W        W22555   9.278   9.734  14.371  0.1090 -0.1991  0.3787
 6082W        W22556   0.263   6.754  13.880 -0.2456  0.2633 -0.3253
 6083W        W22557   5.661   4.776   1.327  0.2221 -0.0565 -0.0275
 6084W        W22558  17.771  12.383  11.521  0.0526  0.2177 -0.0211
 6085W        W22559  15.918   1.666  12.185  0.2240  0.0073 -0.1829
 6086W        W22560   6.750  10.457   3.971 -0.0124  0.1369 -0.0634
 6087W        W22561   5.753   6.566  12.785 -0.2188 -0.1955 -0.2225
 6088W        W22562  18.028   3.126   2.089  0.3166  0.1318  0.3139
 6089W        W22563   4.132   4.614   1.671 -0.3337  0.3557 -0.1916
 6090W        W22564   6.098  14.257   3.545  0.0802 -0.2821  0.2708
 6091W        W22565  12.627   3.245  12.015 -0.1127  0.1509 -0.1132
 6092W        W22566   5.158  14.777  14.165  0.1646  0.2155 -0.2945
 6093W        W22567  16.895   7.891  15.356  0.0727  0.1805  0.3053
 6094W        W22568   6.845   2.864  11.904 -0.3794  0.0938 -0.0356
 6095W        W22569   2.242   2.519  12.836 -0.3430 -0.0434  0.1369
 6096W        W22570   4.605   7.821   5.664  0.1158  0.1667  0.1253
 6097W        W22571  11.782   8.974  10.865 -0.0484  0.3199  0.2812
 6098W        W22572  10.577   5.357  13.811  0.0221  0.2060 -0.0101
 6099W        W22573   9.057   1.298  12.063  0.2623  0.2294 -0.0107
 6100W        W22574  16.272   9.055  10.430 -0.0430  0.0060  0.3903
 6101W        W22575  13.518  15.562  15.383 -0.2316 -0.0951 -0.1603
 6102W        W22576  12.824  17.183  14.159  0.0092 -0.0693  0.2413
 6103W        W22577  16.815   9.512  15.342  0.0380 -0.1957 -0.0248
 6104W        W22578  11.182   8.584   3.913 -0.2385  0.0628  0.1593
 6105W        W22579  16.281   6.723  14.737 -0.3547 -0.0326 -0.0342
 6106W        W22580  11.469  11.287  11.610 -0.2397 -0.2265  0.4107
 6107W        W22581   3.935  17.313   4.676  0.3723  0.2888 -0.1727
 6108W        W22582   9.720   1.299   0.851 -0.1113  0.0979 -0.0991
 6109W        W22583   8.272   7.044  15.385 -0.3241 -0.1333  0.0338
 6110W        W22584  14.308   7.864  13.785 -0.0410 -0.1404 -0.0573
 6111W        W22585  13.285   7.733   4.870 -0.0915 -0.1706  0.1224
 6112W        W22586  17.896  18.192  15.129 -0.3302  0.4325 -0.0720
 6113W        W22587  12.671   9.520  12.696 -0.1047 -0.3199  0.3373
 6114W        W22588   7.509   3.379   3.086  0.0615 -0.2138  0.0200
 6115W        W22589   8.109  18.320  10.820 -0.2882  0.1260 -0.2809
 6116W        W22590   5.836  15.861  12.221 -0.0036  0.3331  0.3880
 6117W        W22591  14.099   0.591   3.643  0.2728 -0.0143 -0.0024
 6118W        W22592  14.633  12.810  12.912  0.0097 -0.2163 -0.0821
 6119W        W22593  10.132   3.696  13.397  0.1330  0.1454  0.1555
 6120W        W22594  15.423  13.583  15.352  0.1861 -0.1229 -0.0610
 6121W        W22595   8.709  18.116   3.911 -0.0303 -0.1826  0.2225
 6122W        W22596   3.304   8.966  13.804  0.1327  0.0054  0.0396
 6123W        W22597  17.023   0.453  10.892 -0.0363  0.1612 -0.1052
 6124W        W22598   5.831   4.272  14.444  0.0725 -0.1670  0.3520
 6125W        W22599  12.313   9.927  15.710 -0.1667 -0.2055 -0.1840
 6126W        W22600  10.341  15.018   0.352  0.0637 -0.0107 -0.2022
 6127W        W22601  15.995  16.306  14.919 -0.0071 -0.2552  0.2084
 6128W        W22602   1.517  17.937   2.848 -0.1588 -0.1703 -0.1670
 6129W        W22603   2.326  17.843  14.606  0.2502  0.0703  0.1958
 6130W        W22604   1.284  17.708  15.567 -0.0253  0.0643  0.1014
 6131W        W22605   5.819  10.540   0.674  0.1105 -0.1581  0.0722
 6132W        W22606   4.755  11.102   2.131 -0.0646 -0.0452  0.2101
 6133W        W22607  12.431   0.296   4.059 -0.3220  0.0790 -0.1932
 6134W        W22608   3.363   5.721  12.284 -0.0347 -0.0990  0.0530
 6135W        W22609   5.271   0.972   2.277  0.0991 -0.1894 -0.5818
 6136W        W22610   7.497  16.028  14.296  0.1659  0.0411 -0.2371
 6137W        W22611   4.097  12.105  13.866  0.0408  0.0000 -0.0761
 6138W        W22612   2.970  18.283   3.394  0.0273 -0.0230  0.3015
 6139W        W22613   3.992   0.458   3.387  0.1163  0.1224 -0.0007
 6140W        W22614  17.722   2.522  10.171 -0.0420 -0.0201  0.2769
 6141W        W22615   9.704  13.284   5.688  0.1173 -0.1558  0.1961
 6142W        W22616   8.326   7.561   1.385 -0.2830 -0.0416 -0.0988
 6143W        W22617  13.745   5.399   5.010  0.0714  0.2042  0.2963
 6144W        W22618  10.239  12.093  12.365  0.3517 -0.1794 -0.0078
 6145W        W22619   7.890  17.730  15.035  0.3323 -0.2217 -0.2416
 6146W        W22620   4.987  16.847   5.927  0.0282 -0.3495  0.0336
 6147W        W22621   6.086   7.250   3.310  0.1333  0.2040  0.0858
 6148W        W22622   3.907  14.862   5.669 -0.0914  0.0843 -0.0647
 6149W        W22623  14.892   8.820   0.522 -0.2040  0.3031 -0.0918
 6150W        W22624  17.039   6.092   1.993  0.0690 -0.0166 -0.0392
 6151W        W22625  18.474  18.121   3.994 -0.1378  0.3255 -0.2717
 6152W        W22626   0.910   7.839  14.285 -0.0409 -0.1557  0.0444
 6153W        W22627   8.244  13.920   3.843 -0.0143 -0.0098  0.0725
 6154W        W22628   0.516   9.744   1.132 -0.0599  0.2296 -0.1194
 6155W        W22629   7.832   9.706   3.656  0.1179  0.0705 -0.0618
 6156W        W22630   9.089   5.773   0.363 -0.1320  0.1674 -0.0936
 6157W        W22631  14.895  14.618   5.039 -0.0767 -0.0671 -0.0107
 6158W        W22632   4.343   0.170   0.531  0.2771  0.5051  0.2069
 6159W        W22633   6.129  13.129   1.448 -0.0258  0.5163 -0.2197
 6160W        W22634   4.400  12.191   2.400 -0.0471  0.0085 -0.3342
 6161W        W22635   7.417  17.896   4.978  0.0401  0.2767  0.2492
 6162W        W22636   9.611   9.142   3.851  0.1543  0.0264  0.2046
 6163W        W22637  13.950   3.113   1.870  0.1258  0.0696  0.2988
 6164W        W22638  11.006  13.961   1.897  0.4969  0.0893 -0.2601
 6165W        W22639  11.527   7.666  15.896 -0.1253  0.3443  0.0284
 6166W        W22640  10.411  14.961  12.608  0.0329  0.0477 -0.2203
 6167W        W22641  16.390   3.791   0.185 -0.0355  0.0191 -0.0351
 6168W        W22642   5.103   1.743   0.969 -0.1054 -0.0233  0.0074
 6169W        W22643  11.850   8.071  13.569  0.3410  0.0485  0.2187
 6170W        W22644  16.722  10.332  10.881 -0.2012  0.2143  0.1207
 6171W        W22645   6.625  14.421   3.212  0.1371  0.0048  0.2042
 6172W        W22646  17.957  10.766   0.183  0.0024  0.1185  0.0246
 6173W        W22647  12.983  13.110   1.125 -0.0296 -0.5954  0.1462
 6174W        W22648   9.770   6.390   2.975  0.3770 -0.2708 -0.1043
 6175W        W22649   5.118   2.919   4.013  0.0516  0.0172  0.1815
 6176W        W22650  11.168  11.441  12.027 -0.0374  0.0243  0.0348
 6177W        W22651   6.241   8.789   0.930  0.0622 -0.3157 -0.0859
 6178W        W22652  14.100   9.085   2.563 -0.0150  0.0268  0.1708
 6179W        W22653  12.195   4.572   2.059  0.0289 -0.1040 -0.0467
 6180W        W22654  17.760  15.165   0.069 -0.1523 -0.0070 -0.3086
 6181W        W22655  14.491   4.713  12.269 -0.2593 -0.3260 -0.1610
 6182W        W22656  15.553  16.008   5.109 -0.1562 -0.0946  0.1475
 6183W        W22657   3.306   3.652   4.974  0.1340 -0.1544 -0.0558
 6184W        W22658   4.481   8.350  14.239  0.1506  0.1872 -0.0658
 6185W        W22659  14.486   5.078   5.801  0.3102  0.1717  0.2335
 6186W        W22660  10.312   7.582   0.280  0.2651 -0.1481  0.0448
 6187W        W22661  13.245  17.943  13.781  0.0849 -0.1550  0.2978
 6188W        W22662   7.259   3.603  13.042 -0.2302  0.2502 -0.1525
 6189W        W22663  11.880   4.185  13.271  0.3421 -0.2117 -0.3215
 6190W        W22664  17.760  11.061  12.082 -0.0115 -0.1131 -0.1943
 6191W        W22665   5.655   2.968   4.027 -0.0186 -0.3642  0.0154
 6192W        W22666  17.735  14.097   5.510  0.0075  0.1260  0.0470
 6193W        W22667   4.525  14.473  14.801 -0.0945 -0.2085 -0.0969
 6194W        W22668   4.963  12.913  11.232  0.2659 -0.0435 -0.2002
 6195W        W22669   3.508   2.764  11.486 -0.2575 -0.0446 -0.0878
 6196W        W22670   8.724  12.905  14.935  0.1336  0.0235 -0.0966
 6197W        W22671  16.776   8.324   0.077 -0.1287 -0.3163  0.1353
 6198W        W22672  18.104   6.948  14.532 -0.1978  0.0347 -0.2420
 6199W        W22673  10.835   5.558  15.870 -0.2675 -0.3150 -0.0958
 6200W        W22674  16.805   3.676  15.002 -0.2385  0.3732 -0.2957
 6201W        W22675  15.083   0.575  15.841 -0.0415 -0.4306 -0.0538
 6202W        W22676   0.751  15.278  14.235  0.1737 -0.1142  0.0486
 6203W        W22677   8.537   8.070  11.373  0.0132  0.0125 -0.0684
 6204W        W22678   0.465  14.763  11.379 -0.3463  0.2223 -0.1085
 6205W        W22679  13.150   7.941   5.361 -0.4874 -0.2193 -0.0998
 6206W        W22680   4.401   0.803   2.346  0.1659 -0.0440 -0.2032
 6207W        W22681   5.967  14.623   3.824  0.0040 -0.1478  0.0694
 6208W        W22682  16.241   5.676   1.620  0.3070  0.1059 -0.1173
 6209W        W22683  14.165  13.246   4.288  0.0119  0.1147  0.2016
 6210W        W22684  14.367   2.386   0.785 -0.1158  0.4725  0.1532
 6211W        W22685   5.965  15.236  12.143  0.0195 -0.0636  0.3317
 6212W        W22686  14.285   5.493  10.877  0.3178  0.2579  0.1448
 6213W        W22687  10.317   3.059  14.101  0.0234 -0.1180  0.1743
 6214W        W22688   7.012   7.072   9.989 -0.0303  0.0601  0.0496
 6215W        W22689   5.708  18.431   1.534  0.0192 -0.0278 -0.2569
 6216W        W22690   2.604   8.836   4.950 -0.2347 -0.1461 -0.0066
 6217W        W22691   0.999  13.847   3.504  0.1556  0.6542  0.1589
 6218W        W22692  10.369  11.304  14.022 -0.0528 -0.3433 -0.0827
 6219W        W22693  10.646   3.898   0.992 -0.0821 -0.0001  0.0586
 6220W        W22694   5.842  14.906  12.803 -0.0077  0.1327  0.2964
 6221W        W22695  14.411  13.569   3.060  0.2640  0.1951 -0.1643
 6222W        W22696   3.388  15.153   4.775  0.1076  0.1007 -0.0681
 6223W        W22697   0.136   6.195  11.675  0.2251  0.0131 -0.4015
 6224W        W22698  16.825   0.635   3.841 -0.1882  0.0373  0.1499
 6225W        W22699  15.261   9.000   4.276  0.2469  0.0077 -0.2322
 6226W        W22700   6.058  12.320  13.814  0.2605 -0.2043  0.0183
 6227W        W22701  16.774  10.462  11.892  0.3131 -0.2419 -0.0385
 6228W        W22702   1.810   4.152  11.866 -0.1138 -0.0320  0.4265
 6229W        W22703  16.037  15.931   1.478  0.1049 -0.0076 -0.0107
 6230W        W22704   1.589  15.596  14.502 -0.1178  0.2749 -0.0677
 6231W        W22705   6.994  16.654   3.009  0.2694  0.1725 -0.2855
 6232W        W22706  12.574  13.309   0.653  0.0775 -0.0363  0.0085
 6233W        W22707   5.886   2.521   2.370  0.0117 -0.0615  0.1446
 6234W        W22708   3.159  18.434   2.295 -0.2152  0.0694  0.0699
 6235W        W22709  11.865   5.053  12.941  0.2466 -0.0781  0.1674
 6236W        W22710   1.127   8.013  13.251 -0.0158  0.0149 -0.2378
 6237W        W22711  14.710  13.373  11.544  0.1187  0.2038  0.0683
 6238W        W22712   2.584  14.541   2.138 -0.0345 -0.0584 -0.2054
 6239W        W22713  14.186   5.318   1.420 -0.0946  0.3029  0.0530
 6240W        W22714   9.129   0.901   4.799 -0.0156  0.0413 -0.0222
 6241W        W22715   9.821   6.205  13.448  0.0953  0.1556  0.1867
 6242W        W22716   9.125   2.996  11.470  0.0520 -0.0836 -0.0022
 6243W        W22717   5.371  16.607   2.123  0.0828 -0.1847  0.2827
 6244W        W22718  16.261   5.555  12.581 -0.2290 -0.1589  0.3676
 6245W        W22719  10.315  11.911  14.571 -0.3156  0.0370 -0.2920
 6246W        W22720  13.987  11.005   5.116  0.2616 -0.1766  0.0917
 6247W        W22721   4.577   4.972  14.729 -0.2881  0.0960  0.1103
 6248W        W22722  14.634  12.645   1.054 -0.0265 -0.2356  0.3338
 6249W        W22723   5.401  12.093  15.116 -0.1086 -0.2876  0.3596
 6250W        W22724   3.049  17.608   4.278 -0.1386  0.0660  0.0682
 6251W        W22725   1.933   6.546   1.463 -0.0572  0.0472 -0.0556
 6252W        W22726   8.326   8.070   3.617  0.3373  0.2167  0.0369
 6253W        W22727   9.898   0.735  12.901 -0.0452 -0.0508 -0.2077
 6254W        W22728   6.067  14.941   5.073  0.3462  0.2394  0.2697
 6255W        W22729   5.982   8.627  15.544  0.0096 -0.0839 -0.1555
 6256W        W22730   3.081   5.394   0.365 -0.3796 -0.1026 -0.0199
 6257W        W22731   1.457  16.380  15.250 -0.2840 -0.1927 -0.0183
 6258W        W22732   8.879  15.573  13.200 -0.0653 -0.0195  0.1723
 6259W        W22733  17.300  16.801   3.931 -0.0955  0.5033  0.1117
 6260W        W22734  10.216  15.702   5.515  0.2128 -0.3038  0.0737
 6261W        W22735   2.026   0.747   4.676  0.0422  0.0745 -0.4779
 6262W        W22736  17.306   9.767   1.184 -0.1303 -0.1235 -0.2140
 6263W        W22737  17.349   5.369   0.613 -0.2466  0.0183 -0.1258
 6264W        W22738   9.352  10.160   4.607  0.0856  0.0653 -0.0476
 6265W        W22739   3.519  18.202   1.372  0.0784 -0.0592 -0.1840
 6266W        W22740  16.597  16.668  11.206 -0.1836  0.0465 -0.1403
 6267W        W22741   3.585  13.735  12.064  0.0464  0.2600  0.0870
 6268W        W22742  18.431   4.503  12.912 -0.0751  0.1837 -0.0482
 6269W        W22743  12.236  17.125   4.214  0.2265 -0.1418  0.1280
 6270W        W22744   2.082   4.219   3.644 -0.4321  0.2254  0.2223
 6271W        W22745   3.979   9.318   1.294  0.1600 -0.4568 -0.0432
 6272W        W22746   7.439   9.935  13.698  0.2371 -0.0951  0.1863
 6273W        W22747  12.747  11.370  12.810  0.0782 -0.2193 -0.5723
 6274W        W22748  11.582  17.426   3.596  0.0922 -0.2615 -0.1366
 6275W        W22749  14.626   7.501   2.494  0.1819  0.0561 -0.0030
 6276W        W22750   3.776  13.929   0.716  0.0797 -0.2124  0.3061
 6277W        W22751   5.915  12.614  14.277  0.0889  0.0424 -0.0971
 6278W        W22752  10.897   7.672  11.517 -0.0499  0.0103 -0.2742
 6279W        W22753   6.589  11.286   0.874  0.2776 -0.2163  0.1502
 6280W        W22754  16.052  18.389   0.339 -0.2011 -0.1726 -0.0992
 6281W        W22755   5.663   8.960  15.353  0.3934  0.0769 -0.0748
 6282W        W22756   1.271   8.701  15.595 -0.1630 -0.1085  0.2682
 6283W        W22757  11.417  12.706  11.338  0.1285 -0.0001  0.1753
 6284W        W22758   1.830  16.545  14.913 -0.3056  0.0210 -0.2297
 6285W        W22759   8.432   6.780   2.884  0.1965 -0.2222 -0.3390
 6286W        W22760   3.027   7.416   4.155 -0.0942  0.0986 -0.2250
 6287W        W22761   6.490   7.071   5.193  0.1139  0.1332  0.0975
 6288W        W22762   8.421  10.131   1.062  0.2785 -0.1690  0.0416
 6289W        W22763  17.638  10.533  15.892  0.0574  0.0447  0.1254
 6290W        W22764  18.197  10.340  12.206  0.2782 -0.3895  0.0923
 6291W        W22765   2.707   7.426  15.848  0.2440  0.1247 -0.0623
 6292W        W22766   2.311  11.955  12.897  0.0904 -0.1715  0.3717
 6293W        W22767   4.886  17.916  12.513 -0.0891 -0.0759  0.1095
 6294W        W22768   6.498  17.767  14.676 -0.0375 -0.0107 -0.0901
 6295W        W22769   3.294  17.287  13.512  0.1030 -0.0615  0.1790
 6296W        W22770   8.759  11.273  12.934 -0.2617 -0.2741 -0.3536
 6297W        W22771  10.966  18.338  13.755 -0.6026  0.1307 -0.2883
 6298W        W22772   9.614  13.746  15.557  0.0313 -0.2457 -0.3293
 6299W        W22773  14.115  17.652  14.945  0.1652 -0.1699 -0.3060
 6300W        W22774   3.676  12.158   1.891 -0.0887  0.0268 -0.1975
 6301W        W22775  14.147   7.562   1.497  0.0710  0.0149  0.1027
 6302W        W22776   9.339  12.879  12.806 -0.2855  0.0823 -0.2795
 6303W        W22777   8.155  14.834  13.003 -0.1719  0.0529  0.0914
 6304W        W22778   2.575   8.420  12.634  0.0253 -0.1123 -0.0850
 6305W        W22779   8.445   7.316  11.476  0.2610  0.0596 -0.0576
 6306W        W22780  15.066  13.736  13.225  0.0029 -0.0092  0.4259
 6307W        W22781   3.708   9.413  11.242  0.0912 -0.1799 -0.0887
 6308W        W22782  11.227  14.327  14.802  0.0755 -0.1904  0.0615
 6309W        W22783  16.965   0.930  13.801 -0.0564  0.1235 -0.2079
 6310W        W22784  17.678  12.278   5.489 -0.0466 -0.1307  0.1328
 6311W        W22785  14.209  16.930   5.732  0.2417 -0.0255 -0.3378
 6312W        W22786  17.631   7.604   3.345  0.0278  0.1761  0.0276
 6313W        W22787   0.359   5.562   3.142  0.0739 -0.1681  0.4022
 6314W        W22788  13.978  12.011   4.870 -0.0860  0.3161 -0.2541
 6315W        W22789  17.280  10.955   2.632 -0.2233  0.0111  0.2690
 6316W        W22790  15.419  15.520   2.946  0.0910 -0.2300  0.1017
 6317W        W22791  10.947   3.982   1.893 -0.2972 -0.0042  0.0111
 6318W        W22792  17.962  12.395  15.739  0.3666  0.1055 -0.0502
 6319W        W22793  16.693   9.766  15.883 -0.0197 -0.0812  0.1533
 6320W        W22794  13.650   8.125   4.027  0.0867  0.1644  0.0904
 6321W        W22795  15.455  12.064   0.917  0.1188 -0.0958  0.0768
 6322W        W22796   3.710  10.511  14.775 -0.0561  0.2619 -0.0532
 6323W        W22797  15.348   2.988  12.046  0.1923  0.0873  0.0969
 6324W        W22798   8.210   9.720   2.407 -0.1278  0.1359 -0.0547
 6325W        W22799   7.753   7.300  12.818 -0.1993  0.0729  0.0824
 6326W        W22800  12.717  16.338  11.587 -0.1016  0.0352  0.1566
 6327W        W22801   6.972   0.561   4.135 -0.1794  0.0939  0.1209
 6328W        W22802  14.181  10.197   5.147 -0.0243 -0.0182  0.2224
 6329W        W22803   2.831   0.894  14.856 -0.0782 -0.0214 -0.2137
 6330W        W22804  12.004  17.147   5.626 -0.0381  0.1178  0.0165
 6331W        W22805   6.509   5.608  13.198 -0.1974 -0.1164 -0.1645
 6332W        W22806   9.049  16.804   5.041 -0.2374 -0.1854 -0.1697
 6333W        W22807   8.223   7.661   1.878  0.3712 -0.1360  0.3791
 6334W        W22808  16.304   6.577  15.206  0.1436 -0.3480 -0.4623
 6335W        W22809  10.765   5.053   0.268 -0.3668 -0.0311  0.2520
 6336W        W22810   4.617   1.395   0.298  0.0833 -0.0437 -0.4004
 6337W        W22811  17.645   2.726   1.402  0.0304  0.0194  0.1185
 6338W        W22812   5.603  10.527   5.009 -0.2928 -0.0812 -0.2545
 6339W        W22813   2.504   6.362   1.071 -0.2110  0.2467  0.1021
 6340W        W22814  16.073  13.748   3.301 -0.0730 -0.1013 -0.0472
 6341W        W22815  14.230   9.553   5.388  0.0267  0.0892  0.0871
 6342W        W22816   4.803   6.784  11.913  0.0395 -0.1258  0.0365
 6343W        W22817   6.196   2.652  15.842 -0.3342 -0.0727 -0.4475
 6344W        W22818   7.826   0.403  10.826 -0.0932  0.0427  0.0187
 6345W        W22819  13.855   0.891   4.991 -0.0073  0.0554  0.0233
 6346W        W22820   1.186   0.990   3.227  0.1268  0.2208  0.2486
 6347W        W22821  11.161  10.070   4.827  0.3471  0.1449  0.1722
 6348W        W22822  17.973   0.028   3.857 -0.0290 -0.0301  0.3326
 6349W        W22823   1.482   9.929  12.621 -0.3543 -0.2934  0.0474
 6350W        W22824   4.354  15.517  11.153  0.0377 -0.1128  0.2671
 6351W        W22825  11.847   6.719   4.563 -0.2181  0.2232 -0.0083
 6352W        W22826   3.924   7.002   4.030  0.2775 -0.2454 -0.1192
 6353W        W22827   1.977   3.053   3.638  0.2826  0.0250 -0.0613
 6354W        W22828   3.952  16.449  15.481 -0.2858  0.3322  0.0453
 6355W        W22829  14.007   6.799  15.226 -0.0137 -0.2692 -0.1191
 6356W        W22830   7.965   8.205  15.175  0.1404  0.1444  0.1916
 6357W        W22831  17.460  12.273   4.397  0.1471 -0.1239  0.0067
 6358W        W22832   8.342  17.026  11.757  0.2169  0.0327  0.1940
 6359W        W22833   7.189  17.535  13.656  0.0251  0.1167 -0.2755
 6360W        W22834   1.387  16.493   1.689 -0.0468 -0.1789  0.0234
 6361W        W22835   9.841   2.667  12.938  0.0983  0.3832  0.0563
 6362W        W22836   5.629   4.414   3.270 -0.0781  0.3944  0.3593
 6363W        W22837  15.577   0.455  15.919 -0.3024 -0.1303 -0.3584
 6364W        W22838   1.901   8.344   4.054  0.1921 -0.1541 -0.2430
 6365W        W22839   7.624   9.467   3.227  0.1579  0.0553 -0.0023
 6366W        W22840  15.538   5.922   2.372  0.1266  0.1854  0.0156
 6367W        W22841   0.565   7.896   1.922  0.1557 -0.1209 -0.1403
 6368W        W22842   4.660  10.333  11.812 -0.3273  0.0872  0.2785
 6369W        W22843   5.695   0.566   4.598  0.0973 -0.0518  0.0549
 6370W        W22844  14.232   1.664   2.580  0.0437  0.2184 -0.1757
 6371W        W22845   9.875   2.910   4.726  0.3736 -0.2681  0.1067
 6372W        W22846  12.425  13.077   4.560 -0.1194  0.0250  0.0002
 6373W        W22847   2.525   8.465   4.666 -0.0478 -0.0819  0.1588
 6374W        W22848  17.392   8.798   1.339 -0.4407  0.0293 -0.1073
 6375W        W22849   2.846  18.227   2.789  0.1592 -0.1468 -0.0518
 6376W        W22850  12.708   2.086  15.168  0.3289 -0.1726  0.3608
 6377W        W22851  14.580   6.183   3.567  0.0281 -0.0607 -0.2466
 6378W        W22852  16.743   0.017  11.062 -0.0451  0.2909  0.0143
 6379W        W22853   6.441   5.093  13.401 -0.4151  0.4857 -0.0532
 6380W        W22854   1.847   7.353  12.353  0.0075 -0.2607  0.2791
 6381W        W22855   1.569  12.275   0.299  0.1198 -0.1169 -0.1516
 6382W        W22856  15.812   7.035   4.168 -0.1799 -0.0294  0.2667
 6383W        W22857  13.892   6.996   0.280 -0.0087  0.2247  0.1474
 6384W        W22858   7.907  13.256  14.164  0.1631 -0.0769  0.2605
 6385W        W22859   5.264   2.085   0.573  0.1354 -0.1612 -0.0899
 6386W        W22860   6.685  18.357   4.296 -0.0271  0.0928  0.3017
 6387W        W22861   4.752   4.311  15.370 -0.2446 -0.2382  0.0385
 6388W        W22862   4.330   4.973  11.656  0.1112 -0.4209 -0.3459
 6389W        W22863  12.619  13.493  14.836  0.1681 -0.0253  0.0456
 6390W        W22864   4.161   3.731  12.008  0.1355  0.0130  0.2553
 6391W        W22865  16.494   5.493   6.134 -0.1487 -0.1253 -0.4338
 6392W        W22866   0.858  15.829  11.091 -0.2988  0.0736 -0.1737
 6393W        W22867   6.847  15.459  11.256  0.0349  0.1465  0.2518
 6394W        W22868   0.790   0.040  12.819  0.0145  0.2886  0.3171
 6395W        W22869  14.654  17.324  13.100 -0.0038  0.0229  0.0643
 6396W        W22870   1.363   7.866  11.162 -0.2376  0.4206  0.2032
 6397W        W22871  16.581  13.925   3.416  0.1401  0.1508  0.0297
 6398W        W22872  12.399  11.667  13.884 -0.2814  0.0018 -0.1124
 6399W        W22873  14.646   6.071  12.402  0.0917  0.0583 -0.0096
 6400W        W22874   6.117   3.571  14.850  0.3500  0.1144  0.0515
 6401W        W22875  11.373   1.840  10.756  0.2889 -0.0143 -0.2564
 6402W        W22876   6.471   0.354   2.696 -0.0148 -0.0965 -0.1855
 6403W        W22877   1.624  16.597   0.837  0.5233 -0.0583 -0.0807
 6404W        W22878   5.042  16.071  10.819 -0.0294  0.0032 -0.2382
 6405W        W22879  12.133  14.323  13.307  0.0231  0.0524  0.1818
 6406W        W22880  16.293  16.918   3.675  0.0937 -0.0767  0.2039
 6407W        W22881  12.930  12.632  13.625  0.0016 -0.2303 -0.3626
 6408W        W22882  11.392   9.876   3.688  0.2138 -0.5675 -0.1415
 6409W        W22883   9.750   8.341  11.405 -0.4327  0.1422 -0.0469
 6410W        W22884   8.330   4.150   6.075  0.0964 -0.2080  0.3201
 6411W        W22885   4.570  13.142   4.600 -0.1601  0.3403  0.1187
 6412W        W22886   3.045   3.691   4.527 -0.0166  0.0086 -0.1763
 6413W        W22887  10.929  15.404   1.189  0.2238 -0.0174  0.1425
 6414W        W22888   5.856  15.945  14.020 -0.3430 -0.0583 -0.1173
 6415W        W22889  13.881   1.197  13.154 -0.0932  0.2334  0.2119
 6416W        W22890   7.902   9.150  13.371 -0.0586  0.3122  0.0328
 6417W        W22891  10.038   8.347  13.982  0.1431 -0.0535 -0.1565
 6418W        W22892  15.838   8.292   1.595  0.3060  0.1845  0.0199
 6419W        W22893   6.738   3.011   0.432 -0.1795 -0.0780  0.2478
 6420W        W22894  11.816  14.126   2.542 -0.0975  0.1215  0.0318
 6421W        W22895  14.479  12.515  11.577 -0.1965 -0.0949 -0.0173
 6422W        W22896   0.958   0.038   2.755 -0.1174 -0.4240 -0.0291
 6423W        W22897   0.912   2.266  15.166 -0.1955 -0.1673 -0.2696
 6424W        W22898   1.643   6.129  15.592  0.0958 -0.2241  0.1712
 6425W        W22899   9.994  17.663   2.088  0.1005  0.0160  0.1915
 6426W        W22900   9.952   6.608   2.040  0.0203 -0.3126  0.1100
 6427W        W22901  13.944  11.225   3.337 -0.3600  0.0720  0.1467
 6428W        W22902   2.101   6.400  12.693 -0.2360 -0.0042 -0.0002
 6429W        W22903   4.359  16.035   4.510  0.0874  0.0996 -0.2326
 6430W        W22904  16.644  12.392   0.303 -0.2949 -0.1357  0.0187
 6431W        W22905   2.510  13.550   1.681 -0.1398 -0.3278  0.2381
 6432W        W22906   2.641  16.807  11.554  0.0746  0.1020 -0.0060
 6433W        W22907  17.962   1.194   0.098 -0.3485 -0.2885  0.0815
 6434W        W22908  13.854   0.445  11.035 -0.1435  0.0605  0.1705
 6435W        W22909  14.160  13.157  12.490  0.2543 -0.0242  0.0931
 6436W        W22910  10.477   3.110  15.581 -0.1924 -0.1728 -0.0296
 6437W        W22911   1.870   9.679   4.471  0.0981 -0.1069 -0.0016
 6438W        W22912   8.119   0.271   3.853  0.2652 -0.5274  0.2394
 6439W        W22913   8.642  17.418   1.828  0.4090 -0.1724  0.0659
 6440W        W22914   6.293  16.406  12.836 -0.0982  0.3397 -0.0382
 6441W        W22915   1.694   2.068  13.465  0.0113  0.0122 -0.0155
 6442W        W22916  14.278   8.370   2.352 -0.2352 -0.1895  0.1795
 6443W        W22917  16.368  17.652  11.352 -0.0821  0.1596 -0.0153
 6444W        W22918   9.695   2.447   0.341  0.0748  0.0580  0.3837
 6445W        W22919   9.796   2.139  12.903 -0.0906  0.0680  0.1235
 6446W        W22920  18.328   9.992   1.293 -0.0641  0.2027  0.0147
 6447W        W22921  17.939  12.140   4.614  0.1382 -0.2502  0.2014
 6448W        W22922  13.785   7.665   2.758  0.1750 -0.1198  0.0109
 6449W        W22923  16.777  12.254   1.289  0.4565  0.0406 -0.1735
 6450W        W22924   7.282  12.872  11.989 -0.0097 -0.0237  0.1678
 6451W        W22925   7.288   1.146  13.699  0.1996 -0.1226 -0.0133
 6452W        W22926   1.036  13.769  10.684 -0.3880  0.2448  0.0699
 6453W        W22927  16.993  14.997   0.468  0.0807  0.0259  0.2638
 6454W        W22928   5.146  10.592   4.797  0.0536  0.1507  0.2544
 6455W        W22929  14.905  10.045   2.409 -0.1075  0.1531  0.2553
 6456W        W22930   6.833  18.036   1.005  0.1406  0.1010  0.1211
 6457W        W22931  12.716  14.157   0.018 -0.0603 -0.3846  0.2442
 6458W        W22932  17.405  16.712  15.643  0.2416 -0.1002  0.0381
 6459W        W22933   3.750  18.253   2.717  0.2061 -0.1289  0.0538
 6460W        W22934   7.048  11.106   5.779 -0.3157  0.1373  0.2641
 6461W        W22935   9.778   3.771   2.549 -0.0427  0.0383 -0.1956
 6462W        W22936  18.318  18.301  11.350  0.1751 -0.0418 -0.3699
 6463W        W22937  16.723   3.549  11.660  0.2290  0.3225  0.1064
 6464W        W22938   1.659  10.067   0.721 -0.0161 -0.0755 -0.1391
 6465W        W22939   6.069   6.990  14.152 -0.2676 -0.2373 -0.4588
 6466W        W22940   7.687   1.017  10.728 -0.1062 -0.2957  0.1037
 6467W        W22941   6.668  18.337  14.669  0.0809  0.1218  0.1164
 6468W        W22942   2.849   0.037   1.929 -0.1559 -0.0467 -0.1379
 6469W        W22943   4.244   9.428   3.784  0.1817  0.2482  0.0618
 6470W        W22944   1.498   3.705   3.449  0.2080  0.0532 -0.0850
 6471W        W22945   0.224   6.219  14.001  0.3172 -0.0346 -0.0151
 6472W        W22946   4.342   1.075   5.054  0.3356  0.0102  0.4309
 6473W        W22947   8.137   6.384  13.968  0.1921  0.2119  0.0491
 6474W        W22948   3.471  15.291   0.698 -0.1431 -0.0652 -0.1526
 6475W        W22949  12.471  11.861   3.492 -0.0345 -0.2064 -0.4073
 6476W        W22950  10.086   0.791  10.550  0.1102 -0.0490  0.1256
 6477W        W22951   8.569   0.826   5.063  0.0205  0.1869 -0.4233
 6478W        W22952   4.968  16.975  15.281 -0.0204 -0.0601  0.1899
 6479W        W22953  13.801  18.277  12.421  0.1354 -0.2970  0.1405
 6480W        W22954  10.181  10.262  13.895  0.0402 -0.0821  0.0997
 6481W        W22955   8.059   3.802   1.472 -0.2116  0.1026  0.0291
 6482W        W22956   7.621   4.758   2.663 -0.0356 -0.0632 -0.2338
 6483W        W22957   4.536   2.378  14.616 -0.1865  0.1246  0.1392
 6484W        W22958   7.639   9.761  13.276 -0.2055 -0.0543  0.0960
 6485W        W22959  13.198  18.011  12.093 -0.0656  0.4109  0.1057
 6486W        W22960   0.868   1.482   1.676  0.2373 -0.0460 -0.1951
 6487W        W22961   9.752  12.050   5.018 -0.2133 -0.0765 -0.0385
 6488W        W22962  12.593  10.125   2.330 -0.1220  0.0579  0.1166
 6489W        W22963  16.187   0.181  15.034 -0.1309  0.1713 -0.1512
 6490W        W22964   1.457  10.994   4.634 -0.3683  0.2337  0.1321
 6491W        W22965  17.481  11.419  11.312 -0.0748 -0.0084  0.1506
 6492W        W22966  14.562   8.720  15.335 -0.0105 -0.2740  0.3858
 6493W        W22967  13.972  13.155   1.369  0.1044  0.1338 -0.0979
 6494W        W22968   5.662   9.876  13.370  0.0852 -0.0373 -0.0026
 6495W        W22969  15.708  12.095   2.407 -0.1780  0.1636 -0.0886
 6496W        W22970  11.991  16.432  15.617  0.0576  0.1473 -0.1017
 6497W        W22971  16.587  18.465   1.362 -0.0713  0.2928 -0.2198
 6498W        W22972  11.971   5.729   1.177  0.4156 -0.0478  0.2244
 6499W        W22973   0.157   1.757  11.419  0.2146 -0.0047 -0.2346
 6500W        W22974   9.448   5.866  13.646 -0.1292 -0.0067  0.3755
 6501W        W22975  15.403   2.589   4.193 -0.0416 -0.3869  0.0569
 6502W        W22976   0.333   5.155   1.538  0.0356  0.1345  0.0787
 6503W        W22977   5.198   0.254  15.634  0.0746 -0.0065 -0.0844
 6504W        W22978   9.800   9.534  14.422  0.1492 -0.1371  0.2024
 6505W        W22979  15.749  15.780   0.011 -0.1120  0.1152 -0.3360
 6506W        W22980  10.593   0.705  12.424  0.3088 -0.3365  0.3496
 6507W        W22981   7.987  17.992  14.515  0.1012 -0.0500 -0.0019
 6508W        W22982   8.287   4.809  11.271 -0.0583 -0.0621  0.0045
 6509W        W22983   5.126   5.503  11.470 -0.0726  0.4669  0.5282
 6510W        W22984   2.260   2.959   4.027  0.1432  0.2474 -0.0690
 6511W        W22985   3.738   0.337  15.853 -0.0076  0.0638  0.1487
 6512W        W22986  10.893   0.404  12.093 -0.3429  0.2447 -0.0663
 6513W        W22987   6.572  11.266   2.402 -0.2500  0.3442  0.1836
 6514W        W22988  10.746   9.620   2.354 -0.1547  0.2378  0.0244
 6515W        W22989  16.285  15.514  15.953 -0.2625 -0.3449  0.2179
 6516W        W22990   8.715   4.030   2.629 -0.0560  0.0210  0.1334
 6517W        W22991   2.992  15.515   0.711  0.0062  0.1741  0.1657
 6518W        W22992   1.428  15.507   2.609 -0.2667 -0.2487 -0.3664
 6519W        W22993   0.001   7.535  12.140  0.1401  0.0948 -0.4389
 6520W        W22994  13.612  10.767  13.353 -0.1507 -0.2192 -0.0505
 6521W        W22995   8.334  13.372   3.340  0.1103 -0.0919 -0.0973
 6522W        W22996   6.014   4.129   4.207 -0.1413  0.1966 -0.4080
 6523W        W22997  13.209  17.105  15.618 -0.2595 -0.3288  0.0335
 6524W        W22998  13.269   1.135   2.685 -0.0666  0.0764 -0.1429
 6525W        W22999  13.545  14.295   4.972 -0.1504 -0.1001  0.1079
 6526W        W23000   7.390   9.175   3.686  0.2588  0.1137  0.0588
 6527W        W23001   3.505  10.444  14.335 -0.1328  0.0929 -0.2217
 6528W        W23002  11.748  10.238   6.359  0.0845  0.0132  0.0939
 6529W        W23003  15.859   7.771   5.213 -0.0680  0.1338 -0.0695
 6530W        W23004   9.506   6.543  14.421 -0.4421 -0.1563 -0.0344
 6531W        W23005  13.258   0.476   3.481 -0.2211 -0.1349 -0.1752
 6532W        W23006   8.579   2.955  13.318  0.2319  0.1903 -0.0894
 6533W        W23007   6.948   7.257   4.392 -0.0296 -0.0367 -0.1433
 6534W        W23008  12.516   4.720  13.752 -0.1692 -0.1166 -0.1643
 6535W        W23009  15.625   5.309  11.914 -0.1457 -0.1636 -0.1152
 6536W        W23010   7.172  17.615  12.183 -0.1046 -0.0007 -0.0137
 6537W        W23011   1.461   7.871   1.490  0.1328 -0.4485 -0.3985
 6538W        W23012   5.973  15.103   3.670  0.2721  0.0872 -0.0623
 6539W        W23013   3.686  16.964  13.687  0.3449  0.0676 -0.0703
 6540W        W23014   7.863   6.198  11.254  0.0142 -0.1525  0.0269
 6541W        W23015   3.100  14.509  13.456  0.1630  0.1083 -0.2408
 6542W        W23016  10.484   9.882  14.754  0.4248  0.1883 -0.0966
 6543W        W23017   4.032   8.919   0.928 -0.1251 -0.2216 -0.2184
 6544W        W23018  15.547   3.133   2.495  0.2214  0.0878  0.1867
 6545W        W23019  11.354   1.433   0.112  0.0463 -0.1342 -0.2559
 6546W        W23020  17.570  13.370  14.530  0.0618 -0.1488  0.1016
 6547W        W23021   3.049   9.940  11.487  0.5257 -0.2374  0.1338
 6548W        W23022  10.338  14.935   0.903  0.0016 -0.1002 -0.3688
 6549W        W23023   6.169  14.725   3.336 -0.0633 -0.1634 -0.1076
 6550W        W23024   3.947  16.126  13.677  0.0310 -0.1914 -0.2566
 6551W        W23025   6.157   8.862  14.625  0.1574 -0.1930 -0.0932
 6552W        W23026  15.018  14.806  12.595 -0.1830 -0.2768  0.0478
 6553W        W23027   0.802  10.166   1.065  0.1334  0.0380 -0.0522
 6554W        W23028  15.778   5.987   3.467 -0.1882  0.0273 -0.0083
 6555W        W23029   9.440   1.997  10.617 -0.0626 -0.0655 -0.1248
 6556W        W23030   5.678   9.934  11.202 -0.0985  0.1153  0.0148
 6557W        W23031   8.897   0.800   0.946 -0.0558 -0.1481 -0.0381
 6558W        W23032   0.569   2.144  13.100  0.0859  0.4496 -0.0402
 6559W        W23033   8.640  15.707   4.123  0.0344  0.1369  0.2281
 6560W        W23034  14.146   9.294   1.017  0.4226  0.1648  0.0077
 6561W        W23035   7.251   6.735  12.319 -0.2406  0.0335  0.0328
 6562W        W23036   7.747   2.628  13.170  0.1865  0.3028 -0.1175
 6563W        W23037   7.314   2.078   0.410  0.3432  0.1093 -0.2537
 6564W        W23038  12.025   2.349   3.820 -0.0054  0.3692  0.1927
 6565W        W23039  15.957   5.498   4.900  0.0925 -0.1831  0.0397
 6566W        W23040  10.510  10.167   2.678  0.3224  0.0157 -0.0717
 6567W        W23041   6.725   2.215   0.302 -0.0972  0.1938  0.0838
 6568W        W23042  17.372  17.311   1.857 -0.1932 -0.1789  0.2005
 6569W        W23043   2.815   6.283   5.368 -0.0275 -0.0372 -0.0701
 6570W        W23044  16.405   9.611   5.129  0.2361 -0.0253 -0.1811
 6571W        W23045  18.031  17.225   0.323  0.0750 -0.2527  0.1372
 6572W        W23046  15.573   0.343   5.573  0.0680  0.0391 -0.1144
 6573W        W23047   4.275  12.689  13.961 -0.1295  0.0755  0.1974
 6574W        W23048   1.023   6.294   1.054  0.0159 -0.3676  0.0753
 6575W        W23049   2.877   8.799   3.347 -0.1878  0.2256  0.0972
 6576W        W23050   4.012  12.543   1.476  0.4047  0.2119  0.1184
 6577W        W23051   6.224   5.318  12.416 -0.0063 -0.2110 -0.5682
 6578W        W23052  14.866  12.082   0.139  0.1627  0.4449 -0.0037
 6579W        W23053  13.842  16.312   2.852  0.2327  0.1244 -0.2101
 6580W        W23054  13.818   5.771  12.521 -0.3216  0.2376 -0.0548
 6581W        W23055  17.101   2.735   3.511 -0.0281  0.0322  0.0003
 6582W        W23056  14.385  15.185   3.941 -0.1473 -0.0981 -0.1596
 6583W        W23057   1.330   8.393   2.859 -0.2055 -0.0407  0.1840
 6584W        W23058  13.436  11.589   3.087 -0.3749  0.3591 -0.1562
 6585W        W23059  18.371   6.233  14.530  0.1310 -0.0005  0.2347
 6586W        W23060  12.191   0.574  10.636  0.0304  0.1812 -0.1211
 6587W        W23061   3.421  10.516  15.727  0.0021 -0.0152  0.2336
 6588W        W23062  17.211   3.222   1.254 -0.1086 -0.0619  0.2099
 6589W        W23063   0.836  17.861  15.316 -0.0085  0.2566  0.1866
 6590W        W23064   8.783   1.140   1.303  0.0469  0.0409  0.2513
 6591W        W23065   7.051  13.014   0.509 -0.2392  0.2592  0.0437
 6592W        W23066   7.790   6.667  14.682 -0.0472 -0.3094  0.0162
 6593W        W23067  12.490  11.779  15.860  0.1216  0.2973  0.0330
 6594W        W23068  17.388   7.009   0.202  0.0031  0.1295 -0.2124
 6595W        W23069   3.571   9.088   1.583 -0.0956 -0.2134  0.0564
 6596W        W23070   2.206  15.388   5.084  0.1297  0.0734  0.3944
 6597W        W23071  14.934  16.700  13.499  0.1418 -0.0542  0.1277
 6598W        W23072  16.460  17.367   0.361  0.1371 -0.2578  0.1588
 6599W        W23073   7.134   6.949  13.325 -0.0324  0.0170  0.0010
 6600W        W23074  14.778   5.737   3.679 -0.0641  0.2875  0.2010
 6601W        W23075   0.309   0.796   0.429 -0.2021 -0.0362 -0.1792
 6602W        W23076  11.811   7.815   0.330 -0.0792 -0.3119 -0.2957
 6603W        W23077  12.842   6.999   1.214 -0.4385 -0.1167 -0.2768
 6604W        W23078   5.255   4.591   1.584 -0.1703 -0.1460 -0.0213
 6605W        W23079  10.312  18.435  10.716  0.1377  0.0381 -0.1811
 6606W        W23080  16.831   4.008   5.034  0.0886 -0.0091 -0.1535
 6607W        W23081   7.783   9.280  11.022 -0.1313 -0.0335  0.0304
 6608W        W23082  12.469   2.669   1.282  0.0266 -0.0855  0.0160
 6609W        W23083  10.086   0.169  12.618 -0.2706 -0.2068 -0.0372
 6610W        W23084   7.754   3.043  11.308  0.1613 -0.0086  0.1241
 6611W        W23085  13.747  12.368  13.182  0.0154 -0.0578 -0.0110
 6612W        W23086   3.987  13.393  12.309 -0.1594 -0.0418 -0.0052
 6613W        W23087   1.753   1.816  12.758  0.2547  0.0329 -0.0262
 6614W        W23088   4.696  14.988   3.564  0.2268 -0.0566 -0.0086
 6615W        W23089   7.576  10.175  10.890  0.0645  0.1235  0.0163
 6616W        W23090   8.196  14.426   3.999  0.2642 -0.1629  0.3511
 6617W        W23091   4.497   0.799   4.098 -0.0390 -0.1918  0.0437
 6618W        W23092  16.518   8.440   5.346 -0.0254  0.0410  0.2333
 6619W        W23093  18.304   2.637  13.745 -0.1310  0.1298 -0.0184
 6620W        W23094   1.287   3.280  12.409 -0.0562 -0.2209  0.1693
 6621W        W23095   1.982   2.920  13.615  0.0413  0.0134  0.1459
 6622W        W23096  16.248   5.965   3.314  0.2657  0.2220  0.1760
 6623W        W23097   5.473   5.415   6.051  0.0385  0.0556  0.0253
 6624W        W23098   5.373  16.467   4.681 -0.3874  0.1261 -0.1293
 6625W        W23099  11.495   8.986  15.718 -0.2104  0.0391 -0.1780
 6626W        W23100   7.271  13.240  11.625  0.0331  0.0973  0.1015
 6627W        W23101  11.717   5.506   2.138 -0.4595  0.2089 -0.4065
 6628W        W23102  10.699   3.400  14.258 -0.0946  0.1197  0.1001
 6629W        W23103   8.541   6.029   1.330  0.3858 -0.1290  0.0730
 6630W        W23104  10.068  13.769  13.601 -0.3775 -0.2342 -0.2375
 6631W        W23105  13.812  10.617   2.007  0.0436  0.2197  0.0504
 6632W        W23106  11.725  16.861  11.827  0.1213  0.2154  0.0881
 6633W        W23107  13.096  13.240   1.997  0.1916  0.0516 -0.0618
 6634W        W23108  11.098   1.095  14.564  0.0901  0.2179 -0.1612
 6635W        W23109   1.180   0.700  10.863  0.2436 -0.3156 -0.0787
 6636W        W23110   7.572  16.561   3.106 -0.1526 -0.0178  0.1314
 6637W        W23111   9.172   0.745   1.333 -0.0788 -0.0074  0.3100
 6638W        W23112  17.964   9.579   3.145  0.0837 -0.1302  0.3146
 6639W        W23113   8.116   0.911  14.045 -0.0526  0.0862  0.1423
 6640W        W23114  12.345  12.205  15.409 -0.3068 -0.1687 -0.0658
 6641W        W23115   0.468  15.184  12.968  0.1972 -0.0210 -0.1630
 6642W        W23116  11.701   6.647   3.184  0.2626  0.0709  0.2197
 6643W        W23117  17.936  16.907   4.677 -0.0452 -0.0967  0.1736
 6644W        W23118   8.920  13.107  15.784  0.0992 -0.2095  0.3144
 6645W        W23119  10.657  13.215   6.017  0.1648  0.2684 -0.3278
 6646W        W23120  16.448   3.351   2.604 -0.2107  0.2783  0.1035
 6647W        W23121   0.179  14.978  12.524  0.1827 -0.2575  0.2054
 6648W        W23122   7.010   3.200  12.874  0.3177 -0.1647  0.4075
 6649W        W23123   8.398  17.012   4.443 -0.3421 -0.2054  0.1177
 6650W        W23124   6.208  11.961   0.125  0.1182  0.0551 -0.4303
 6651W        W23125  14.798   4.015   2.382  0.0376  0.1784  0.0169
 6652W        W23126  11.627  11.962   3.129 -0.1469  0.1464  0.2474
 6653W        W23127   2.761  17.663   1.975 -0.0715  0.1907  0.1166
 6654W        W23128  14.180  17.926   0.796 -0.1957  0.4032  0.1833
 6655W        W23129  16.314   8.154   1.499 -0.1253  0.1112 -0.1800
 6656W        W23130   4.814   9.392   5.035  0.0898  0.0008  0.1036
 6657W        W23131   9.185   2.357  14.263 -0.1247  0.2439  0.2278
 6658W        W23132   4.652   3.284   5.140 -0.1650  0.2435  0.0653
 6659W        W23133   5.468   0.165  13.068  0.0247 -0.2363 -0.1682
 6660W        W23134  12.612   4.429   1.812  0.0226 -0.1286  0.0761
 6661W        W23135  17.744   3.691   6.039 -0.1742  0.1079  0.0135
 6662W        W23136   2.891   2.155  10.504 -0.0244  0.0327 -0.1253
 6663W        W23137   8.615  18.291   3.374  0.0364  0.2054 -0.1516
 6664W        W23138  11.349   6.598  11.232 -0.1295 -0.1306 -0.0006
 6665W        W23139   4.090   3.038  12.670 -0.3245 -0.3292 -0.2035
 6666W        W23140  18.217   9.547  11.592  0.1183  0.1117 -0.1591
 6667W        W23141   9.874  15.307   4.645 -0.1946  0.3331 -0.2743
 6668W        W23142  12.153   7.639  15.931  0.2754  0.0571 -0.4127
 6669W        W23143  10.631   2.031  11.238 -0.4027  0.0706  0.1767
 6670W        W23144  10.271   8.464   1.738 -0.3331 -0.1281  0.0548
 6671W        W23145   1.768  10.474  14.739  0.2792  0.3182  0.0627
 6672W        W23146  10.670  11.028  13.719 -0.1964 -0.3053 -0.0353
 6673W        W23147   8.970  14.322  14.991 -0.0419 -0.1427  0.0161
 6674W        W23148  13.734  17.277   3.981 -0.1387  0.2399  0.1041
 6675W        W23149   3.647   8.687  14.314 -0.0042 -0.0460  0.0808
 6676W        W23150  17.630  13.806   2.409 -0.4762  0.0181 -0.0257
 6677W        W23151   4.395   8.578   3.867  0.0799 -0.1264  0.0309
 6678W        W23152   2.479  11.363  11.332 -0.0322  0.0417  0.4172
 6679W        W23153   7.700  18.217   3.236  0.1416 -0.1253 -0.0372
 6680W        W23154  16.887   7.207   0.996 -0.0761  0.0353 -0.0384
 6681W        W23155   6.323   6.250   2.787 -0.2027 -0.2603  0.0403
 6682W        W23156   7.975   7.935  13.209 -0.1284 -0.1377 -0.0109
 6683W        W23157  14.740  10.344  13.097 -0.2007  0.0983  0.0178
 6684W        W23158   5.606   4.918   1.824  0.2527  0.0516  0.0402
 6685W        W23159  13.475  16.473  14.364  0.2565  0.3595 -0.0270
 6686W        W23160   6.638  11.836   9.988  0.3029  0.0849 -0.0794
 6687W        W23161   7.168   7.228  10.952  0.1314  0.0385  0.0624
 6688W        W23162  18.294  13.220  13.613  0.0534  0.1595  0.1671
 6689W        W23163  14.766  17.849   1.345 -0.1357 -0.0157  0.0478
 6690W        W23164  16.103  13.334   0.744  0.0989 -0.3343  0.0911
 6691W        W23165  14.940  16.699  11.956  0.1194  0.3116 -0.0862
 6692W        W23166  16.412  16.001  14.918  0.0305 -0.0364  0.1262
 6693W        W23167   7.692  12.255   3.048  0.2330  0.2269  0.3087
 6694W        W23168  10.722  18.052   1.273 -0.0109 -0.1500  0.0565
 6695W        W23169   3.255   0.195   4.187  0.0761 -0.0413  0.2286
 6696W        W23170   0.375   4.755  15.538  0.0422  0.0243 -0.0514
 6697W        W23171   3.426  15.144  11.275 -0.0323 -0.2505  0.2743
 6698W        W23172   7.590   7.801  10.063 -0.1003  0.1066  0.0509
 6699W        W23173   0.733   6.265   4.165  0.2181 -0.0411 -0.1069
 6700W        W23174  17.617  11.978  14.968 -0.0869  0.0541  0.1222
 6701W        W23175  13.936   1.382   3.464  0.2555  0.0863  0.0188
 6702W        W23176  12.697  12.596  12.442 -0.1386 -0.1088 -0.2250
 6703W        W23177  15.787  16.763   0.305  0.0687 -0.0133 -0.0618
 6704W        W23178   4.609   2.615   2.348  0.1482  0.2401 -0.1887
 6705W        W23179   0.936  13.651  12.187  0.1826 -0.0898 -0.1863
 6706W        W23180   6.109  14.922   1.942 -0.0656  0.2782  0.0301
 6707W        W23181   6.114  16.682   4.208 -0.1209 -0.0671 -0.0099
 6708W        W23182   6.429  12.340   4.630 -0.1029  0.3841  0.2136
 6709W        W23183  13.117  16.165   0.722 -0.1937 -0.0097  0.2835
 6710W        W23184   5.772   7.428   0.440 -0.1514  0.2561 -0.3826
 6711W        W23185  16.362  17.512  12.080 -0.1734 -0.1651 -0.1803
 6712W        W23186   0.750   1.331   2.652  0.1276  0.0061 -0.3139
 6713W        W23187  10.662   4.219  12.613 -0.2870 -0.0402  0.1109
 6714W        W23188   2.449   6.744  12.770 -0.1063 -0.0375 -0.3660
 6715W        W23189   4.719   0.945   3.294 -0.0824  0.0251 -0.0956
 6716W        W23190   4.444  17.901   4.149  0.1332  0.1058 -0.2297
 6717W        W23191   0.516  14.068  11.344  0.0769 -0.2498 -0.1524
 6718W        W23192  11.245  17.484   5.804  0.1000  0.1741  0.1225
 6719W        W23193  15.801  14.306  13.939 -0.0940 -0.0532  0.2166
 6720W        W23194   8.949  12.783   3.901  0.0620  0.1977 -0.0539
 6721W        W23195  16.183   4.216  12.128 -0.1608  0.0421 -0.0616
 6722W        W23196  12.020  17.088   0.777 -0.0722  0.0004  0.1984
 6723W        W23197   5.718   6.924   2.888 -0.1552 -0.0816  0.2577
 6724W        W23198  10.602   9.007   2.540 -0.1762  0.1095 -0.2238
 6725W        W23199  16.222  15.907   2.626  0.0604 -0.3524  0.0822
 6726W        W23200  17.903  16.745  13.589  0.1880 -0.0259 -0.3502
 6727W        W23201  14.492  16.210   3.062 -0.1548 -0.1373  0.0638
 6728W        W23202  16.567  10.025  13.609 -0.1195  0.1636  0.2196
 6729W        W23203  14.365  12.079  13.487  0.1407  0.1180  0.1328
 6730W        W23204   0.852   6.176  15.646  0.0345 -0.1431 -0.2264
 6731W        W23205   7.643  11.805   5.518 -0.0209 -0.1266  0.0212
 6732W        W23206   3.877  15.022  13.703 -0.2255  0.1455 -0.3724
 6733W        W23207  11.412  13.973   0.472 -0.0145  0.2849  0.3440
 6734W        W23208   4.227   2.059   0.733 -0.1605  0.4142 -0.2261
 6735W        W23209   7.068   5.748  15.291  0.4857  0.1041  0.3258
 6736W        W23210   7.535  11.414  10.276 -0.0481  0.2164 -0.1320
 6737W        W23211  12.829  11.775  14.709 -0.1450  0.1399 -0.0317
 6738W        W23212  13.231   6.658  12.427  0.1233 -0.1151  0.2077
 6739W        W23213   2.796   6.294   4.500 -0.1292  0.1548  0.1594
 6740W        W23214  13.167  15.356  12.815 -0.1020 -0.1738 -0.4985
 6741W        W23215   7.111   7.211  12.028  0.1759 -0.0695  0.4090
 6742W        W23216  17.240   7.706   2.071 -0.1531 -0.1717 -0.1738
 6743W        W23217   1.556   9.219  12.101  0.1480 -0.0703 -0.1929
 6744W        W23218   8.507   1.471  12.827 -0.0050 -0.0475  0.0224
 6745W        W23219  14.210  15.608  14.255 -0.0102  0.0729  0.1031
 6746W        W23220   8.141   6.179   2.665  0.2133  0.4684 -0.0249
 6747W        W23221   8.050  12.051  13.850  0.3230  0.1669  0.0984
 6748W        W23222   7.966  14.492  14.465 -0.2101 -0.2025 -0.2511
 6749W        W23223   3.436   7.043   3.496 -0.1078  0.4147  0.1474
 6750W        W23224  13.472   1.935  11.006  0.0689  0.0456 -0.2826
 6751W        W23225  11.063   0.786   4.244  0.0893 -0.1131  0.1918
 6752W        W23226  16.466   9.944  12.481 -0.1581 -0.1638  0.4313
 6753W        W23227   3.590   4.532  14.558  0.2660 -0.0121  0.4392
 6754W        W23228  18.061  14.010  13.054  0.4392 -0.2412 -0.1821
 6755W        W23229   3.648  15.312   3.556  0.0711  0.2460 -0.3397
 6756W        W23230  18.413   1.579  12.639 -0.1189 -0.3010 -0.1236
 6757W        W23231  10.327  15.375  15.558 -0.0688 -0.1032 -0.0352
 6758W        W23232   8.827   9.701   0.314  0.0605  0.1013  0.0330
 6759W        W23233   2.001  13.796  15.462  0.0946 -0.0797 -0.3021
 6760W        W23234   9.222  16.635  11.411 -0.1498 -0.1375 -0.1526
 6761W        W23235  16.677   0.348  15.161  0.1192 -0.4013 -0.0307
 6762W        W23236   7.037   5.696  13.756 -0.1594  0.1081 -0.0689
 6763W        W23237   6.712   0.822   4.509  0.0534 -0.0912 -0.0716
 6764W        W23238  17.269   9.875  12.194 -0.2260  0.0798  0.1814
 6765W        W23239   5.158   0.219  11.554 -0.0908 -0.1726  0.2240
 6766W        W23240  17.344  17.669   4.546  0.0898  0.0799 -0.3818
 6767W        W23241   2.097  16.879  11.284 -0.2810 -0.1264  0.1226
 6768W        W23242  10.649   0.018   4.893  0.1569  0.0445  0.0830
 6769W        W23243   9.859   6.363   1.321 -0.0246  0.1421 -0.2305
 6770W        W23244   8.533   4.416  13.739 -0.1911  0.1457  0.1281
 6771W        W23245   3.111  11.380  11.495 -0.0157 -0.0006 -0.0965
 6772W        W23246   1.417  14.307  13.815  0.2598  0.0366  0.0138
 6773W        W23247   5.910   9.408  12.070  0.0793  0.1851  0.2203
 6774W        W23248   1.426   2.987  13.820  0.1156  0.2785 -0.1393
 6775W        W23249  10.491   4.348   2.752  0.0100  0.0678  0.1296
 6776W        W23250  12.219  10.946   5.265 -0.2514 -0.1843 -0.1213
 6777W        W23251   7.246   3.062   3.906  0.1277  0.1606  0.3801
 6778W        W23252  13.842  14.509   0.909  0.1728  0.1449  0.1771
 6779W        W23253   6.962  12.494   3.423 -0.0735 -0.1026 -0.2198
 6780W        W23254  15.098  10.247   2.824 -0.2502  0.0619  0.2012
 6781W        W23255   4.694  14.969   1.307 -0.1980  0.0307  0.0019
 6782W        W23256   2.704  10.595  12.865 -0.0730  0.0275 -0.0164
 6783W        W23257   8.292  17.360  13.036 -0.0554  0.1601  0.0448
 6784W        W23258  16.456  17.886   4.277 -0.1545 -0.0360  0.0268
 6785W        W23259   0.750   6.726   0.812  0.0992 -0.3109 -0.0072
 6786W        W23260  13.349   5.446   0.103 -0.2160  0.1417 -0.1470
 6787W        W23261   3.299  15.608   3.256 -0.0966 -0.2826  0.1051
 6788W        W23262  18.088  12.344   5.085 -0.2266  0.0136  0.2709
 6789W        W23263   3.691   9.875  10.781 -0.0947 -0.4132 -0.0191
 6790W        W23264  10.422  11.878   3.662 -0.0264  0.0607 -0.2658
 6791W        W23265   4.522   5.392  14.041  0.0185 -0.1615  0.1551
 6792W        W23266   7.211  18.467  15.402  0.1745 -0.3654  0.1806
 6793W        W23267   9.193   0.352   4.433 -0.2117 -0.4979  0.1777
 6794W        W23268   2.932  11.310  12.441 -0.0434 -0.1327 -0.3457
 6795W        W23269  12.592  13.003  14.930  0.0126  0.0739 -0.3437
 6796W        W23270   1.523   9.837   4.146 -0.1552  0.1668 -0.2647
 6797W        W23271  10.891   9.060  13.730  0.0962 -0.2210 -0.0329
 6798W        W23272   8.281   1.256  13.710  0.2154 -0.0646  0.1005
 6799W        W23273   8.436  10.402   4.884 -0.2332  0.0394  0.1875
 6800W        W23274   2.618  14.122   0.790  0.2033 -0.2007 -0.0699
 6801W        W23275   2.697   1.751   2.036 -0.4824  0.2269  0.1053
 6802W        W23276   3.702  12.271  14.366  0.2702 -0.3731 -0.2052
 6803W        W23277  14.075  15.186  12.777  0.5732  0.1819  0.0855
 6804W        W23278   2.465   9.815  10.867 -0.2354 -0.4291 -0.4128
 6805W        W23279   5.716   7.587   2.407 -0.0127  0.1471 -0.0276
 6806W        W23280  14.594  18.162  12.863 -0.1507  0.0993 -0.0622
 6807W        W23281  13.176  10.101  15.824 -0.4018 -0.2019 -0.0915
 6808W        W23282   3.514  13.776   5.011  0.2593 -0.0076 -0.1409
 6809W        W23283   0.484   5.908   3.830 -0.4204 -0.1809 -0.0300
 6810W        W23284   9.434   9.542  11.298 -0.2060 -0.0601 -0.1725
 6811W        W23285   6.596   6.975   2.309  0.1445  0.1604 -0.0619
 6812W        W23286   7.290   4.718  14.534  0.2895  0.3711  0.1676
 6813W        W23287  11.299   5.341   2.810 -0.3072 -0.0587  0.0612
 6814W        W23288   8.193   5.885   1.779 -0.2484  0.0942 -0.1928
 6815W        W23289   1.198   2.830  14.267  0.2355  0.0952  0.0904
 6816W        W23290   1.855   2.117   0.165  0.1849 -0.0953  0.3052
 6817W        W23291  14.137  11.578  12.715 -0.0777 -0.0379 -0.1385
 6818W        W23292   4.473   7.190   0.952  0.0574 -0.1249  0.1339
 6819W        W23293   5.769  11.975  11.024 -0.0708  0.0141 -0.1459
 6820W        W23294   5.835   9.967   3.071  0.0691  0.1790 -0.1913
 6821W        W23295   8.549  13.044   0.321  0.3036  0.2314 -0.0276
 6822W        W23296  16.708  11.235   5.280  0.2203  0.0876  0.2786
 6823W        W23297  13.309  12.311  15.727 -0.0628 -0.0825  0.3242
 6824W        W23298  17.391  12.664   5.345 -0.0292  0.0656  0.3315
 6825W        W23299  14.567  17.140  13.633 -0.0233 -0.0995 -0.0412
 6826W        W23300  13.768   6.895   0.811  0.2463 -0.0667 -0.0870
 6827W        W23301  10.949  17.079  15.692  0.0662  0.0873  0.0930
 6828W        W23302  17.462  15.519   0.471 -0.0150 -0.1548 -0.0666
 6829W        W23303   6.345  14.835  14.033 -0.0348  0.1933  0.1767
 6830W        W23304   3.999  15.716   0.176  0.0339  0.0463 -0.1994
 6831W        W23305   6.751   1.524   3.527 -0.1308 -0.0382 -0.1494
 6832W        W23306  12.926  12.333  14.025 -0.0299 -0.0798 -0.3582
 6833W        W23307  11.161   0.409   1.470  0.2195  0.0798  0.0685
 6834W        W23308  12.973   6.666   1.670 -0.0229  0.0385 -0.0489
 6835W        W23309  11.625   6.880   0.098  0.0488 -0.2876 -0.2075
 6836W        W23310  13.875  17.609  12.505 -0.0240 -0.1719  0.1210
 6837W        W23311  12.825  11.337  13.845  0.4272  0.1174  0.1065
 6838W        W23312  11.772  17.242  12.798 -0.1122  0.2417 -0.1673
 6839W        W23313  14.367  11.203   1.091  0.1879 -0.0405 -0.1592
 6840W        W23314   0.087  10.833   1.907  0.1297  0.2034  0.0020
 6841W        W23315  14.937  14.535  14.565 -0.0750  0.0592  0.0210
 6842W        W23316  14.026   3.879   5.054 -0.2990 -0.1389 -0.4576
 6843W        W23317   9.549  12.869  12.130 -0.3700  0.0423  0.0953
 6844W        W23318   5.472   0.174   0.408 -0.1002  0.2084  0.0617
 6845W        W23319   2.834  15.344   4.710  0.1224 -0.0620 -0.2335
 6846W        W23320  12.700   6.300   3.016  0.1299  0.0008  0.0136
 6847W        W23321  12.903  14.754  12.854  0.0172 -0.1510  0.0939
 6848W        W23322   5.011  15.963   1.732  0.0140  0.2598  0.5415
 6849W        W23323   3.207   6.119   4.781  0.2497  0.0244 -0.1071
 6850W        W23324   8.935   4.269   4.352  0.1326 -0.2287  0.1454
 6851W        W23325   8.175  17.797   4.233 -0.1619 -0.0170 -0.0541
 6852W        W23326   4.075  14.471  13.985 -0.2791  0.0273  0.0588
 6853W        W23327  15.187  13.620  14.563  0.0788  0.1100 -0.0380
 6854W        W23328  15.739  14.182   0.230  0.0492 -0.0951 -0.1356
 6855W        W23329  16.285   0.618  14.668  0.0090  0.1221 -0.1640
 6856W        W23330  12.842   4.034  11.947 -0.0652 -0.0107  0.0853
 6857W        W23331  13.858   8.689   3.902 -0.0172 -0.0500  0.1938
 6858W        W23332  12.254  16.532   2.053  0.0855 -0.0772 -0.0000
 6859W        W23333  16.856   5.727   2.905  0.0117 -0.0449 -0.1216
 6860W        W23334   7.807  12.004   3.431  0.0746 -0.1494 -0.1287
 6861W        W23335   5.364  17.669  14.015 -0.1496  0.2842  0.0699
 6862W        W23336   2.310   3.193   2.028  0.1229  0.0019 -0.2335
 6863W        W23337   3.493  15.922  13.427 -0.1613  0.0705 -0.1004
 6864W        W23338   2.039  15.640  15.638 -0.1422 -0.1923  0.1648
 6865W        W23339   1.394  14.941   4.405  0.0043 -0.3613  0.1083
 6866W        W23340  13.154   8.241   1.003  0.2572  0.1851 -0.3008
 6867W        W23341  18.439   3.092  13.928  0.2938 -0.0519 -0.0029
 6868W        W23342   1.862  11.935  13.240 -0.1503 -0.0948  0.0052
 6869W        W23343   3.141   8.590   1.619  0.1799 -0.1327  0.1029
 6870W        W23344   7.686  14.939   2.244  0.0012 -0.0134 -0.1512
 6871W        W23345  15.305   8.818   2.683  0.0161 -0.3356  0.0482
 6872W        W23346  15.400   5.721   4.265 -0.3945 -0.0677 -0.2323
 6873W        W23347   1.188  18.163  15.388 -0.2349 -0.1172  0.0498
 6874W        W23348  14.884   5.076  12.488  0.1212 -0.1598 -0.1284
 6875W        W23349   9.793   2.732   2.598  0.3066 -0.1061 -0.2026
 6876W        W23350   9.483  11.534   4.925  0.1793  0.0421  0.1817
 6877W        W23351   3.322   3.290  13.014 -0.1361 -0.2057  0.1744
 6878W        W23352   4.958  14.154   1.377 -0.0285  0.1441 -0.1158
 6879W        W23353  18.134  12.311   3.514  0.1906 -0.0606 -0.0989
 6880W        W23354  16.020  16.798  13.249 -0.2234  0.1403  0.0320
 6881W        W23355   7.086   9.415  10.318  0.2742  0.0099  0.0829
 6882W        W23356  10.227   8.713  13.261 -0.2209 -0.2314  0.4564
 6883W        W23357   6.795  17.646  13.939 -0.0079  0.1337 -0.1254
 6884W        W23358  17.580   0.902   1.903 -0.1007  0.0069 -0.0079
 6885W        W23359   7.937  16.386  11.226  0.0424  0.1006 -0.1188
 6886W        W23360  18.056   1.759   0.222  0.1585  0.1071  0.0733
 6887W        W23361  17.176  11.572  11.682  0.1562  0.0226 -0.0677
 6888W        W23362   6.206   3.287  13.451 -0.1057  0.0444  0.0203
 6889W        W23363   8.227  12.704  14.810 -0.1324 -0.3284  0.2290
 6890W        W23364   7.311   5.463  11.860  0.1339  0.1343 -0.0903
 6891W        W23365   2.363  12.968   1.474 -0.2128  0.1773 -0.0654
 6892W        W23366  15.438  14.511  12.669 -0.2625  0.0899  0.0990
 6893W        W23367   0.561  14.711  12.721 -0.2469 -0.2702  0.3199
 6894W        W23368  14.250  11.126   3.763  0.3371 -0.1490  0.3759
 6895W        W23369   8.572   6.106  13.460  0.1274  0.2566  0.0468
 6896W        W23370   4.730   4.823  15.540 -0.0507  0.1216  0.1078
 6897W        W23371   4.540  14.496   2.711 -0.0027  0.1547 -0.1770
 6898W        W23372  12.802   0.444  10.500  0.1476  0.4150 -0.3962
 6899W        W23373   5.092   0.484   5.298  0.0304  0.0907 -0.2620
 6900W        W23374   4.738   5.627   2.227  0.1998 -0.0780 -0.1181
 6901W        W23375   7.969   6.594   0.914 -0.0715  0.1090 -0.0227
 6902W        W23376   3.943  17.334   5.239  0.0623  0.1307 -0.0078
 6903W        W23377   6.398   0.612   3.863  0.0433 -0.0354  0.0723
 6904W        W23378  14.977   5.609  11.424  0.1074 -0.1349 -0.0592
 6905W        W23379   5.960  10.815   0.233 -0.2643  0.2785 -0.0741
 6906W        W23380   4.115  10.270  11.696  0.1424 -0.0504  0.0786
 6907W        W23381   2.819   7.129   1.339 -0.0145  0.0520  0.0859
 6908W        W23382   1.983   0.578   0.156  0.0029  0.2372  0.0467
 6909W        W23383  10.678  11.887  13.631 -0.0030 -0.0695 -0.1237
 6910W        W23384  13.252  14.860  12.528 -0.1739 -0.0097  0.1088
 6911W        W23385  14.858  17.206   4.740  0.0455 -0.3257 -0.0115
 6912W        W23386  18.015   5.275   4.188 -0.3159 -0.1075  0.0050
 6913W        W23387   1.499   6.521  10.933 -0.1163 -0.0381 -0.0503
 6914W        W23388  14.686  18.388   1.211 -0.1747  0.2076  0.0652
 6915W        W23389   6.155  16.164   4.230 -0.0389  0.1795 -0.0491
 6916W        W23390  16.633  12.129  15.877  0.0735  0.0160  0.3038
 6917W        W23391   0.736   0.936   2.964 -0.0824 -0.0500 -0.1429
 6918W        W23392  10.546   1.591  11.988  0.4454 -0.0916  0.1806
 6919W        W23393  11.940   2.635   2.186 -0.1280  0.1745 -0.2007
 6920W        W23394  13.729   2.756  15.803 -0.0132 -0.0354 -0.1254
 6921W        W23395  18.364   1.899   1.425  0.0861 -0.4539 -0.2798
 6922W        W23396   6.566   7.516   4.574 -0.4769  0.1675  0.1303
 6923W        W23397   7.245  10.430   3.656 -0.2554  0.0224 -0.0721
 6924W        W23398   6.334  10.310   1.977  0.0886 -0.3794  0.3011
 6925W        W23399   4.033   2.569   0.837  0.0312  0.0225 -0.1541
 6926W        W23400   5.706  12.894  14.623 -0.0015 -0.2224  0.2505
 6927W        W23401   6.899   4.891   0.549 -0.1626  0.2019 -0.0987
 6928W        W23402  14.588  10.303   2.757  0.2236 -0.1759  0.0100
 6929W        W23403   2.948   1.716   4.844  0.2783 -0.0399 -0.0625
 6930W        W23404   4.250  10.994  13.681 -0.1550  0.0344  0.0074
 6931W        W23405  15.045  17.114  12.725  0.0196  0.1262  0.2251
 6932W        W23406   4.611   5.958   2.736 -0.0632  0.1823 -0.1340
 6933W        W23407  16.518  11.909  11.960 -0.0057  0.0276 -0.1484
 6934W        W23408  10.526   2.064  11.728  0.1855 -0.0388  0.2415
 6935W        W23409   4.545   3.039  11.753 -0.1548 -0.1088 -0.1067
 6936W        W23410   2.750  12.030   4.386 -0.0588 -0.2660  0.1128
 6937W        W23411  13.830   3.357   5.084 -0.0336  0.0568 -0.4560
 6938W        W23412  11.936  15.267   1.297 -0.0920 -0.0228  0.3144
 6939W        W23413  16.274   2.333   1.565  0.1880  0.0941 -0.0777
 6940W        W23414  15.853  12.684  15.561  0.2465  0.0429  0.0938
 6941W        W23415   1.729   3.457   1.491 -0.0229 -0.4981 -0.2476
 6942W        W23416  13.661   8.599   5.685  0.4288  0.0670 -0.0092
 6943W        W23417   9.447  14.187   5.407  0.1530  0.0160  0.2697
 6944W        W23418  12.517   1.644  15.435 -0.1480  0.0170  0.1714
 6945W        W23419   1.849   4.034  11.340 -0.0330  0.3787  0.2920
 6946W        W23420   2.726  14.138   3.585 -0.0421 -0.2490 -0.0907
 6947W        W23421   8.210   5.474  14.129 -0.0174  0.1526  0.0587
 6948W        W23422   3.007  11.444  15.433 -0.0806 -0.3612 -0.3665
 6949W        W23423   9.294   1.903  14.571 -0.1484  0.0179  0.0137
 6950W        W23424   5.499   2.117   3.903  0.0866  0.1936 -0.3222
 6951W        W23425   2.760   8.294  14.804 -0.2824 -0.2132 -0.1712
 6952W        W23426  12.107   5.269   4.444  0.1001  0.1509 -0.2140
 6953W        W23427  10.247   7.290   4.901  0.3334 -0.2904 -0.0792
 6954W        W23428  15.684   7.871  14.313  0.2749  0.2127 -0.1985
 6955W        W23429   6.217   1.883  12.253  0.1385 -0.0181 -0.0446
 6956W        W23430   0.824   9.887   1.481 -0.1011 -0.2800  0.1222
 6957W        W23431   5.009  17.909  13.795  0.1790 -0.3143 -0.0545
 6958W        W23432  11.860   1.153  11.504 -0.0176  0.2348  0.0804
 6959W        W23433  10.658   2.189  14.689 -0.0269  0.0129 -0.1199
 6960W        W23434  17.288  11.920   2.967 -0.1072  0.1275  0.0173
 6961W        W23435   0.732  16.576  11.339 -0.1540 -0.5093 -0.0082
 6962W        W23436   1.779  12.144   4.071 -0.3299  0.1694 -0.1337
 6963W        W23437  17.787   4.634  11.068  0.0410  0.0347  0.2179
 6964W        W23438   3.129  17.180   4.546 -0.1896 -0.1212 -0.1044
 6965W        W23439  15.601   8.182   2.045  0.0606  0.0481 -0.4244
 6966W        W23440  17.326   7.740  15.164  0.2359 -0.4271  0.1975
 6967W        W23441   2.573   5.917   0.338 -0.1585  0.3774 -0.1552
 6968W        W23442  14.209  11.221  11.700 -0.1645 -0.0688  0.2035
 6969W        W23443   8.829   7.317  15.362 -0.2490 -0.1141  0.3547
 6970W        W23444  10.772  17.416   1.541  0.3143  0.2125 -0.1899
 6971W        W23445  13.142  14.393  10.488  0.0095 -0.1165 -0.0616
 6972W        W23446  17.130   0.297   1.463 -0.0624 -0.2833  0.0831
 6973W        W23447   0.901   4.642  13.267 -0.0382 -0.0699 -0.2141
 6974W        W23448   8.726   8.668  10.496 -0.0504 -0.1116 -0.0082
 6975W        W23449   7.410   9.156   4.666 -0.3624 -0.0754  0.0014
 6976W        W23450   4.871   7.323  11.604 -0.0268 -0.1284 -0.2088
 6977W        W23451   8.583  16.541   5.173 -0.1839 -0.0602  0.3296
 6978W        W23452   8.986   9.685  11.764 -0.0251 -0.2835 -0.0096
 6979W        W23453   0.107  12.614  12.583  0.0941  0.1886  0.1750
 6980W        W23454  15.322  18.115   4.197  0.0001 -0.0939 -0.1330
 6981W        W23455  12.979  10.926   2.524 -0.1811  0.0180 -0.0935
 6982W        W23456   8.142   7.190   1.637 -0.0061 -0.3507 -0.1578
 6983W        W23457  13.480   2.468   2.477  0.1406  0.1128  0.0682
 6984W        W23458  15.253   3.844   3.997 -0.1528 -0.1488 -0.2209
 6985W        W23459   4.890  16.307   4.624 -0.1569  0.3523  0.0067
 6986W        W23460  13.689   8.717  12.025  0.0756  0.3629 -0.0602
 6987W        W23461   3.835   1.822   3.343 -0.2080  0.0502 -0.2866
 6988W        W23462   3.492   0.935   1.010  0.1541 -0.0906  0.0633
 6989W        W23463   0.140  13.834  10.212  0.3389  0.1226  0.2267
 6990W        W23464  12.363   1.763   5.411 -0.0365  0.0452  0.0657
 6991W        W23465  14.784   6.446  13.254 -0.1697 -0.0420 -0.1239
 6992W        W23466   7.919   2.402   1.462 -0.1908  0.1469 -0.2077
 6993W        W23467   1.322   6.468  13.165  0.1513 -0.1315 -0.1734
 6994W        W23468   0.194   6.011   0.218 -0.1574 -0.1965 -0.0091
 6995W        W23469   3.044   0.830   5.049  0.0750 -0.0622  0.0156
 6996W        W23470  15.457   5.523   3.331  0.0913 -0.0690 -0.0873
 6997W        W23471  10.895   8.192   3.850  0.1680  0.0107  0.3185
 6998W        W23472   4.423   5.299  10.289  0.0990 -0.2535  0.0346
 6999W        W23473  10.173  10.873   1.621 -0.2085  0.0730 -0.1487
 7000W        W23474  16.357  11.664   3.769  0.2068 -0.1732 -0.0399
 7001W        W23475  12.980   8.570   4.588 -0.0153  0.1019 -0.1823
 7002W        W23476  13.800  17.601   3.161 -0.0417  0.0697  0.1745
 7003W        W23477  12.571  13.005   6.337 -0.0222  0.2342 -0.2976
 7004W        W23478  16.641   5.459   5.210 -0.1530 -0.1022 -0.1819
 7005W        W23479  18.392  12.698   1.342  0.3647 -0.1871 -0.1897
 7006W        W23480   7.826   6.240  14.890  0.1937  0.3513  0.1253
 7007W        W23481  17.771   8.002   4.624  0.1159 -0.0121  0.1270
 7008W        W23482   6.692   9.777  15.003 -0.3582 -0.4033 -0.2607
 7009W        W23483   8.237   5.279   2.984 -0.0291 -0.0162  0.1033
 7010W        W23484   0.517   7.280  12.428 -0.2425 -0.2076 -0.1885
 7011W        W23485   8.137   6.753  12.193  0.2792 -0.0895  0.1818
 7012W        W23486  12.780   6.089  11.992  0.0231  0.0352 -0.2869
 7013W        W23487  10.258   7.899  14.815  0.1254  0.0902 -0.4706
 7014W        W23488  15.474   1.792   3.501 -0.2191  0.1356  0.1367
 7015W        W23489  10.361   4.390   0.343 -0.1879  0.2038 -0.1747
 7016W        W23490   5.722   1.046  14.655 -0.0033 -0.1085 -0.1679
 7017W        W23491  10.171  13.451   6.350  0.0644  0.0507  0.0243
 7018W        W23492   3.493  11.525   0.158 -0.1118  0.1516  0.0814
 7019W        W23493  15.706  16.237   5.628 -0.1226  0.3244  0.0232
 7020W        W23494   6.413   6.524   1.906 -0.4854 -0.0096 -0.0578
 7021W        W23495   2.084  16.562  12.097  0.1805 -0.0657 -0.4315
 7022W        W23496   2.551  16.599  13.480  0.0518 -0.0940  0.0454
 7023W        W23497   4.268   6.809   3.426  0.1945 -0.0908 -0.0010
 7024W        W23498  17.117   7.393   3.537  0.0122 -0.0903 -0.0198
 7025W        W23499  12.138  15.691   3.316 -0.1033  0.0952  0.1236
 7026W        W23500  11.265   0.424   0.381  0.2444  0.1331 -0.3659
 7027W        W23501   6.582   0.319  14.763 -0.1040  0.0061  0.0702
 7028W        W23502  10.821   3.970   2.563 -0.2587  0.0464  0.1483
 7029W        W23503  12.845  17.785   3.276  0.0681  0.1283 -0.0466
 7030W        W23504   3.103  15.129   1.606  0.1718 -0.1341 -0.0205
 7031W        W23505   1.464  12.646   2.817 -0.2656 -0.4506  0.0519
 7032W        W23506  11.689   1.524   1.164 -0.0390 -0.1341 -0.0460
 7033W        W23507   2.534   2.398   3.272  0.1088  0.2945  0.1326
 7034W        W23508   5.519   4.127   1.370 -0.3718  0.0769 -0.1494
 7035W        W23509   0.340   0.300   0.267 -0.1181  0.2123  0.1048
 7036W        W23510  14.193   2.383   1.307  0.0039  0.1628  0.1876
 7037W        W23511   8.249   3.459  12.995  0.1918 -0.1007  0.1444
 7038W        W23512   1.175  11.709   0.053  0.1724 -0.0033 -0.1039
 7039W        W23513  16.948  11.439   0.729  0.0477  0.0028 -0.3108
 7040W        W23514  17.041   7.096  15.821  0.0545 -0.0074 -0.2900
 7041W        W23515   1.284  14.185  12.982 -0.0977 -0.3104 -0.2202
 7042W        W23516   3.771  15.090   1.567  0.2346 -0.0463  0.3693
 7043W        W23517  16.946   4.333   1.324 -0.1197 -0.1335 -0.1111
 7044W        W23518   5.396   1.400  14.829 -0.1739 -0.2890 -0.0989
 7045W        W23519   7.205  18.327  12.931 -0.0543 -0.0741  0.0666
 7046W        W23520   8.244  15.492   4.290 -0.0892 -0.1621 -0.0617
 7047W        W23521   8.655   6.008   2.009  0.0918  0.0471  0.1026
 7048W        W23522  11.103  15.655   0.018 -0.1998 -0.0901 -0.0379
 7049W        W23523  15.605   8.246   5.468 -0.1216 -0.1038 -0.0996
 7050W        W23524   2.986   5.729   2.636 -0.1887  0.1588  0.0091
 7051W        W23525  18.070  14.730  14.780 -0.0022 -0.2144  0.0445
 7052W        W23526   2.061  13.267  15.630 -0.4916  0.2247  0.1445
 7053W        W23527  12.568  18.340  12.754  0.0715  0.0571  0.3102
 7054W        W23528  15.635  17.676  13.514 -0.0707 -0.2160  0.0413
 7055W        W23529   5.888   1.301  12.870 -0.1127 -0.0204  0.2381
 7056W        W23530  12.571  17.541   4.638  0.0248 -0.1267  0.1121
 7057W        W23531   3.863  10.065  11.231  0.0277  0.1477 -0.4041
 7058W        W23532   0.939   4.883   2.720  0.0107  0.1390 -0.1148
 7059W        W23533   2.636   6.024  12.667  0.1436 -0.0889  0.0037
 7060W        W23534  15.409  10.597   0.665 -0.2144  0.1198  0.3182
 7061W        W23535  17.913  14.964  11.955 -0.0914  0.2160  0.2221
 7062W        W23536   1.434   0.040   5.377 -0.2964 -0.1049  0.3700
 7063W        W23537   7.860  17.047   3.335 -0.1376  0.0098  0.1807
 7064W        W23538  15.774   4.364  15.155  0.0719  0.3478  0.1065
 7065W        W23539   2.439  15.215  14.070  0.0284  0.1351  0.0924
 7066W        W23540  10.952  16.645   4.868 -0.1797 -0.1657  0.1457
 7067W        W23541   3.657   9.240  14.943 -0.1735 -0.0076 -0.0512
 7068W        W23542  15.368   6.606   2.964 -0.2174  0.1424 -0.2282
 7069W        W23543   0.242  11.319  13.169  0.0434 -0.0425 -0.1628
 7070W        W23544  11.806   2.551   2.728 -0.0025  0.0721 -0.1069
 7071W        W23545  14.692   7.893  13.457  0.0717  0.0428  0.0611
 7072W        W23546  17.302   0.808   4.790  0.0943 -0.0429  0.0258
 7073W        W23547  14.366   3.215  11.496 -0.0146  0.1530  0.1178
 7074W        W23548   3.747  15.147  13.208  0.0043 -0.0569  0.2685
 7075W        W23549   9.764   8.009   4.748  0.4579  0.2309  0.0383
 7076W        W23550   6.662  15.542  14.382 -0.1489 -0.2090  0.0389
 7077W        W23551   7.710   3.946  15.160 -0.0649  0.0923  0.3245
 7078W        W23552   4.754  17.120   0.139  0.2481 -0.0531  0.0094
 7079W        W23553   4.886  11.315  13.324  0.0576 -0.0632 -0.3372
 7080W        W23554  15.913   9.120   2.468  0.1412 -0.1533  0.0668
 7081W        W23555   8.176   7.923   3.123 -0.0615 -0.2356 -0.0260
 7082W        W23556  18.324  11.620   2.288  0.4595  0.0398 -0.0260
 7083W        W23557  18.279   7.735  11.211 -0.0696 -0.0962 -0.2072
 7084W        W23558   5.138   5.375  10.161  0.0464  0.2409  0.0094
 7085W        W23559   3.288   7.458   2.557  0.1333 -0.0656  0.2980
 7086W        W23560   2.055  14.644   2.978  0.1854 -0.1657 -0.0518
 7087W        W23561   2.066  11.387   2.582 -0.1010 -0.0793  0.0529
 7088W        W23562   5.098  11.449   3.675 -0.1579 -0.1098  0.1237
 7089W        W23563   8.659   5.633  14.253 -0.1215 -0.1156  0.0531
 7090W        W23564   2.295   7.926  12.995 -0.0091 -0.0744 -0.0384
 7091W        W23565   9.851   9.283   0.349  0.0710 -0.0320  0.0924
 7092W        W23566  11.098   3.443  12.484 -0.1510 -0.1210 -0.1636
 7093W        W23567   9.502   4.075  14.663 -0.2529  0.0041  0.2985
 7094W        W23568  16.124   5.232   3.901 -0.0387  0.1711 -0.2256
 7095W        W23569   4.339  12.928  10.336 -0.4092 -0.1400  0.1555
 7096W        W23570   3.044  12.720   0.386  0.3381 -0.2755  0.0072
 7097W        W23571   8.576   0.042  14.557  0.0011 -0.1457 -0.2970
 7098W        W23572   2.956   1.022   0.880  0.0375  0.0440  0.2096
 7099W        W23573   9.578   2.758  15.908 -0.3334  0.0377  0.0338
 7100W        W23574  13.607  11.584   1.625 -0.1612 -0.2275  0.0159
 7101W        W23575   5.743  13.567   3.959 -0.2215  0.1689 -0.2934
 7102W        W23576   4.137   4.732  10.879  0.1681  0.0598 -0.1646
 7103W        W23577  12.519  11.061  12.476 -0.1777 -0.1784  0.3095
 7104W        W23578  17.576   8.918  12.145  0.0010 -0.0269  0.0186
 7105W        W23579  11.769  10.316   1.114 -0.1235  0.0056 -0.2032
 7106W        W23580  17.216   4.343   5.060 -0.2434 -0.0036  0.0074
 7107W        W23581  15.651   6.149  13.767  0.2080  0.0717 -0.1477
 7108W        W23582  10.131  13.196   2.720  0.0878 -0.2793  0.1306
 7109W        W23583   5.333   5.454   0.726 -0.0685 -0.1811 -0.2147
 7110W        W23584  17.725   5.999   0.251  0.0812 -0.2146 -0.1093
 7111W        W23585  16.342   2.382  13.653  0.1871 -0.1059  0.1656
 7112W        W23586  10.779   4.188   4.620  0.0599  0.0047  0.1368
 7113W        W23587  13.055  13.427   0.646  0.1643 -0.5432  0.0275
 7114W        W23588  15.539   9.256   1.834 -0.2708  0.0336 -0.2650
 7115W        W23589   6.407  15.493   3.627 -0.2494 -0.1950 -0.1989
 7116W        W23590   5.772   1.671  13.875 -0.2792  0.0593  0.1584
 7117W        W23591   3.373   0.212  10.949  0.1666  0.2894 -0.2542
 7118W        W23592   0.407   4.483  14.034  0.4602 -0.2616 -0.0203
 7119W        W23593   1.266   5.899  10.021 -0.0900 -0.3660  0.3424
 7120W        W23594   0.797  13.307  14.688 -0.1624  0.1138  0.0055
 7121W        W23595  15.399   1.502   5.869  0.2659  0.0776 -0.2455
 7122W        W23596  12.702  16.128   4.942  0.1501  0.2870 -0.1786
 7123W        W23597   4.511   9.862  14.579  0.0827 -0.0233 -0.1135
 7124W        W23598  12.620   9.797   0.807 -0.0557 -0.1234 -0.2684
 7125W        W23599   7.941  16.057   4.978  0.1083  0.0132 -0.0390
 7126W        W23600   9.863  13.519   2.280 -0.0381 -0.0577 -0.0109
 7127W        W23601  17.761   2.078   4.924 -0.2993  0.0274 -0.3799
 7128W        W23602  16.123  11.127  12.806 -0.1669  0.2354 -0.1149
 7129W        W23603  14.367   9.295  14.242 -0.0861  0.2286 -0.0354
 7130W        W23604  15.628  11.513   5.444  0.1668  0.1542  0.1033
 7131W        W23605   0.697  16.432  15.537 -0.1598  0.0450 -0.0428
 7132W        W23606   4.566   1.756  15.808 -0.1607 -0.1497 -0.0755
 7133W        W23607  14.696  16.062   0.474  0.0579  0.0291 -0.1087
 7134W        W23608   2.467   2.102   3.774 -0.1225 -0.0480 -0.0969
 7135W        W23609   3.943  14.396   0.969  0.0222 -0.1601 -0.0007
 7136W        W23610   7.046  11.691   2.902  0.1689 -0.1714  0.0266
 7137W        W23611   9.078   4.800  11.085  0.0703  0.2371  0.0030
 7138W        W23612   9.387  10.596   3.792  0.1068 -0.2409  0.1575
 7139W        W23613  17.935  18.264   2.512 -0.0267 -0.1452 -0.1750
 7140W        W23614  15.592  12.174   1.948  0.0999 -0.2938  0.0376
 7141W        W23615  15.581  14.818   3.043  0.0504  0.0973  0.1195
 7142W        W23616   2.675  17.820   5.717  0.2534  0.2953  0.1636
 7143W        W23617   7.716   9.879   2.317  0.0501 -0.1723  0.0461
 7144W        W23618  14.260   5.317  12.530  0.4415 -0.2653  0.2792
 7145W        W23619   7.799   7.352   2.727  0.0767  0.0175  0.1854
 7146W        W23620   8.642   1.451  14.888 -0.0266 -0.2108  0.2359
 7147W        W23621   8.738  15.261  13.512 -0.1926  0.1303  0.1632
 7148W        W23622   9.833  11.503  12.785  0.0806 -0.0958 -0.1363
 7149W        W23623  14.030   3.540  11.170 -0.3945  0.2030  0.0232
 7150W        W23624   0.428   7.842  14.066 -0.0297  0.0283  0.2198
 7151W        W23625  15.443  14.542   4.586  0.1372 -0.1666  0.2798
 7152W        W23626   3.777   1.640   4.830 -0.0278  0.0255  0.2825
 7153W        W23627   8.020   3.510  14.323  0.0755 -0.0746  0.0180
 7154W        W23628  17.278  10.213   3.105 -0.1109 -0.1801  0.2272
 7155W        W23629  18.387  13.008   1.709  0.1952 -0.1600  0.2490
 7156W        W23630  11.838  14.342   3.209 -0.0753  0.1408  0.0681
 7157W        W23631   3.978  17.055  10.252 -0.2174  0.0831 -0.1943
 7158W        W23632   0.369   8.567   0.792 -0.2178  0.0579 -0.1564
 7159W        W23633  12.753  18.027  10.805  0.0263  0.3681 -0.2255
 7160W        W23634  17.373  14.607   4.654  0.1820 -0.1378 -0.1450
 7161W        W23635   5.456   1.096   0.699 -0.1643  0.0131  0.3050
 7162W        W23636  15.413  10.404  15.732  0.0250  0.2919  0.1927
 7163W        W23637  13.556  11.247   4.583  0.4408 -0.1018 -0.1229
 7164W        W23638  14.367  11.450   4.193  0.4462 -0.1556  0.3214
 7165W        W23639  16.741   3.702   4.616  0.1502 -0.0310  0.1371
 7166W        W23640   4.897   7.982  12.536  0.0224 -0.1045 -0.2664
 7167W        W23641   4.490   1.940   0.336 -0.0699 -0.3419 -0.2350
 7168W        W23642  12.991  13.117  11.778 -0.1544  0.2158  0.2412
 7169W        W23643  13.745   7.454   0.065  0.1052 -0.1669  0.1109
 7170W        W23644   1.298   7.284   5.463 -0.0248 -0.0793  0.2109
 7171W        W23645  16.034   3.620  10.709 -0.2605  0.0458 -0.0490
 7172W        W23646   1.281  16.223   2.065 -0.0478 -0.1025  0.1857
 7173W        W23647  11.755  17.288  11.594 -0.0539 -0.1991  0.0445
 7174W        W23648  17.367  12.452  12.001  0.3279 -0.0136  0.2063
 7175W        W23649  11.775   6.492  12.344 -0.0473  0.0659 -0.0834
 7176W        W23650   3.507   4.197  15.498  0.0892 -0.1677  0.0308
 7177W        W23651  17.307   1.997   5.344 -0.1869  0.0219  0.0053
 7178W        W23652  11.756   9.034  12.168  0.0458 -0.2522  0.2362
 7179W        W23653   1.304  18.294  10.156 -0.2370 -0.2244  0.0807
 7180W        W23654   3.947  10.589   2.011 -0.0591 -0.0904 -0.5210
 7181W        W23655   8.357   4.213   4.049 -0.1666  0.1100  0.1385
 7182W        W23656   7.895  16.861  11.580  0.1027 -0.4290 -0.1764
 7183W        W23657  12.022   5.189   1.238 -0.1435 -0.3174 -0.0509
 7184W        W23658  12.508   3.508   4.587 -0.0511  0.0127  0.2468
 7185W        W23659  11.546   4.439   2.551 -0.1014 -0.0861  0.1810
 7186W        W23660  16.358  17.517   3.482  0.3016 -0.0358  0.2836
 7187W        W23661  14.267  14.055   3.072 -0.0826  0.2101  0.3818
 7188W        W23662  17.479  12.476   0.869 -0.0328  0.0838 -0.0190
 7189W        W23663  10.300  17.137   1.310 -0.1880  0.2039  0.1328
 7190W        W23664  10.241  14.429  15.466 -0.1753 -0.0234  0.0371
 7191W        W23665   7.967   8.436   4.056  0.4181 -0.1659 -0.1147
 7192W        W23666  10.088  15.376   5.134 -0.1436  0.0969 -0.0595
 7193W        W23667   8.290   9.146  12.011  0.1445  0.3597 -0.2244
 7194W        W23668   3.242  10.678   4.726 -0.0143  0.1299  0.0575
 7195W        W23669   5.338  17.762  11.093 -0.0256 -0.0763  0.1499
 7196W        W23670   9.702   3.927  15.121  0.1157 -0.0192 -0.0438
 7197W        W23671   3.716   8.321   0.033  0.0789  0.1272  0.3013
 7198W        W23672   2.625   7.272   9.871  0.2089 -0.0092  0.2152
 7199W        W23673  11.396  18.193  11.587 -0.1064  0.0089  0.0700
 7200W        W23674   5.983  13.303  12.305  0.0246  0.2959  0.0274
 7201W        W23675   0.477   8.316   1.629  0.0053 -0.1929  0.3713
 7202W        W23676  10.421   3.720   4.436  0.0393  0.0126 -0.1729
 7203W        W23677  11.604  15.633  15.290 -0.1737 -0.1016 -0.1147
 7204W        W23678  17.608   9.139  14.804 -0.0224  0.0329  0.1911
 7205W        W23679  12.570   2.778  15.899  0.0459 -0.3464 -0.1556
 7206W        W23680  11.350  17.022  15.191 -0.0418 -0.0271  0.0692
 7207W        W23681   1.274   5.678  12.052  0.0640 -0.2743 -0.1065
 7208W        W23682  15.532  17.769  12.046  0.1164 -0.3847 -0.0500
 7209W        W23683  17.693  16.865   4.285 -0.0335  0.0096  0.1781
 7210W        W23684  14.811   8.022   3.702  0.1471 -0.0212 -0.1392
 7211W        W23685  17.203   4.258  15.414  0.1691 -0.0681  0.0052
 7212W        W23686  14.585   6.747   2.421 -0.0009 -0.2133 -0.1440
 7213W        W23687  17.602   4.334   0.536  0.2463 -0.0648 -0.1823
 7214W        W23688   8.652   6.201   2.517  0.0092 -0.0236 -0.0459
 7215W        W23689   7.786   3.668  15.796  0.0576 -0.2045  0.0060
 7216W        W23690  18.304   7.057   4.970 -0.0388  0.2113  0.1459
 7217W        W23691   8.300   6.990  12.638  0.0341  0.6393 -0.0394
 7218W        W23692   6.386  17.926  13.267  0.0912 -0.0930 -0.1021
 7219W        W23693  14.060   6.061   1.926 -0.0054  0.2114 -0.0625
 7220W        W23694   2.108  16.032   4.475  0.0458 -0.3172 -0.1636
 7221W        W23695   7.653   8.387   5.923 -0.1167 -0.0165  0.0252
 7222W        W23696  15.254   8.014  14.527  0.3077  0.2021  0.3251
 7223W        W23697  10.949   4.229   5.311  0.4221  0.0580  0.2178
 7224W        W23698   7.149   1.311  15.064 -0.1699  0.2847 -0.1267
 7225W        W23699   3.668  14.473  15.805  0.0935 -0.3918  0.2093
 7226W        W23700   4.337   1.558  12.763 -0.1622  0.0202 -0.0446
 7227W        W23701   7.425   8.342  14.398 -0.0197 -0.0155 -0.1999
 7228W        W23702  16.002  15.738  12.719  0.1017 -0.2189  0.2664
 7229W        W23703  10.083   5.137   3.066  0.0588  0.0129 -0.3714
 7230W        W23704   4.419  13.913   2.539  0.1132  0.0888 -0.2837
 7231W        W23705   7.457   3.151  15.689  0.2869 -0.2716 -0.0789
 7232W        W23706   1.124  11.348  14.111 -0.1959  0.5660  0.1826
 7233W        W23707   8.105  16.833  15.072  0.0887  0.0246 -0.0980
 7234W        W23708   1.457   3.841   3.994 -0.1100 -0.1607 -0.2482
 7235W        W23709   2.186   7.746  13.483 -0.0221  0.2161  0.0007
 7236W        W23710  12.835   4.235   3.843 -0.1959 -0.2283  0.1394
 7237W        W23711  10.155  17.177   2.316 -0.1615  0.2788  0.0324
 7238W        W23712   6.808  13.785   2.726  0.1794  0.1032  0.1854
 7239W        W23713  12.036   5.770   4.267 -0.0827  0.1043 -0.0476
 7240W        W23714  17.730   5.908  13.868 -0.1147 -0.2133  0.1106
 7241W        W23715   3.729   6.691   1.917 -0.1250  0.1387 -0.1344
 7242W        W23716   4.050  15.264  14.141 -0.0517  0.1307  0.1168
 7243W        W23717   1.929   3.798  14.367 -0.3474  0.0027 -0.0732
 7244W        W23718   2.241  12.766  12.878  0.2132  0.1156 -0.1089
 7245W        W23719   5.062  10.237  11.476  0.1542  0.0349  0.0936
 7246W        W23720  15.352   9.390   4.721 -0.1623 -0.1031  0.1377
 7247W        W23721  17.764  17.538  14.402 -0.0424 -0.2297 -0.1903
 7248W        W23722  15.483   5.814  12.785 -0.1599 -0.0104  0.3259
 7249W        W23723   9.374   3.501  13.070  0.2934  0.5031  0.1477
 7250W        W23724   6.307   4.805  11.622  0.1572 -0.0938 -0.0521
 7251W        W23725  13.572   0.609   0.563  0.2429 -0.1359 -0.0858
 7252W        W23726   1.436  16.032  11.708 -0.1749  0.0632 -0.1210
 7253W        W23727   0.665   5.747  14.632 -0.3472  0.1748  0.1449
 7254W        W23728   7.944  13.613  10.839 -0.0140  0.3485 -0.1336
 7255W        W23729   8.252  14.844  15.623 -0.2466  0.0644 -0.0453
 7256W        W23730   8.250   0.225  12.280 -0.0189  0.1516  0.4302
 7257W        W23731  10.364   6.826   2.160 -0.0907 -0.0964  0.1330
 7258W        W23732   0.307   6.044  13.517 -0.2529 -0.3541 -0.2365
 7259W        W23733   1.976  17.203   1.612  0.0955 -0.0570 -0.0371
 7260W        W23734   0.990   6.521   5.862  0.2298 -0.2615  0.1827
 7261W        W23735  18.472  15.048  14.599 -0.0290 -0.1389  0.2039
 7262W        W23736   0.277   1.220   2.603  0.4465 -0.1254 -0.0812
 7263W        W23737   5.475  10.519   3.241  0.1713  0.2992 -0.1211
 7264W        W23738  13.918   1.979   1.438 -0.2709  0.2159 -0.1397
 7265W        W23739  13.480   4.697   4.294 -0.4536 -0.1809  0.0636
 7266W        W23740   0.875  10.754   5.448  0.4964  0.0386 -0.2303
 7267W        W23741   7.652   6.509   5.627  0.0156  0.0522 -0.1296
 7268W        W23742  17.586  16.344  13.755 -0.0509 -0.1362 -0.1647
 7269W        W23743  12.383  15.378   1.494  0.0494  0.2603  0.0660
 7270W        W23744  10.470  11.900   4.554  0.2297  0.1429 -0.2122
 7271W        W23745  17.974   7.742   6.166 -0.1157  0.0028 -0.2263
 7272W        W23746  10.456   0.265  15.580 -0.0838  0.1581  0.2285
 7273W        W23747  12.033  17.563   4.746 -0.0912 -0.3128  0.1806
 7274W        W23748   7.935  16.507   3.451 -0.3719  0.0176  0.0112
 7275W        W23749  13.261   3.009   4.327 -0.1339  0.3895 -0.3401
 7276W        W23750  11.407  12.071   1.912 -0.0505  0.1390  0.1267
 7277W        W23751  10.862  17.530   3.976  0.1978 -0.1331 -0.0257
 7278W        W23752   0.021  13.172   1.151 -0.2629  0.1301 -0.1572
 7279W        W23753   6.851  13.176  13.161  0.1763 -0.0357 -0.0030
 7280W        W23754   0.352  12.929   2.510 -0.0786  0.1500 -0.4200
 7281W        W23755  16.289  12.475  15.706 -0.0318  0.3295 -0.1821
 7282W        W23756   7.799   1.911   0.155 -0.0047  0.2829  0.3710
 7283W        W23757   2.776   4.019  15.402  0.5251  0.0458 -0.1890
 7284W        W23758   5.905  15.204   5.513  0.1650  0.0216 -0.0550
 7285W        W23759  14.502   9.876   3.762  0.0411  0.2544 -0.1042
 7286W        W23760  12.456  18.151  14.527  0.3999 -0.0754 -0.2370
 7287W        W23761   2.049   9.222   4.393  0.2900  0.0065 -0.0856
 7288W        W23762  10.220   9.447   5.597  0.2839  0.0782 -0.1221
 7289W        W23763   5.442   3.886  15.913  0.2401  0.0016 -0.0778
 7290W        W23764  16.840   0.040  14.562 -0.0507  0.4650  0.1148
 7291W        W23765  15.485  17.810   4.593  0.0141  0.1166 -0.2474
 7292W        W23766   8.583  13.532   5.433 -0.1224 -0.1365  0.0579
 7293W        W23767   2.714  15.484  14.954 -0.3757 -0.1095 -0.1125
 7294W        W23768  10.794   3.834  13.947  0.0106 -0.0684  0.2077
 7295W        W23769  10.890  14.136  15.594  0.2315 -0.0370  0.0612
 7296W        W23770  14.498   8.169   1.937  0.0815  0.0618 -0.0637
 7297W        W23771  14.848   6.691   3.142  0.1129  0.0434  0.3561
 7298W        W23772  11.583   6.573   2.188 -0.0601 -0.2930 -0.0797
 7299W        W23773   8.065  17.915  12.580 -0.2586  0.1267  0.2306
 7300W        W23774  14.178  14.981   0.251 -0.2384 -0.0662 -0.1244
 7301W        W23775   9.235  15.205   2.155  0.0310 -0.0044 -0.1279
 7302W        W23776   6.172   9.192  14.068  0.3228  0.0688  0.0331
 7303W        W23777   5.604   7.893   2.808 -0.1404  0.1869 -0.3821
 7304W        W23778  10.981  14.152  12.416  0.0100  0.2720 -0.0756
 7305W        W23779  10.419  17.608   2.683 -0.0453  0.0715  0.0450
 7306W        W23780  13.326  14.785  14.175 -0.0456  0.2296  0.0198
 7307W        W23781  16.044   9.082   0.978  0.0289  0.1884 -0.0416
 7308W        W23782   6.681   4.925   2.657 -0.2568 -0.2564 -0.1761
 7309W        W23783  13.064   5.201   3.547 -0.1112 -0.1571 -0.3788
 7310W        W23784   1.784   4.453   5.290  0.1805 -0.2203 -0.1565
 7311W        W23785  16.156   4.448   0.555  0.0329  0.1419 -0.1869
 7312W        W23786  18.337   1.122  11.143 -0.0011  0.2080  0.0598
 7313W        W23787   4.423   4.852  12.174  0.0681 -0.1449  0.0247
 7314W        W23788   6.377   6.846  10.843  0.0108  0.4073 -0.3148
 7315W        W23789   4.047   8.225   3.721 -0.1207  0.2090  0.3196
 7316W        W23790   2.041  18.187   1.461  0.3008  0.3435  0.0893
 7317W        W23791  13.452   5.602  11.258 -0.1975 -0.0353  0.1882
 7318W        W23792  17.164   7.914   5.074 -0.1787  0.0911  0.1292
 7319W        W23793  11.489   1.156   2.520 -0.0075 -0.1989 -0.0939
 7320W        W23794  10.753   1.327  12.903  0.1261  0.0791  0.0546
 7321W        W23795   9.561   4.721  11.198 -0.2760 -0.0056 -0.2103
 7322W        W23796  16.993   0.089  11.999  0.0084 -0.2684  0.2976
 7323W        W23797  18.227  17.327  11.842 -0.0918  0.0984  0.0705
 7324W        W23798   5.892  14.860  14.223  0.0813 -0.0038 -0.2029
 7325W        W23799   4.676  10.103  13.402  0.2453  0.0399  0.1595
 7326W        W23800  15.414  14.216  13.209 -0.0832 -0.0877  0.2158
 7327W        W23801  11.186  13.952  11.580  0.1995 -0.0930  0.4759
 7328W        W23802   4.598  11.878  13.813 -0.1670 -0.1339 -0.2885
 7329W        W23803   7.383   5.100   3.232 -0.0924 -0.1120  0.2782
 7330W        W23804  14.182   6.616   2.032 -0.0498 -0.4147 -0.1635
 7331W        W23805   0.405   4.295   3.346 -0.0797  0.1671  0.1123
 7332W        W23806  18.300  14.878   1.483 -0.2943  0.0679 -0.0754
 7333W        W23807   2.718  16.915  12.603  0.0880  0.3686  0.0319
 7334W        W23808  17.784   9.643  12.854  0.3134 -0.0315  0.5179
 7335W        W23809   5.190   1.779   2.892  0.1012 -0.0697  0.1115
 7336W        W23810   3.301  12.462  15.268  0.1272  0.2983  0.0220
 7337W        W23811  15.094  16.339   0.334 -0.2002  0.5420  0.3320
 7338W        W23812   9.016   1.380  14.120  0.0756 -0.0366  0.1881
 7339W        W23813   5.969  11.706   5.531  0.1175 -0.0328  0.1554
 7340W        W23814  15.666   4.319  12.101 -0.0820 -0.0726  0.1801
 7341W        W23815   7.153  16.506   0.270  0.2615  0.0575  0.0103
 7342W        W23816   5.666  11.945  11.843 -0.1431  0.1705 -0.2910
 7343W        W23817   0.006  17.445   0.379  0.1755 -0.0458  0.0208
 7344W        W23818   0.575   8.188   1.121  0.0860  0.1883 -0.2062
 7345W        W23819   9.699   1.562   3.717 -0.1850 -0.1624 -0.4981
 7346W        W23820  10.446   3.123  10.690 -0.1847 -0.0723  0.1536
 7347W        W23821   7.002   7.741   4.019  0.1103 -0.3281  0.0211
 7348W        W23822  13.692  12.169  14.016  0.0231 -0.1896  0.2882
 7349W        W23823  13.740  17.167   0.782  0.1965 -0.2587 -0.1164
 7350W        W23824  17.944  17.168  14.872 -0.0675 -0.1412 -0.2347
 7351W        W23825   1.544  12.938  11.699 -0.3802  0.0630  0.1800
 7352W        W23826  15.601  10.044  15.324 -0.1680 -0.1647  0.0133
 7353W        W23827   0.041   4.861  13.756 -0.4598 -0.0480 -0.4604
 7354W        W23828   8.761   4.684  15.726 -0.2094  0.0092  0.2368
 7355W        W23829   9.173   2.284  14.943 -0.0289 -0.0848  0.1645
 7356W        W23830  12.508  12.857   3.709  0.1622  0.1057  0.0592
 7357W        W23831   6.368   8.250   5.833 -0.1636  0.3480 -0.1078
 7358W        W23832  18.402  10.249  14.473  0.0926 -0.1581 -0.0915
 7359W        W23833  18.385   1.020  14.797 -0.1517 -0.0803 -0.2372
 7360W        W23834   7.858   6.766  14.050  0.0389 -0.3656  0.0241
 7361W        W23835  11.419  17.373  14.833 -0.1081  0.1102 -0.1539
 7362W        W23836  17.682   6.193   2.820  0.1183  0.0900 -0.1287
 7363W        W23837  10.012   9.940   1.005  0.0514  0.0983 -0.2436
 7364W        W23838  15.889   7.162  14.054  0.1672 -0.5357 -0.1558
 7365W        W23839   2.584  15.857   0.576  0.1430 -0.2334 -0.1585
 7366W        W23840  15.278  11.401  12.725 -0.0179 -0.1853  0.1893
 7367W        W23841  13.042  16.876   2.339 -0.0744 -0.1141  0.1016
 7368W        W23842  12.826   1.616   2.830 -0.1222  0.0008  0.1977
 7369W        W23843   8.568  10.574   4.425 -0.0105 -0.1672  0.0143
 7370W        W23844  15.535  16.635   4.320  0.2441  0.0784 -0.1139
 7371W        W23845  17.597   9.150   2.991 -0.3676 -0.1166  0.2901
 7372W        W23846   7.686  10.309   4.432  0.0860 -0.0465 -0.3732
 7373W        W23847  17.888   4.251  14.186  0.1408  0.0449  0.2753
 7374W        W23848   0.474  17.555  14.477  0.0704 -0.0165  0.3062
 7375W        W23849  16.725   3.791  13.602  0.0221 -0.4562 -0.3606
 7376W        W23850  14.601   8.568  11.903 -0.0011  0.0080 -0.1528
 7377W        W23851   0.395   4.875  10.155 -0.0127 -0.1581 -0.1137
 7378W        W23852  16.418   1.646   1.936  0.1468 -0.1975  0.0419
 7379W        W23853   2.516  16.749   2.950 -0.4427  0.0248  0.0219
 7380W        W23854   9.099   7.439   2.027  0.3270 -0.0914  0.0131
 7381W        W23855   7.410  15.319  11.372 -0.2688  0.1447 -0.0346
 7382W        W23856  11.842   4.207   2.951  0.0528 -0.1271 -0.1548
 7383W        W23857  12.185   2.585  13.760 -0.0282  0.2764  0.0405
 7384W        W23858   4.451  10.014  13.847 -0.0126 -0.0636  0.0044
 7385W        W23859   1.004  15.063  13.790 -0.0716 -0.2113 -0.1073
 7386W        W23860  12.024  10.373  14.449 -0.3089  0.2331 -0.0549
 7387W        W23861   6.010   3.078   3.094 -0.0981  0.0954  0.3073
 7388W        W23862   6.715   9.065  12.281  0.2320 -0.2084 -0.1495
 7389W        W23863   0.011   0.064   3.702  0.1982 -0.2760  0.1800
 7390W        W23864   7.525   0.414   5.670  0.1924 -0.2175 -0.2384
 7391W        W23865   2.604   2.180   2.796  0.1011  0.0159  0.0632
 7392W        W23866   0.002   2.145  11.176  0.0805  0.0704 -0.1578
 7393W        W23867   8.705  15.824   1.939  0.0347  0.1855  0.0577
 7394W        W23868   9.673   9.654   0.701 -0.0416 -0.2301  0.2566
 7395W        W23869   6.684  10.776   2.589  0.1275  0.2555  0.0100
 7396W        W23870  15.091   9.264   3.480  0.1485 -0.1860 -0.0409
 7397W        W23871   3.608  16.357   2.012  0.0828  0.2835  0.1702
 7398W        W23872  13.370  18.416  13.654 -0.0016  0.3010 -0.0292
 7399W        W23873   5.410  16.197   3.505  0.1013 -0.4620  0.2684
 7400W        W23874  12.750   0.017  15.327 -0.2196  0.1664  0.0490
 7401W        W23875  10.627  11.454  11.952  0.0367  0.0754 -0.1469
 7402W        W23876   9.107  13.644  15.803  0.1956  0.2036  0.3489
 7403W        W23877  15.744  14.452  11.921  0.1480 -0.0568  0.4149
 7404W        W23878  12.594  17.200   1.337  0.0516 -0.0107  0.0312
 7405W        W23879  11.145  12.284  14.252  0.2321 -0.2860  0.1069
 7406W        W23880  10.939  13.830   2.816  0.3766 -0.1580 -0.0609
 7407W        W23881  14.986  14.177   2.451 -0.2156  0.0017  0.1086
 7408W        W23882  17.664  16.854   1.764 -0.0073 -0.2169  0.0117
 7409W        W23883   6.525   1.017   1.831 -0.1908  0.3481 -0.0780
 7410W        W23884  10.198   4.816   0.988  0.1112 -0.1778 -0.1457
 7411W        W23885   9.488  13.420   1.898 -0.0349 -0.1640  0.1025
 7412W        W23886   8.844   3.710  13.158  0.0545  0.1846 -0.1501
 7413W        W23887   2.538   2.770   2.806  0.0736  0.1157  0.0661
 7414W        W23888   2.760  17.382  15.052 -0.1005 -0.2956 -0.2746
 7415W        W23889   6.620   4.401  11.292 -0.0506 -0.1269  0.2492
 7416W        W23890   1.885  12.493  13.586 -0.1395 -0.2178  0.1744
 7417W        W23891  11.189   7.470   0.486 -0.0679  0.0148  0.0074
 7418W        W23892   0.776   2.173  14.672  0.0103 -0.1370 -0.1672
 7419W        W23893   0.133  15.921   4.171  0.2016  0.3776 -0.3240
 7420W        W23894   5.012   5.618   1.460 -0.4383  0.3271 -0.1704
 7421W        W23895   9.486  17.156  11.618  0.0762  0.1719  0.2844
 7422W        W23896   5.969   3.605  13.091 -0.0319 -0.0559 -0.0424
 7423W        W23897   9.268  18.429   0.317  0.1311 -0.0643 -0.1513
 7424W        W23898   3.913   4.793  14.983  0.1447 -0.2101 -0.0444
 7425W        W23899   6.847   9.117   2.144  0.1963 -0.0709  0.1147
 7426W        W23900   8.316  15.800   5.636 -0.0498  0.0359 -0.2253
 7427W        W23901   9.587  17.438  14.348 -0.1011  0.1777 -0.0622
 7428W        W23902   7.657  12.230   1.670  0.0146 -0.0695  0.1051
 7429W        W23903   1.748   8.983   0.643 -0.1289 -0.0409 -0.0925
 7430W        W23904   7.333  10.521  13.617  0.1961  0.2809 -0.1122
 7431W        W23905   3.635  12.372  13.344 -0.1017 -0.3786 -0.0418
 7432W        W23906   8.552  15.204   0.763  0.0706  0.0188 -0.2086
 7433W        W23907  13.917  11.933  12.927  0.1925 -0.1309  0.2439
 7434W        W23908  15.796   1.504  13.932  0.0980 -0.1813  0.0791
 7435W        W23909  11.323  11.548  13.628  0.0044 -0.1808  0.1525
 7436W        W23910  13.925   7.324   3.643  0.0292  0.1693  0.0200
 7437W        W23911  18.245  12.273   1.599  0.0258 -0.0843 -0.0076
 7438W        W23912  16.568   0.125  12.406  0.1070 -0.0185  0.2001
 7439W        W23913  16.732  17.418  14.900  0.2417 -0.0017  0.2446
 7440W        W23914  16.192   2.940   2.577 -0.2416  0.0332  0.2381
 7441W        W23915  13.669   9.486  13.770  0.2194 -0.0552 -0.1614
 7442W        W23916   6.215  13.544  15.753 -0.1677 -0.0031 -0.1510
 7443W        W23917  18.015   9.240   2.738 -0.0785  0.0612 -0.0636
 7444W        W23918   5.622   8.411  11.933  0.0578  0.1001  0.3459
 7445W        W23919   4.188  16.978   0.958 -0.0618  0.0459 -0.1940
 7446W        W23920  11.545   8.899   0.316 -0.2140 -0.5100  0.1268
 7447W        W23921   9.702  15.058   5.860 -0.0145  0.0307  0.0261
 7448W        W23922  12.943   2.808  14.384 -0.4582  0.0421 -0.0176
 7449W        W23923   4.774   4.503   0.112  0.0069 -0.0759  0.2763
 7450W        W23924   3.005  13.121  12.786  0.2674 -0.0087  0.0314
 7451W        W23925   0.351  11.140   3.505 -0.0979 -0.3208  0.0780
 7452W        W23926  16.311  13.315  11.370 -0.2159 -0.2477 -0.1766
 7453W        W23927   7.675  10.145   0.664 -0.1113  0.4483  0.0210
 7454W        W23928   8.922   1.733   2.029 -0.1213 -0.1298  0.1985
 7455W        W23929   9.534   4.131  10.067 -0.0619 -0.0996  0.0872
 7456W        W23930  14.043   6.195   3.148  0.0657  0.2842 -0.0630
 7457W        W23931  16.674   8.663  13.094 -0.0291  0.0085  0.0490
 7458W        W23932  14.848  17.091  11.548 -0.4005  0.3891  0.1078
 7459W        W23933  12.205  17.052   4.723  0.0112  0.1974 -0.1135
 7460W        W23934   3.394  14.712   4.030  0.0707  0.0442  0.0193
 7461W        W23935  18.469  12.748   0.036 -0.1504 -0.1605  0.0152
 7462W        W23936   4.156  12.417  12.539 -0.0633 -0.1438  0.0576
 7463W        W23937  12.190   2.883  14.921 -0.0347 -0.0116  0.3136
 7464W        W23938  11.319   3.435  11.761  0.1683  0.1013 -0.2032
 7465W        W23939  10.772  18.213  10.454 -0.1523 -0.3345  0.5580
 7466W        W23940  10.158  15.353   2.775 -0.0351  0.0597  0.1744
 7467W        W23941   8.496   2.795   3.329 -0.1695  0.2947 -0.3943
 7468W        W23942  18.470  16.425  11.842 -0.0511  0.0647  0.1973
 7469W        W23943   6.009  13.147  14.325 -0.1043 -0.2388 -0.1548
 7470W        W23944   2.063   6.414   2.989 -0.1850  0.0670  0.0026
 7471W        W23945   8.900   3.702   4.935 -0.0573 -0.1286 -0.2457
 7472W        W23946  16.209  16.304  13.004 -0.0183 -0.3705 -0.2154
 7473W        W23947   0.645  10.227  14.535 -0.0911  0.0639  0.0906
 7474W        W23948   4.162   8.298   2.784  0.1419 -0.0673 -0.0596
 7475W        W23949  14.355   1.533   0.323  0.2780 -0.1496 -0.1350
 7476W        W23950  13.985   5.072   5.777 -0.1954  0.2397  0.1626
 7477W        W23951   8.805   3.066   1.447  0.3705 -0.1233  0.0558
 7478W        W23952  11.382  17.625  15.881 -0.1666 -0.1934  0.0543
 7479W        W23953  17.331  10.976   3.827 -0.1676 -0.1778 -0.2741
 7480W        W23954   3.252  15.523  11.531 -0.0294  0.0532 -0.1824
 7481W        W23955  11.157   9.363  12.635 -0.0872  0.0909 -0.0124
 7482W        W23956   3.894   1.251  12.711  0.1340 -0.2040  0.1292
 7483W        W23957  14.696  10.624   4.594  0.0336  0.1723 -0.1195
 7484W        W23958   8.424   2.096   0.638 -0.0756 -0.1759  0.0196
 7485W        W23959  12.656  12.007   2.088 -0.2426  0.0291  0.1489
 7486W        W23960  17.868   2.919   5.297  0.1660 -0.1757  0.0064
 7487W        W23961  10.561  13.809   4.801  0.1136  0.1502 -0.1649
 7488W        W23962   5.813   0.875  10.731 -0.2091 -0.1172  0.2404
 7489W        W23963   7.506  15.538  12.890  0.0042  0.1304  0.1111
 7490W        W23964   5.639   6.141  11.915  0.3296 -0.1259  0.0929
 7491W        W23965   8.829  13.850  14.788 -0.1824 -0.1811  0.2678
 7492W        W23966   9.765  17.915  14.402 -0.1717  0.1838  0.2581
 7493W        W23967   0.656   6.800  13.312  0.4053  0.0612 -0.0455
 7494W        W23968  13.940  13.231   2.682  0.3447  0.1167  0.0421
 7495W        W23969   6.972  13.514   4.307  0.0209 -0.0294 -0.1214
 7496W        W23970  13.229  15.373  13.323 -0.0652  0.2267 -0.2055
 7497W        W23971  15.556   4.017   4.555  0.1752 -0.1417  0.0594
 7498W        W23972   3.876  11.804  14.600  0.0249 -0.0591 -0.2492
 7499W        W23973   1.597  14.327  11.906 -0.2111  0.0225 -0.0244
 7500W        W23974   2.330  12.120  15.320 -0.3276  0.1630  0.0779
 7501W        W23975   3.524  17.754   1.147 -0.0521  0.0392 -0.2705
 7502W        W23976  17.220  17.603  13.035  0.1310 -0.0568 -0.1253
 7503W        W23977  17.935   7.417  10.984  0.0491  0.0647 -0.2073
 7504W        W23978  15.280   5.503   1.361 -0.0940 -0.0819 -0.0885
 7505W        W23979   0.678  14.401  13.229 -0.2001  0.0855 -0.0715
 7506W        W23980   4.392   1.023  14.576  0.1918 -0.0422 -0.0318
 7507W        W23981  17.977  13.515   2.671 -0.1211  0.0924  0.2443
 7508W        W23982   9.380   2.105   5.276  0.0331 -0.0548  0.3030
 7509W        W23983  17.161   8.626  15.032 -0.2158 -0.0085  0.0489
 7510W        W23984  12.121  15.023  15.537 -0.2006 -0.1144  0.1518
 7511W        W23985   3.150   7.611  13.501  0.0520 -0.0267  0.1381
 7512W        W23986  14.507   3.377  11.013 -0.0506 -0.0310  0.1343
 7513W        W23987   7.925   4.033   5.202  0.2293 -0.0023 -0.1325
 7514W        W23988  12.547  13.359  15.326 -0.2476  0.1782  0.0827
 7515W        W23989  11.383   5.256   3.845  0.0445 -0.1183 -0.1529
 7516W        W23990  11.894   3.262   3.366 -0.0229  0.2493 -0.1053
 7517W        W23991  15.888   3.290   3.004  0.1629 -0.2309  0.0608
 7518W        W23992   0.358  13.701   1.099  0.2125  0.2147 -0.0766
 7519W        W23993   4.140  11.611   4.081 -0.0753 -0.0232  0.0814
 7520W        W23994  11.388  18.443  15.611 -0.0238  0.0468 -0.0869
 7521W        W23995  17.987   6.869   1.784 -0.2311 -0.1051  0.1259
 7522W        W23996   0.623  15.668  11.571 -0.2185  0.0281 -0.0927
 7523W        W23997  17.136  13.097   1.384  0.1203 -0.3787  0.3048
 7524W        W23998   4.624  14.592   3.173 -0.0392 -0.0387 -0.3821
 7525W        W23999  14.187   9.194  12.316  0.0824  0.0604  0.0810
 7526W        W24000  11.089   7.705   4.697 -0.1562  0.1307  0.2875
 7527W        W24001   2.810   2.472  14.172  0.0212 -0.1930 -0.3682
 7528W        W24002   9.737  16.370   3.085  0.2104  0.0956 -0.2630
 7529W        W24003   1.565  10.311   1.180  0.1027  0.0363 -0.1041
 7530W        W24004  16.571   0.975  14.855  0.3266  0.0012  0.0786
 7531W        W24005  15.332  15.991   0.621  0.1089 -0.0494  0.3200
 7532W        W24006   9.302  14.958   1.716  0.1877 -0.3125 -0.1757
 7533W        W24007   0.380  14.537  12.228  0.1370 -0.0255  0.2580
 7534W        W24008  14.540  10.521   0.720 -0.0759  0.0744  0.1252
 7535W        W24009   7.570  11.661   9.823 -0.1533 -0.1576  0.1408
 7536W        W24010  11.627  17.112   1.148 -0.0064 -0.0281  0.2549
 7537W        W24011   6.187  11.469   1.452  0.1241  0.3503  0.3006
 7538W        W24012   9.691  13.794  13.223 -0.1436  0.1651 -0.0076
 7539W        W24013   6.575   1.551  11.547 -0.2563 -0.0181 -0.3139
 7540W        W24014  13.663   7.943   0.878  0.0217  0.0474 -0.2590
 7541W        W24015  11.235   3.738   5.271  0.0865  0.3912  0.3542
 7542W        W24016  16.230  13.206   1.364 -0.6267 -0.0223 -0.2655
 7543W        W24017  11.451   9.897  15.626  0.2956  0.3993  0.2533
 7544W        W24018   4.637  14.511  11.133 -0.0447  0.1076 -0.0457
 7545W        W24019  13.886  17.956  12.900  0.0239  0.0003 -0.1770
 7546W        W24020   8.221   1.634  14.625 -0.1249 -0.2157  0.1097
 7547W        W24021   7.918   0.729   0.120  0.1204 -0.0181  0.0984
 7548W        W24022   9.639  12.359   1.049 -0.0728  0.1023 -0.0914
 7549W        W24023   4.452   1.735  15.011 -0.1180  0.0575  0.0510
 7550W        W24024   0.017  15.372  11.200  0.1626  0.1386  0.1147
 7551W        W24025   9.845  16.904   0.084 -0.1041  0.0718 -0.1264
 7552W        W24026   8.116   0.084   2.135 -0.1553 -0.1301  0.3105
 7553W        W24027   3.808   3.396   0.101 -0.0948  0.0304 -0.0595
 7554W        W24028  14.009  18.413   4.653  0.1412 -0.2800 -0.1714
 7555W        W24029  12.762   9.075  12.880 -0.2017 -0.1556 -0.0510
 7556W        W24030   6.748   2.878   4.700 -0.3408  0.1785  0.0068
 7557W        W24031  17.453   8.724  10.684 -0.1719 -0.0433 -0.1472
 7558W        W24032  14.147   2.153  12.560 -0.1330  0.0059 -0.0856
 7559W        W24033   9.999  14.586  12.287  0.2374  0.1002 -0.1326
 7560W        W24034   9.674  15.053   4.170 -0.2897  0.0981 -0.0165
 7561W        W24035   2.648  17.371  11.711 -0.2633 -0.2524  0.2011
 7562W        W24036   6.674   0.473   1.198 -0.1678 -0.0475  0.3406
 7563W        W24037   7.117   4.594  13.018  0.1106 -0.2004  0.2103
 7564W        W24038   9.646  12.038  11.900  0.0575  0.1408  0.0323
 7565W        W24039  10.499   9.050   4.288  0.2273 -0.1154  0.0207
 7566W        W24040   0.534   1.586   4.581  0.1113  0.1417  0.0573
 7567W        W24041   7.969   9.468   4.551 -0.1878 -0.0055  0.3203
 7568W        W24042  12.962  10.946   1.184  0.0813 -0.4125 -0.2644
 7569W        W24043   3.114   4.468  14.680  0.0145 -0.0281  0.1097
 7570W        W24044  11.729   1.887  10.463 -0.0318 -0.0238  0.0553
 7571W        W24045   8.926   8.669   2.986  0.2761 -0.0280  0.3455
 7572W        W24046  14.336  10.854  12.549 -0.1743 -0.2001  0.1772
 7573W        W24047  16.751   1.539   4.819  0.1236 -0.2360  0.0240
 7574W        W24048  17.231   5.683   1.827  0.1035  0.0721 -0.2167
 7575W        W24049   0.237  17.341   1.048  0.1399  0.0437  0.0609
 7576W        W24050   6.329   8.192   0.340 -0.1084  0.1714  0.0318
 7577W        W24051  13.520   1.126  12.127 -0.0413  0.0297 -0.1375
 7578W        W24052   2.951  18.214   4.991 -0.0300 -0.1449  0.0941
 7579W        W24053  18.244  11.174  14.803  0.0542 -0.0134 -0.1800
 7580W        W24054   6.405  12.962  10.423  0.1648  0.0164  0.0335
 7581W        W24055  10.357   0.268  13.459  0.1025 -0.1026  0.1282
 7582W        W24056   8.096  12.573   2.904 -0.0217  0.0255  0.1394
 7583W        W24057  14.628  17.737   5.098  0.1979  0.3665  0.0218
 7584W        W24058  12.845   6.592  12.866 -0.0116  0.1294  0.0095
 7585W        W24059   5.841   2.488  11.691 -0.0526  0.0836  0.0283
 7586W        W24060   4.959   8.654  15.820  0.1365  0.1339 -0.1482
 7587W        W24061   4.034  14.763   2.027  0.3858 -0.2450 -0.0363
 7588W        W24062  18.294  11.434   3.641 -0.2029  0.1432 -0.2404
 7589W        W24063   1.797  16.599  12.487  0.3157  0.0319  0.1291
 7590W        W24064  12.722   3.072   4.797 -0.0289  0.2119 -0.4934
 7591W        W24065  18.422  16.359  14.920  0.3325  0.0323 -0.3818
 7592W        W24066   8.490  14.399  15.832 -0.1333 -0.1503 -0.2913
 7593W        W24067  18.280  14.595  15.597 -0.1767 -0.1299  0.3740
 7594W        W24068   6.031   2.858  12.352  0.0520  0.0251  0.2499
 7595W        W24069   1.167  14.712   2.169 -0.1631 -0.1482  0.1519
 7596W        W24070  18.203  10.139  15.078 -0.1154  0.0459 -0.0743
 7597W        W24071   0.468   6.264  12.093 -0.1247  0.1056  0.0225
 7598W        W24072  11.174   4.141   4.320 -0.0163  0.2821 -0.3286
 7599W        W24073  10.813  17.527   0.650  0.4605 -0.1475  0.2120
 7600W        W24074  13.227   3.997  14.524 -0.0131  0.0784  0.0904
 7601W        W24075   0.842   5.074  15.959  0.0387 -0.0966  0.1218
 7602W        W24076  11.624  14.554  13.377  0.2887  0.2439 -0.0996
 7603W        W24077  13.416   3.650   4.401 -0.1981 -0.1126  0.0731
 7604W        W24078   9.718   5.488   5.561  0.1190 -0.2309 -0.4545
 7605W        W24079  11.701  13.322   1.848 -0.0088  0.1326 -0.1246
 7606W        W24080  14.090   7.379  11.983  0.2479  0.0413  0.2097
 7607W        W24081  11.920  15.436  12.433  0.0919 -0.3630 -0.1426
 7608W        W24082  16.158  17.940   2.564 -0.0481  0.1932 -0.0799
 7609W        W24083  11.612  18.119  15.961 -0.3783 -0.0297  0.3125
 7610W        W24084  16.526   3.301  12.930 -0.1631  0.1971  0.0445
 7611W        W24085   6.230   1.341   0.302  0.1732 -0.0993 -0.0741
 7612W        W24086  11.933  13.254   4.795  0.1946 -0.0579  0.0639
 7613W        W24087  18.397   8.374   6.267  0.0776  0.1029  0.1758
 7614W        W24088   7.111   3.766   3.134 -0.1067  0.2344  0.0510
 7615W        W24089  13.177   6.268  14.065  0.1128  0.0987 -0.0005
 7616W        W24090   6.147   0.534   0.037 -0.0094 -0.0995  0.1222
 7617W        W24091   0.560   0.884   2.297  0.1693 -0.2161  0.1930
 7618W        W24092   1.254  15.543   4.315  0.1880 -0.1631  0.1485
 7619W        W24093   3.177   2.100  11.914  0.1838 -0.2449 -0.1645
 7620W        W24094  13.549   2.365   3.662 -0.1738 -0.1025  0.4134
 7621W        W24095   5.653   5.117   0.415 -0.0571 -0.1952 -0.3644
 7622W        W24096   5.621  16.608   0.605 -0.0699  0.2548 -0.3426
 7623W        W24097  10.377  14.740  13.055  0.1594  0.5264 -0.2511
 7624W        W24098  10.933   4.569  15.058  0.2077  0.1889  0.0060
 7625W        W24099  12.020  13.855  12.408 -0.2059 -0.0635 -0.2339
 7626W        W24100  11.189  15.474   2.015  0.0380 -0.0934  0.2863
 7627W        W24101   5.263  13.926   0.962 -0.0160  0.0491  0.1168
 7628W        W24102   7.139  15.013   2.136  0.2135  0.2231 -0.0681
 7629W        W24103  16.796  15.440   2.659  0.3856  0.3564  0.1286
 7630W        W24104  16.754  14.603   1.294  0.0045  0.1245  0.2339
 7631W        W24105  17.480   8.166   2.559 -0.1335  0.3053 -0.1396
 7632W        W24106  13.908   0.847  15.170  0.0060  0.0901  0.1228
 7633W        W24107  17.721   4.689   5.143  0.1219  0.0767  0.0483
 7634W        W24108   2.918  11.709  14.980  0.1484  0.3903  0.0115
 7635W        W24109   9.078  15.517   1.798  0.1573  0.3553 -0.1548
 7636W        W24110  10.384   2.932   0.647  0.2392 -0.1199 -0.1110
 7637W        W24111   5.965   4.792  15.391  0.1089  0.0283  0.1054
 7638W        W24112   4.911   0.692  15.657 -0.3039  0.0331  0.0592
 7639W        W24113   5.463   9.946   5.057  0.0567  0.0754 -0.2857
 7640W        W24114  10.761   8.599   3.521 -0.1573 -0.0376 -0.2403
 7641W        W24115  14.988   8.960  14.736  0.0126 -0.1140 -0.1432
 7642W        W24116   1.425   6.305   3.677  0.0099 -0.2811 -0.0144
 7643W        W24117  13.727   6.532  10.971 -0.0294  0.1671 -0.1498
 7644W        W24118   4.342   0.259  11.136 -0.1393 -0.2393 -0.2719
 7645W        W24119  14.276  13.890   0.278  0.1631 -0.1081 -0.0213
 7646W        W24120   8.648   6.795   3.742  0.2663 -0.1079 -0.2500
 7647W        W24121  16.024   9.776   1.904  0.0005  0.1834 -0.2642
 7648W        W24122   2.092  14.768  10.754 -0.1500 -0.1471  0.0351
 7649W        W24123   6.581   8.479   2.873  0.8070 -0.0573  0.2836
 7650W        W24124  17.894   6.801   3.437 -0.0848  0.1969  0.3537
 7651W        W24125  12.608  13.454   5.311 -0.0531 -0.0297  0.2113
 7652W        W24126  10.580  14.908   3.403 -0.0711  0.0902  0.0455
 7653W        W24127   9.192   5.844  10.819 -0.2009 -0.0771 -0.2001
 7654W        W24128   1.060  17.891   1.275 -0.2332  0.0874 -0.1166
 7655W        W24129   3.709  12.849   2.775  0.2145  0.1265  0.3802
 7656W        W24130   4.205   4.200   3.148  0.1049  0.2347 -0.0816
 7657W        W24131  16.886  10.307   3.432 -0.0889 -0.1815  0.1825
 7658W        W24132  13.231  15.047   3.440  0.0502 -0.0048  0.0277
 7659W        W24133   8.026  12.645  13.352 -0.0607  0.2500  0.0103
 7660W        W24134  13.443   6.910  14.592  0.2131 -0.2282 -0.0035
 7661W        W24135  16.396   6.133  13.220  0.2969 -0.1125 -0.0540
 7662W        W24136  13.404  14.570  15.529  0.0301 -0.1568  0.2826
 7663W        W24137   4.448   0.179  14.609 -0.1901 -0.0404 -0.2131
 7664W        W24138   4.802   8.237   1.470  0.2618  0.1417 -0.1009
 7665W        W24139  13.915  11.989   0.439 -0.0427 -0.1638  0.1757
 7666W        W24140   1.198  10.372   0.806 -0.3205 -0.2564  0.1045
 7667W        W24141   8.876   3.119  14.477  0.1140  0.1257 -0.0623
 7668W        W24142  10.872  17.544  12.676 -0.3253  0.5457 -0.1991
 7669W        W24143   1.382  10.940   1.973 -0.1927 -0.4727 -0.1587
 7670W        W24144  15.259   4.141   2.796  0.0185  0.0549 -0.2695
 7671W        W24145  14.804   3.879   0.609 -0.3199 -0.2335 -0.0155
 7672W        W24146  12.762  10.047   4.506  0.1057 -0.0206  0.1596
 7673W        W24147   8.959   2.278  12.581  0.1364  0.1033 -0.1021
 7674W        W24148  15.407   3.954  15.758  0.0958  0.4074  0.1811
 7675W        W24149   6.660   6.879   1.724  0.2627 -0.0255  0.1599
 7676W        W24150  16.121  12.516   0.261  0.1997 -0.3965 -0.1109
 7677W        W24151  17.641  18.210   4.194  0.1205 -0.4103 -0.0222
 7678W        W24152   4.112   3.614  15.703 -0.0336 -0.2741 -0.0209
 7679W        W24153   6.968   8.010   2.878  0.0713 -0.0872  0.1868
 7680W        W24154  17.576   8.026   3.100  0.1239 -0.1490 -0.2187
 7681W        W24155   4.923   9.296  15.391 -0.0411  0.0531 -0.1757
 7682W        W24156   8.009   6.339   3.083 -0.1918  0.3060 -0.0147
 7683W        W24157  12.531  16.100   2.161  0.1082 -0.1299 -0.1113
 7684W        W24158   9.202  14.996   5.814 -0.0232 -0.4297  0.0591
 7685W        W24159  14.893   7.727   5.294 -0.0223 -0.0354 -0.1189
 7686W        W24160   2.035  13.619   3.441 -0.0435  0.0813  0.1851
 7687W        W24161   1.634   7.421  15.901  0.0067  0.2134  0.0777
 7688W        W24162   4.103  17.652  15.046  0.5262  0.0477 -0.0791
 7689W        W24163   4.587   0.612   1.839 -0.0407 -0.2912 -0.0282
 7690W        W24164   0.018  18.380   5.491  0.1081  0.1434 -0.0393
 7691W        W24165  17.309   1.340   1.053  0.1895 -0.3377 -0.2321
 7692W        W24166   1.639   6.249   0.113  0.1649 -0.0624  0.0392
 7693W        W24167   1.132   1.598  11.301 -0.2264  0.1149  0.0726
 7694W        W24168   1.075   3.789   5.953 -0.0001  0.2168 -0.0812
 7695W        W24169   5.381  11.848   5.337 -0.0065 -0.0918 -0.1852
 7696W        W24170   7.684   2.721   2.244 -0.1338 -0.3852  0.0940
 7697W        W24171   1.017   3.808   4.402  0.0722  0.3703  0.0461
 7698W        W24172  14.912   2.695  15.001  0.1227 -0.1666 -0.3883
 7699W        W24173   8.485  10.999  13.494  0.2428  0.0260  0.0937
 7700W        W24174  14.722   3.568   3.297 -0.0244 -0.1090  0.0400
 7701W        W24175   7.107   1.676  15.493 -0.1870  0.2254  0.0167
 7702W        W24176  16.413   2.712  15.657 -0.1350  0.1471 -0.0512
 7703W        W24177  12.829  12.000   1.567 -0.0535 -0.0379  0.0038
 7704W        W24178   4.337  15.827   5.067 -0.1346 -0.1800  0.1042
 7705W        W24179   1.928   9.085   3.026  0.3085  0.1291  0.0103
 7706W        W24180   6.137   6.504   4.721  0.0715  0.1697 -0.1552
 7707W        W24181  11.064  15.316  12.116 -0.1517 -0.0769  0.1407
 7708W        W24182  10.475   0.916  10.305 -0.1615 -0.0657  0.1684
 7709W        W24183   2.513   5.023  14.258  0.0614  0.1709 -0.0106
 7710W        W24184   0.957  10.790  15.123 -0.3182  0.1085 -0.1899
 7711W        W24185  17.359   9.359   2.573 -0.0121 -0.0271  0.2838
 7712W        W24186  12.359  15.336   4.327  0.1406 -0.1068 -0.3540
 7713W        W24187  16.510  16.455   0.363  0.0603  0.2217  0.0132
 7714W        W24188  17.368   7.985  11.223 -0.1443 -0.0653  0.0491
 7715W        W24189  10.688  15.540   5.755 -0.4315 -0.0373  0.3190
 7716W        W24190   6.896  13.455   0.408 -0.1861 -0.2508  0.0584
 7717W        W24191  14.043   5.719   4.037  0.0594  0.1962  0.1187
 7718W        W24192   7.501   5.494   4.577  0.1848 -0.2537  0.0968
 7719W        W24193   2.156  15.531  10.214 -0.1678  0.1713 -0.3418
 7720W        W24194  14.593  13.078   4.425  0.2232  0.1139 -0.1551
 7721W        W24195  14.272  13.176   3.772  0.2199 -0.1607  0.0340
 7722W        W24196   3.104  16.569  14.420 -0.3267  0.2184  0.0396
 7723W        W24197  16.381   3.192   5.335 -0.2435  0.2419 -0.1442
 7724W        W24198   8.115  10.405  12.859  0.1810 -0.1576 -0.0428
 7725W        W24199  15.511   3.240   4.943 -0.2288  0.0536 -0.0796
 7726W        W24200  11.872   1.284  15.858 -0.1850 -0.0869 -0.0591
 7727W        W24201  15.937  10.949  12.332  0.1857 -0.0851 -0.2768
 7728W        W24202   8.056  15.091  14.430  0.2240 -0.1888 -0.2371
 7729W        W24203  10.474  13.485  15.816 -0.1773  0.0604  0.0711
 7730W        W24204  17.760   2.017   3.245 -0.0314 -0.0670  0.5378
 7731W        W24205   7.242  10.705   1.170 -0.0653  0.1495  0.0007
 7732W        W24206   9.268   2.643  11.837  0.1936 -0.1035 -0.0523
 7733W        W24207   7.594  10.326  12.683 -0.1924 -0.0832 -0.5591
 7734W        W24208   1.432  17.317  14.676 -0.0628  0.0134  0.1337
 7735W        W24209   9.500  10.787   2.413  0.0308  0.3152 -0.3303
 7736W        W24210  12.644   8.524   2.357 -0.2200 -0.4506 -0.1267
 7737W        W24211   3.573  11.665  12.768  0.0137 -0.0908 -0.1305
 7738W        W24212   7.687  14.812  12.083 -0.2652  0.0511 -0.1473
 7739W        W24213  16.533   2.537  11.310  0.1356 -0.0586  0.1425
 7740W        W24214  15.868   7.789   0.814 -0.2936  0.3739  0.2175
 7741W        W24215  13.498  16.689   2.516 -0.0555 -0.0790  0.3725
 7742W        W24216   8.905  13.949   3.404  0.2196  0.4360 -0.0065
 7743W        W24217  17.422   2.866  13.925  0.0738 -0.2395 -0.1932
 7744W        W24218   4.415  16.536   4.500 -0.0876 -0.2030 -0.2286
 7745W        W24219  17.020   6.382   4.261 -0.2068 -0.0421  0.2065
 7746W        W24220   1.408  10.063   2.364  0.1638  0.4719  0.1620
 7747W        W24221  10.167  15.287  15.066 -0.0222  0.1303  0.0374
 7748W        W24222   7.524   6.593   3.980 -0.2180 -0.3153  0.4046
 7749W        W24223   1.898   5.338   3.891 -0.1234  0.0045 -0.1210
 7750W        W24224  18.110   5.716  15.149  0.0935  0.0236  0.3773
 7751W        W24225  18.353   0.435   0.393 -0.2698  0.0388 -0.0147
 7752W        W24226  16.719   9.348  11.762  0.0869 -0.2416  0.1350
 7753W        W24227  15.553   5.038   4.589 -0.1079 -0.0153 -0.0669
 7754W        W24228  13.191   1.640   1.141 -0.2163  0.2412  0.0004
 7755W        W24229   8.172   3.660   1.004 -0.1857  0.3370  0.2411
 7756W        W24230   7.002  17.548   1.825 -0.0305 -0.0348  0.1788
 7757W        W24231  16.555   0.876   1.839  0.1478 -0.2081  0.1599
 7758W        W24232  17.473  16.120  11.267 -0.1270  0.2462 -0.1323
 7759W        W24233  12.403  10.805   2.979  0.2572 -0.1344  0.0516
 7760W        W24234   8.685   9.844  14.144  0.1934 -0.0899  0.2020
 7761W        W24235   7.982  12.790  15.592  0.1242 -0.0904 -0.3580
 7762W        W24236   7.624   4.919   6.308 -0.0324 -0.1091  0.2239
 7763W        W24237  14.320   7.865   4.623 -0.1950 -0.2996 -0.1189
 7764W        W24238   6.734  17.956  12.727 -0.0856  0.3832 -0.2021
 7765W        W24239  14.053   1.734  14.220  0.0764 -0.0391  0.1657
 7766W        W24240  18.462   9.159   4.327  0.0620  0.1437 -0.1504
 7767W        W24241   2.996  10.544   1.589  0.1978 -0.0143  0.0981
 7768W        W24242   4.113  12.277   4.774  0.1532  0.0407 -0.1567
 7769W        W24243   9.026   0.346  11.638 -0.1927  0.0708 -0.0698
 7770W        W24244   2.595   7.414   4.596  0.1793  0.1008  0.0829
 7771W        W24245   1.338  12.676  13.697  0.0474  0.4153  0.1191
 7772W        W24246  15.600   8.068  13.726 -0.0935  0.3141  0.0916
 7773W        W24247   0.954  10.608  12.909  0.0046 -0.3355  0.0950
 7774W        W24248   7.097  11.682   4.436 -0.1494 -0.0550  0.1944
 7775W        W24249  17.695  10.506  13.539 -0.0903  0.1098 -0.1537
 7776W        W24250  15.374  11.958  14.174  0.2520 -0.1171  0.0526
 7777W        W24251   7.018  11.891  12.258  0.0754  0.1141 -0.2506
 7778W        W24252   7.203  16.105  11.617 -0.1852 -0.0401  0.0669
 7779W        W24253   1.853  17.056  14.729  0.0684 -0.2333 -0.1454
 7780W        W24254   5.432   1.282   3.685 -0.0631  0.3829 -0.2934
 7781W        W24255   6.584   2.120   0.870 -0.1347 -0.0762  0.1399
 7782W        W24256   5.085   5.367  12.786 -0.1772  0.3295 -0.0998
 7783W        W24257   4.081   7.524   2.057 -0.3189  0.0212 -0.0029
 7784W        W24258   4.409   6.249   5.298  0.1174  0.1035  0.0077
 7785W        W24259   3.886  13.930   4.603  0.2718 -0.0633 -0.0127
 7786W        W24260   9.580   3.764  13.398  0.0613 -0.0908  0.0945
 7787W        W24261  11.425   9.861  10.621  0.1840 -0.0563 -0.1620
 7788W        W24262   7.098   7.562  12.587  0.0796 -0.0216  0.0001
 7789W        W24263   3.940   7.802  12.453 -0.0790  0.0886  0.1116
 7790W        W24264  11.683   3.299  12.599  0.5127  0.1195  0.0927
 7791W        W24265   1.378  14.382   4.067 -0.1275  0.0400 -0.0170
 7792W        W24266   9.802  10.054  14.778  0.2536  0.1649  0.1165
 7793W        W24267  10.584   1.177  14.549  0.0215 -0.1235 -0.0594
 7794W        W24268  11.886  10.176  10.509  0.0504  0.0785  0.1382
 7795W        W24269   8.783   4.816   1.168 -0.3214  0.0916 -0.2019
 7796W        W24270  15.541  12.768  13.870  0.2945 -0.2294 -0.2755
 7797W        W24271   9.395  12.063   2.007 -0.1857  0.2121  0.1501
 7798W        W24272   0.057   0.392   1.750  0.3164 -0.1334 -0.0457
 7799W        W24273  10.637   7.158   1.158  0.0254  0.0536  0.0993
 7800W        W24274   8.311  15.147   1.252  0.1912  0.0982 -0.0185
 7801W        W24275   2.283  12.183   4.016 -0.4062  0.3534  0.0036
 7802W        W24276  13.632  13.518  14.601  0.2967  0.2392 -0.2629
 7803W        W24277   9.883  10.473  14.484  0.1393 -0.0557  0.2616
 7804W        W24278   5.275  10.768   2.085  0.0125  0.1883  0.1184
 7805W        W24279   7.769   5.678  12.096  0.3322  0.3951  0.0705
 7806W        W24280   2.213  13.178   4.789  0.1474  0.0952  0.0168
 7807W        W24281  10.426   7.614  12.326  0.0800  0.1690 -0.0124
 7808W        W24282   2.652  13.640   3.655 -0.4081  0.3330  0.1649
 7809W        W24283  13.624  11.628   0.702  0.0902 -0.0017  0.0450
 7810W        W24284   3.078  10.673  14.284 -0.0454 -0.0421 -0.0573
 7811W        W24285   4.211  10.760  15.233  0.2246  0.1054  0.1312
 7812W        W24286  11.366  16.582   2.275 -0.0049 -0.2399 -0.1676
 7813W        W24287  15.837  17.405   1.442  0.1065  0.3138  0.2141
 7814W        W24288  12.104  11.259   2.821  0.0549 -0.0518 -0.1052
 7815W        W24289   6.913   6.314   5.829  0.3643  0.3600  0.0811
 7816W        W24290  16.471   0.121   0.830  0.3143  0.2208 -0.1948
 7817W        W24291   0.428   5.187   5.150  0.1830 -0.4135 -0.0191
 7818W        W24292   9.244  15.540  12.232  0.1714  0.0602  0.0738
 7819W        W24293  12.175   1.982   1.160 -0.1120  0.1388  0.0488
 7820W        W24294  10.607   6.340   4.930 -0.0857  0.3596  0.0384
 7821W        W24295   2.854   8.800  13.231  0.1085  0.1582 -0.2150
 7822W        W24296  17.126   6.157   3.730 -0.0663  0.2637  0.4321
 7823W        W24297   6.541  16.363   3.405  0.1490 -0.0931 -0.1296
 7824W        W24298   5.418  14.237   4.193 -0.0455 -0.2266  0.1265
 7825W        W24299  17.004  17.328   0.837  0.0393 -0.0764  0.1428
 7826W        W24300  14.415   8.095  12.242 -0.0256  0.0627  0.1002
 7827W        W24301  12.688  10.505   0.368 -0.1350 -0.0427 -0.0154
 7828W        W24302   2.625   7.682   1.928 -0.0419 -0.1423 -0.2353
 7829W        W24303   6.515   4.067  12.348  0.0921  0.3513  0.0745
 7830W        W24304  17.348  17.022  14.940  0.2098 -0.2963 -0.1222
 7831W        W24305  14.827   5.548   4.150 -0.0512  0.3832 -0.1554
 7832W        W24306   3.436  12.171  10.934  0.0244 -0.3702  0.0354
 7833W        W24307   0.454   6.411   3.388  0.4187  0.0525 -0.0366
 7834W        W24308   1.592   2.917  12.260  0.0686  0.1388  0.2555
 7835W        W24309   6.386  11.553  15.698 -0.0353  0.0634 -0.1234
 7836W        W24310   7.005   6.359  11.508  0.3266 -0.3152  0.1268
 7837W        W24311  11.433   7.277   2.847  0.0218  0.2480 -0.1041
 7838W        W24312  15.998   1.785   3.228 -0.0409  0.2043  0.0453
 7839W        W24313   1.417   2.646  13.031 -0.0788  0.0861 -0.3435
 7840W        W24314  14.500  16.645  11.710  0.1603 -0.0759  0.0139
 7841W        W24315   1.390  14.424   4.595 -0.2155  0.1528  0.2685
 7842W        W24316   4.279   6.351  14.565 -0.0743  0.1317  0.2364
 7843W        W24317  10.609  16.767  12.438  0.1781  0.0962 -0.1908
 7844W        W24318   5.522   1.264   1.569 -0.3309 -0.1433  0.0503
 7845W        W24319  10.319  12.859  15.219 -0.0263  0.1692  0.0111
 7846W        W24320  11.556  16.761   1.514  0.0881  0.1869 -0.0465
 7847W        W24321  12.050   1.360  13.561 -0.0770  0.1616  0.1609
 7848W        W24322   0.445   5.881  12.524  0.3646  0.0316 -0.1962
 7849W        W24323   1.514   5.328  14.173  0.1803 -0.1217  0.0474
 7850W        W24324  12.617   9.671   0.185  0.0558 -0.2118  0.0632
 7851W        W24325   0.951   7.727  14.782  0.0763 -0.1478  0.1009
 7852W        W24326   8.599   4.071  11.074 -0.2052 -0.0398 -0.0508
 7853W        W24327  12.043  12.038  15.817 -0.2299  0.0738  0.2381
 7854W        W24328   2.997  17.471  14.037  0.0540 -0.2216  0.0460
 7855W        W24329   4.154  15.361  12.808  0.2124 -0.2242  0.1676
 7856W        W24330   3.400   2.754  13.432 -0.4797  0.0052 -0.1084
 7857W        W24331   7.701  16.229   4.472 -0.2027  0.1687  0.1369
 7858W        W24332  17.084   7.987  14.224  0.4937 -0.0688  0.1799
 7859W        W24333  16.240   1.711   1.100 -0.0170 -0.2577 -0.1647
 7860W        W24334   2.510   3.193   5.163  0.3226 -0.1910 -0.2167
 7861W        W24335  16.324  13.885   3.814 -0.3471  0.1746  0.1934
 7862W        W24336  14.708  13.639   0.574 -0.0930  0.0691  0.0425
 7863W        W24337   6.462   5.967   3.227 -0.0454  0.1528  0.3363
 7864W        W24338  16.026   3.436   0.479  0.2542 -0.0411 -0.1045
 7865W        W24339   6.514  17.858  15.201  0.0609  0.1433 -0.0899
 7866W        W24340   8.591   0.577   1.405  0.2295 -0.1182 -0.1570
 7867W        W24341   4.983   6.505   3.536 -0.3380  0.1093 -0.1545
 7868W        W24342   8.310   6.251  13.080 -0.2141 -0.2380  0.3536
 7869W        W24343   9.185  11.171   4.669  0.1002 -0.0136 -0.0548
 7870W        W24344   2.540   5.397   0.576 -0.1268 -0.2765  0.5528
 7871W        W24345  11.336   3.557   0.729 -0.1717  0.0579 -0.3774
 7872W        W24346   1.397   5.607   0.676  0.0836 -0.1515 -0.3285
 7873W        W24347  13.905   4.956  10.913  0.2075  0.0366  0.1302
 7874W        W24348   3.898  15.858   5.357  0.1846  0.2305 -0.1088
 7875W        W24349  13.368  13.899  11.903 -0.0588  0.2609  0.0863
 7876W        W24350   5.464   2.387  14.675  0.0708  0.0916  0.0696
 7877W        W24351   5.893   4.063  11.688  0.0372  0.2225  0.0057
 7878W        W24352   6.494  14.727  11.742  0.2227 -0.0833 -0.0069
 7879W        W24353   0.132  14.017  12.393 -0.4102  0.1149 -0.2192
 7880W        W24354  13.736   5.898  12.016  0.0993  0.0863  0.0873
 7881W        W24355  16.069  14.122  11.366  0.0288 -0.2145 -0.0731
 7882W        W24356   7.901   6.397  15.473 -0.2008 -0.0978  0.0163
 7883W        W24357   9.260   8.909   2.600 -0.1704 -0.1788 -0.0774
 7884W        W24358  13.821  10.791  15.390 -0.0154 -0.2165  0.2945
 7885W        W24359   4.569   5.684  12.699 -0.0073 -0.3854 -0.1429
 7886W        W24360   5.162  13.254   1.248 -0.2592 -0.1020 -0.0980
 7887W        W24361   6.208  16.943   2.282  0.1876  0.3982  0.0495
 7888W        W24362  15.270  16.547   3.258  0.0960 -0.1096  0.1234
 7889W        W24363   8.462   2.154  15.710 -0.2556 -0.0425  0.0718
 7890W        W24364   3.284   3.808  13.418 -0.0701  0.3235  0.3396
 7891W        W24365   8.363   3.850  12.253  0.0518  0.1156 -0.1580
 7892W        W24366   4.414  14.713  15.882 -0.0041 -0.1848 -0.0480
 7893W        W24367   6.463   4.481   1.935  0.1094  0.0426 -0.0264
 7894W        W24368   1.091  14.164  13.484 -0.3458  0.1004 -0.1829
 7895W        W24369  16.175   5.975   0.126  0.3769  0.1541  0.3161
 7896W        W24370  16.387   2.303  11.759 -0.1589 -0.2141  0.0704
 7897W        W24371  18.307   9.027   1.911 -0.1053 -0.1894 -0.0386
 7898W        W24372  17.916   5.992   0.754 -0.0250  0.0212 -0.2965
 7899W        W24373  14.434  16.293   1.535  0.5045  0.1091 -0.0042
 7900W        W24374   8.675   0.743  12.993 -0.0246  0.0776  0.1351
 7901W        W24375  14.996   9.791   1.016 -0.0706 -0.4195 -0.0086
 7902W        W24376  10.426  12.701   5.181 -0.0062 -0.2047  0.0817
 7903W        W24377   4.847   4.777  11.830  0.1076 -0.1804  0.0724
 7904W        W24378  12.316   4.373   2.991 -0.0976  0.0167 -0.1800
 7905W        W24379   0.077   2.407   3.622  0.1060  0.0294 -0.0942
 7906W        W24380  15.222   3.142  13.864 -0.2374 -0.4153  0.0398
 7907W        W24381  16.758   8.815  11.150 -0.5223  0.0562  0.1077
 7908W        W24382  14.489  17.062   1.318  0.1223 -0.2203  0.1253
 7909W        W24383  17.754  10.513   2.792 -0.1667 -0.1575 -0.3162
 7910W        W24384  18.013   9.602  15.054 -0.0350 -0.0601 -0.1059
 7911W        W24385   4.664   3.978  14.221 -0.2535  0.0232  0.0221
 7912W        W24386   0.589   9.439   3.708 -0.1149  0.3049 -0.2748
 7913W        W24387   0.220  10.722   3.754  0.0077  0.2048  0.1091
 7914W        W24388   1.830  13.263   4.090 -0.1001 -0.1784 -0.1487
 7915W        W24389   4.265  17.632  13.247  0.0284  0.1790 -0.2601
 7916W        W24390  15.728  12.999   2.069  0.0718  0.0403 -0.0998
 7917W        W24391   0.619   7.931  15.086 -0.1163  0.4077 -0.1358
 7918W        W24392  10.845   2.359  12.007  0.1646  0.0090 -0.1990
 7919W        W24393   6.166   4.904   0.407 -0.2057  0.1484 -0.0211
 7920W        W24394   5.295  15.541   4.041 -0.1947 -0.1716 -0.0761
 7921W        W24395   3.925   0.277   5.093 -0.0693 -0.0375 -0.1515
 7922W        W24396   0.728  14.308  15.280  0.1005  0.2831  0.3147
 7923W        W24397   3.425   8.065   0.348 -0.0983 -0.1954 -0.1893
 7924W        W24398   7.895  18.475   1.542  0.1711 -0.0733 -0.3944
 7925W        W24399   3.689  16.070   0.923 -0.3546 -0.3212  0.1086
 7926W        W24400  11.946  14.509   1.169  0.1225  0.1993 -0.3873
 7927W        W24401   2.198   5.003   2.624  0.0433  0.1212 -0.1675
 7928W        W24402   4.174  12.811   3.619 -0.2162  0.2790 -0.1724
 7929W        W24403   9.536   1.234   4.090 -0.0038 -0.0157  0.3931
 7930W        W24404   2.464   3.016  14.773  0.1092 -0.2268 -0.1801
 7931W        W24405   0.373   0.844   3.327 -0.1514  0.0908 -0.0135
 7932W        W24406  13.808   6.123   1.510  0.3928 -0.2328 -0.0506
 7933W        W24407   4.394   4.316   1.359  0.2562  0.0577 -0.1188
 7934W        W24408  14.314  15.150  11.924  0.2026 -0.2668 -0.0924
 7935W        W24409   3.475   1.157   4.811  0.0278 -0.1551  0.1599
 7936W        W24410   9.233   3.322   4.704  0.3963 -0.2955 -0.2895
 7937W        W24411   2.847   9.166  14.583 -0.0667 -0.2239 -0.1714
 7938W        W24412  13.472  13.598  15.744  0.1269  0.2641  0.0577
 7939W        W24413  15.505   0.775  15.551  0.1263  0.3452  0.0766
 7940W        W24414   0.357   8.143   3.397 -0.3372 -0.1164 -0.0268
 7941W        W24415   8.475  18.027  14.690 -0.0147  0.0189  0.1592
 7942W        W24416   0.290   5.608   1.343 -0.0524 -0.3191  0.2851
 7943W        W24417   0.964  11.709  13.772  0.0568 -0.0654 -0.1482
 7944W        W24418   8.493   3.550   2.704 -0.1041  0.3852 -0.2504
 7945W        W24419  17.311  14.948  14.155  0.2747 -0.0400  0.0989
 7946W        W24420  15.331  14.121  13.729  0.2906  0.1703  0.4824
 7947W        W24421   3.966  10.521  15.666  0.3836 -0.0747  0.0140
 7948W        W24422   3.411   2.809   0.146  0.1266  0.0938 -0.0419
 7949W        W24423  18.155   8.149   1.722  0.6435 -0.0491 -0.0980
 7950W        W24424  12.451  18.018   4.209 -0.0828 -0.1035  0.0113
 7951W        W24425   9.592   3.814   3.358 -0.0704 -0.0786  0.0186
 7952W        W24426  14.303  10.207   1.946 -0.3328 -0.1186 -0.0397
 7953W        W24427   1.145   6.997   5.060  0.0106 -0.0247  0.1438
 7954W        W24428   4.808   3.135  14.087 -0.2447 -0.1330 -0.0389
 7955W        W24429  14.865   6.248   4.977  0.2047  0.1886 -0.0185
 7956W        W24430   0.894  15.807   2.752 -0.1381 -0.1882 -0.3001
 7957W        W24431  12.015   2.451   1.115 -0.3094  0.1874  0.0006
 7958W        W24432  15.547  12.434   1.250  0.1529  0.0058 -0.2456
 7959W        W24433   5.496  15.927   9.926 -0.0107  0.0453  0.1233
 7960W        W24434   9.177  10.896   1.434 -0.0410 -0.2345  0.2539
 7961W        W24435   0.427   5.756  11.093  0.0458  0.1539 -0.1728
 7962W        W24436  11.380  10.364  11.585  0.0466 -0.1361 -0.0303
 7963W        W24437  14.251  15.455   0.097 -0.0679 -0.1410  0.3589
 7964W        W24438   2.939  13.634  11.091  0.0331 -0.1353  0.0971
 7965W        W24439   9.980   6.094   2.111  0.2401  0.1118 -0.1598
 7966W        W24440  16.142   6.016   2.783 -0.0899 -0.0853 -0.0242
 7967W        W24441   5.247   1.882   1.813 -0.0176 -0.0649  0.0803
 7968W        W24442   7.316   8.931  13.755  0.1541  0.1151 -0.0948
 7969W        W24443  10.193   4.836   1.525 -0.1706  0.2092  0.2619
 7970W        W24444   7.833  13.573   5.589 -0.3609 -0.1243  0.1157
 7971W        W24445   8.899  18.279  12.984  0.1730  0.2360  0.1201
 7972W        W24446  17.399   7.462  12.694 -0.1552  0.1891 -0.1686
 7973W        W24447   2.609  13.534   0.182 -0.1061 -0.1386  0.2806
 7974W        W24448   8.182   0.113   0.504 -0.0156  0.0246  0.2214
 7975W        W24449   0.469  10.602  12.785  0.1647 -0.0249 -0.2687
 7976W        W24450  16.204  14.689   1.184  0.1950  0.0547 -0.0389
 7977W        W24451  12.005  13.419   2.813 -0.0255  0.1791  0.3722
 7978W        W24452  15.555  14.192   4.888 -0.1433  0.0216 -0.0339
 7979W        W24453   9.900   8.893  12.575 -0.1758 -0.0933  0.1815
 7980W        W24454   4.147   9.478   5.640  0.0413 -0.0526 -0.4230
 7981W        W24455  14.147   1.251  12.111  0.1301 -0.1052  0.1171
 7982W        W24456   3.030   8.991   4.526 -0.0866  0.2635 -0.2347
 7983W        W24457   4.517  10.571   1.084  0.0089 -0.0902  0.0553
 7984W        W24458   5.513  11.584   5.805  0.3094 -0.1901 -0.3513
 7985W        W24459  18.060   4.567  13.726 -0.1701 -0.0195  0.2559
 7986W        W24460  10.833   9.779  13.942 -0.0531  0.0288 -0.0670
 7987W        W24461   7.314  13.549  14.037 -0.1740  0.2046  0.2864
 7988W        W24462  13.541   9.317   4.682  0.1625  0.0164 -0.1545
 7989W        W24463  14.013   3.776   0.475  0.0043  0.3338 -0.1367
 7990W        W24464   8.835   8.892  13.081 -0.1766 -0.1311 -0.0994
 7991W        W24465  14.763  15.422   1.522  0.2377  0.0273  0.0284
 7992W        W24466   0.431  11.929  11.389 -0.0223  0.0900  0.1008
 7993W        W24467   9.761   7.493  13.058 -0.1050 -0.0473  0.0510
 7994W        W24468  13.680  17.071   5.791 -0.3398 -0.1401 -0.0477
 7995W        W24469   6.070   3.755  13.535 -0.1327 -0.0401  0.0418
 7996W        W24470  14.947  13.634   4.674 -0.1491 -0.0579 -0.0931
 7997W        W24471   1.878  14.569  14.703  0.1205  0.1493 -0.0826
 7998W        W24472   4.329  13.680  13.885  0.2248  0.0752 -0.0724
 7999W        W24473  10.867   1.774   1.321 -0.3140  0.1187  0.0833
 8000W        W24474   1.854   7.583   1.710 -0.0587  0.1429  0.1611
 8001W        W24475   8.620  17.233   2.335  0.0743  0.0642 -0.2336
 8002W        W24476   2.399   7.351  12.561 -0.0536  0.1564 -0.0189
 8003W        W24477  10.449  15.606  14.836  0.1929 -0.1681  0.0560
 8004W        W24478   5.229   3.649  13.933 -0.0289  0.0163  0.1006
 8005W        W24479   0.501   2.833  13.827 -0.0049  0.1289 -0.4513
 8006W        W24480   7.434  15.333   2.411  0.0131 -0.0260  0.0589
 8007W        W24481  15.911   8.237  12.878 -0.0191  0.0283  0.0364
 8008W        W24482   4.312   8.169   4.549  0.0398 -0.0327  0.1188
 8009W        W24483   6.876  10.250  14.338  0.0254  0.1165  0.1880
 8010W        W24484   1.804   8.383  11.497 -0.1272 -0.3582  0.3441
 8011W        W24485   1.018  12.525  13.361  0.1363 -0.2277  0.1030
 8012W        W24486   6.362  15.804  15.185 -0.0189  0.1543  0.3101
 8013W        W24487   3.851  16.911  15.695  0.0097  0.3060 -0.3142
 8014W        W24488   7.981  16.641  13.563  0.0790 -0.2394  0.0750
 8015W        W24489   2.150  17.563   3.955  0.0964 -0.6295 -0.2978
 8016W        W24490   1.560   2.567   4.559 -0.2840  0.1983 -0.2130
 8017W        W24491   8.808  14.947   1.890  0.0908 -0.0453  0.0401
 8018W        W24492   1.414   2.733  15.799 -0.2223 -0.0565 -0.0423
 8019W        W24493   4.379  13.614  12.279 -0.1293 -0.0557 -0.1152
 8020W        W24494   2.798  14.423   4.654  0.3615  0.0064  0.0335
 8021W        W24495   9.537   4.512   0.208 -0.3220 -0.1334  0.4728
 8022W        W24496   8.154  13.392  12.806 -0.2454 -0.1444  0.0694
 8023W        W24497   2.255   9.187  15.800 -0.1128  0.1859 -0.0655
 8024W        W24498   6.701  14.763  12.313  0.2807  0.1890  0.1029
 8025W        W24499   9.965   4.210   2.689 -0.3502  0.0909  0.3152
 8026W        W24500   5.064   9.237   3.318 -0.0840 -0.0401  0.0227
 8027W        W24501   8.176   0.958   2.968  0.0784  0.0904 -0.1544
 8028W        W24502   9.036  14.605  11.531  0.0539  0.2259 -0.3009
 8029W        W24503  12.189  15.756   3.811  0.2657 -0.5105  0.3611
 8030W        W24504   9.810  15.217   0.482  0.2142  0.2467  0.0786
 8031W        W24505   5.918   2.279  13.061 -0.0008 -0.1138 -0.0158
 8032W        W24506  15.081  15.663  11.572  0.0611  0.2575 -0.0327
 8033W        W24507  10.490   5.469  15.106 -0.3134  0.1533  0.2098
 8034W        W24508   2.152   1.115  12.245 -0.0851  0.0798  0.1348
 8035W        W24509   3.982   9.802  11.625  0.0302  0.3974 -0.0069
 8036W        W24510   8.786  16.366   1.163  0.1827 -0.1824 -0.1204
 8037W        W24511   1.575   6.980  12.243  0.0892 -0.3264  0.1433
 8038W        W24512   3.275  17.589   1.543  0.0204  0.0500  0.0180
 8039W        W24513  17.535  10.179   4.137 -0.0324 -0.0773 -0.1239
 8040W        W24514   9.178  12.139   0.940 -0.2014 -0.0583  0.1105
 8041W        W24515   1.465   1.438  14.032  0.0523  0.2885  0.2227
 8042W        W24516   2.217   4.638  12.002 -0.1781 -0.2008 -0.2168
 8043W        W24517  10.059  15.979   3.362  0.1975  0.1157 -0.3754
 8044W        W24518   3.016  12.831   5.641 -0.1051  0.1109 -0.2526
 8045W        W24519  16.592   2.869   3.519  0.0289 -0.2021 -0.2254
 8046W        W24520   7.203   0.455   0.247  0.0467  0.0567  0.0349
 8047W        W24521   8.973   4.840   2.893  0.1642 -0.0387 -0.0457
 8048W        W24522  12.502  12.887  11.663 -0.1377  0.0425  0.2696
 8049W        W24523   6.617   4.844   1.546 -0.1183  0.1198 -0.1687
 8050W        W24524  15.899  12.140   2.852  0.0624 -0.1248 -0.2935
 8051W        W24525   1.288   7.947  12.153 -0.1916  0.0889 -0.1687
 8052W        W24526   4.848  15.705  11.095  0.0653  0.2313  0.1856
 8053W        W24527  11.018  18.371  12.100 -0.2934  0.1737  0.1588
 8054W        W24528   3.345  10.209   1.355 -0.3335  0.0073 -0.1649
 8055W        W24529   6.005  13.339   1.981  0.0394  0.1183  0.0569
 8056W        W24530  14.328   1.743  12.248 -0.2913  0.0836 -0.1773
 8057W        W24531   1.982   0.095  13.278 -0.0690 -0.2379  0.1918
 8058W        W24532   8.755   4.296  13.312  0.3341  0.1281  0.2074
 8059W        W24533  15.994   3.608   1.798  0.0859 -0.0692 -0.4399
 8060W        W24534   1.746  16.341  11.445 -0.1497  0.4056  0.0147
 8061W        W24535   1.061  11.564   5.141  0.1205  0.0820  0.4017
 8062W        W24536   6.509  10.446   4.840 -0.0828  0.0265  0.1547
 8063W        W24537   3.764  16.224   5.757  0.0107  0.1213  0.1305
 8064W        W24538  15.764   2.695   1.175 -0.2127 -0.1526  0.3866
 8065W        W24539   0.249   7.304   0.140  0.1124 -0.0428  0.2461
 8066W        W24540  13.331   4.274   2.889  0.2107  0.2193 -0.0641
 8067W        W24541   0.569   7.910   2.465  0.1796  0.1747 -0.2673
 8068W        W24542   4.266  11.252   2.489  0.2671  0.0549 -0.0314
 8069W        W24543  12.746  14.950  14.353 -0.1477  0.1901 -0.0035
 8070W        W24544   2.683  11.082   3.399 -0.1070 -0.2934 -0.0381
 8071W        W24545   1.953   3.954   3.212 -0.0484  0.1313 -0.2100
 8072W        W24546  15.988   2.235  12.090  0.1215 -0.3258 -0.0423
 8073W        W24547   8.238   7.026   3.262  0.0026 -0.3261 -0.1286
 8074W        W24548  10.528  12.560  15.742  0.2376  0.0811  0.0706
 8075W        W24549   3.323  16.144   3.143 -0.0642  0.2495 -0.4217
 8076W        W24550   3.484   5.795   4.514  0.3039  0.0011  0.0509
 8077W        W24551  10.418   6.322   0.222 -0.1375  0.0289  0.4364
 8078W        W24552  10.348   3.381  13.067  0.3779 -0.2498  0.0945
 8079W        W24553   0.926   2.560  13.906  0.1026 -0.2567 -0.0505
 8080W        W24554  14.286  10.119  13.052  0.0769  0.2179  0.0155
 8081W        W24555  13.005   3.671   4.747  0.0807  0.1483  0.2394
 8082W        W24556   5.909   0.841  11.616  0.0000 -0.3791 -0.2617
 8083W        W24557  17.408   8.583  15.766 -0.1552 -0.1515  0.2323
 8084W        W24558   9.394  15.083  10.907 -0.0199 -0.2817  0.0456
 8085W        W24559   8.702  11.682  11.694  0.1474 -0.0315  0.0678
 8086W        W24560   0.696  10.218  15.545 -0.0880  0.0773 -0.1990
 8087W        W24561   0.715   7.199   4.116  0.1661  0.1447  0.2784
 8088W        W24562  10.246  11.871   2.703 -0.1384  0.3918 -0.2051
 8089W        W24563  11.500   1.764   0.702 -0.0844 -0.2245  0.0899
 8090W        W24564  14.013   6.441   0.680  0.0958 -0.0600 -0.0128
 8091W        W24565   5.769   6.779  13.784 -0.0810  0.1846 -0.1378
 8092W        W24566   1.199   1.465  12.229  0.0725  0.0767 -0.2185
 8093W        W24567   0.892  14.882  10.880  0.1180  0.0181 -0.1971
 8094W        W24568   6.733  11.484  13.239  0.2836  0.2044  0.0395
 8095W        W24569   6.153  17.965   2.065  0.1472 -0.1011 -0.2286
 8096W        W24570   6.712   4.121   3.262  0.3048 -0.0845 -0.2016
 8097W        W24571   3.916   6.660  14.684  0.1956 -0.1096 -0.2440
 8098W        W24572  15.066  10.016  15.231  0.1621 -0.2428 -0.1288
 8099W        W24573   2.482   4.900  15.293 -0.2989  0.3059 -0.1298
 8100W        W24574  16.904   9.561  12.253  0.2573 -0.0869  0.0518
 8101W        W24575   8.708  16.879  12.990  0.4518  0.2084  0.1115
 8102W        W24576   3.605   8.174  11.809 -0.0540  0.0253  0.1206
 8103W        W24577  10.853   8.146  15.551  0.0023 -0.2441 -0.1327
 8104W        W24578   2.991   4.727  15.117 -0.0835 -0.3720  0.0560
 8105W        W24579   2.220  12.422  13.928 -0.0137  0.0288  0.0054
 8106W        W24580   0.936   6.443   3.232  0.1228 -0.0222  0.1989
 8107W        W24581   1.570  13.005   3.552 -0.0618 -0.0441  0.2979
 8108W        W24582   6.975   3.056   1.184  0.0670 -0.0020  0.1064
 8109W        W24583   8.031  11.986   1.418  0.1146 -0.3569  0.2980
 8110W        W24584  18.408   0.012   2.623 -0.0374  0.0235 -0.2775
 8111W        W24585  16.239   4.867  13.920 -0.0325 -0.3132 -0.0393
 8112W        W24586   7.826  10.767  15.115 -0.1261  0.0078  0.3544
 8113W        W24587  17.165  16.504  15.152 -0.1573  0.0730  0.1134
 8114W        W24588   6.632  17.013  14.697 -0.1836  0.1485 -0.0249
 8115W        W24589   9.195  12.405   1.420 -0.1011 -0.0190  0.0546
 8116W        W24590  18.154   2.979  15.873  0.0147 -0.0040  0.0154
 8117W        W24591   4.855  16.774  13.792 -0.4533 -0.1396  0.1098
 8118W        W24592  15.039   3.412   4.924  0.3478 -0.0543 -0.0616
 8119W        W24593  17.874   9.923   4.628 -0.1284 -0.1951 -0.1135
 8120W        W24594  11.112   7.014  13.627  0.2948 -0.1555 -0.0308
 8121W        W24595   4.709  11.820  13.301 -0.0583 -0.1909 -0.1743
 8122W        W24596   4.943   5.014   4.012 -0.0564  0.0071 -0.0937
 8123W        W24597   2.453  14.049  15.313  0.0371 -0.0954  0.1469
 8124W        W24598  11.160  16.612   2.886  0.0924 -0.2030 -0.1562
 8125W        W24599   3.835   6.679   4.412  0.0157  0.4177 -0.1111
 8126W        W24600   9.550   0.666  12.338 -0.0792 -0.1182 -0.1928
 8127W        W24601   1.029  14.696   5.113  0.3622 -0.0950  0.0537
 8128W        W24602  11.623  11.732   2.210 -0.1535  0.0779 -0.1773
 8129W        W24603   4.900   8.941  12.149 -0.1326 -0.0069 -0.0128
 8130W        W24604   8.868   8.200   3.747 -0.0809 -0.0219 -0.1274
 8131W        W24605   0.808   0.079   0.627 -0.1787 -0.5124 -0.1614
 8132W        W24606  11.141   3.341  13.378  0.1334  0.0344  0.0083
 8133W        W24607   1.416   4.590   0.829 -0.2226  0.0783  0.0292
 8134W        W24608   7.336   3.557   0.066 -0.2663 -0.2813  0.0735
 8135W        W24609   5.848   4.037   3.006 -0.0910  0.1868 -0.0995
 8136W        W24610  17.038  17.154   1.390  0.1533 -0.1349  0.4103
 8137W        W24611  18.211   5.793  11.730 -0.3211 -0.2587 -0.1627
 8138W        W24612   5.684   2.678   1.245 -0.0266  0.0070  0.0255
 8139W        W24613  15.002  16.294   1.960  0.1936 -0.1647 -0.0653
 8140W        W24614  14.778  14.000   5.000  0.0410  0.1989  0.0572
 8141W        W24615  14.842   6.798   3.626  0.2173  0.0513  0.1243
 8142W        W24616   5.775   2.981  14.179 -0.3120 -0.2582 -0.3674
 8143W        W24617   8.609  14.696  12.701  0.0777  0.3179 -0.2734
 8144W        W24618  11.501   9.838  11.875 -0.3280  0.0279 -0.0945
 8145W        W24619  17.389   7.647   0.664  0.0679 -0.1619 -0.1045
 8146W        W24620   9.273  11.311   5.396 -0.0922  0.0647 -0.0607
 8147W        W24621   8.292   2.470   0.107 -0.1047  0.3152  0.2800
 8148W        W24622   5.816  18.132   3.008 -0.0494 -0.1909 -0.0022
 8149W        W24623  12.266   3.249   0.056 -0.4283  0.1423 -0.2579
 8150W        W24624   8.697   8.847  10.960  0.1094 -0.2594 -0.2330
 8151W        W24625  16.198   7.972  13.773 -0.1689  0.1015  0.0816
 8152W        W24626   7.062   8.066  11.170  0.0686 -0.0476  0.0538
 8153W        W24627   2.291   9.117  13.788 -0.1107 -0.1438 -0.2695
 8154W        W24628   4.311  13.513  14.366  0.0840 -0.1742 -0.1069
 8155W        W24629   9.985  18.083   1.679  0.2367 -0.0949  0.1605
 8156W        W24630  15.693  15.945  12.315  0.1125 -0.0084  0.0764
 8157W        W24631  11.007   4.416   1.561 -0.2101 -0.3250  0.1905
 8158W        W24632  16.467   1.082  13.515  0.2564  0.1918 -0.2297
 8159W        W24633  13.846   8.533  13.041  0.0859 -0.3841 -0.1373
 8160W        W24634   7.596  10.857  15.966  0.0943  0.1282 -0.2060
 8161W        W24635   4.683   2.683  15.070 -0.0783  0.1694  0.0444
 8162W        W24636   1.806  12.523   1.077  0.2423  0.0008  0.1565
 8163W        W24637  11.995   1.445  10.653  0.0559 -0.0778 -0.1807
 8164W        W24638   6.136   1.985  13.975  0.0605  0.0937 -0.0662
 8165W        W24639  17.415   1.268  15.889 -0.0062 -0.2121  0.0792
 8166W        W24640   2.082   8.584  12.679  0.2947 -0.1260  0.0283
 8167W        W24641   4.981  14.649  15.066 -0.1510  0.1481 -0.1385
 8168W        W24642   0.373   2.601   5.402 -0.1960 -0.1142 -0.1145
 8169W        W24643  14.449   7.612  12.437 -0.1367  0.1718 -0.0601
 8170W        W24644   6.870  17.025   5.127 -0.2726  0.0075  0.4608
 8171W        W24645  11.624   4.488   4.831  0.1537 -0.0524  0.0844
 8172W        W24646   8.049  13.290  11.366  0.0081 -0.0860 -0.2942
 8173W        W24647   5.786   4.282  15.853 -0.1586 -0.1369 -0.0073
 8174W        W24648   8.494  12.651   2.534  0.0370 -0.3064  0.0953
 8175W        W24649  13.216   2.685   0.522  0.1000  0.1494 -0.2012
 8176W        W24650   4.144  15.778  15.302  0.2195  0.2158 -0.0426
 8177W        W24651   4.814   6.760   1.304  0.3804  0.2789  0.2096
 8178W        W24652   4.392  12.032   3.712  0.0999 -0.2592  0.0638
 8179W        W24653   2.061   4.613   0.971 -0.0061 -0.1108  0.0295
 8180W        W24654   0.218   8.743   4.457  0.0573 -0.3472  0.2479
 8181W        W24655   2.219  14.913   2.100  0.0454 -0.0721 -0.0135
 8182W        W24656  11.619   4.658   0.054  0.1118 -0.1414 -0.2385
 8183W        W24657  11.873   3.556   0.954 -0.0336 -0.0709  0.0090
 8184W        W24658  11.909  14.563  14.250  0.1393 -0.1586 -0.1116
 8185W        W24659   6.613   4.815  13.003  0.1500 -0.0788  0.0120
 8186W        W24660  15.395  18.223   1.554  0.0621 -0.0461 -0.3448
 8187W        W24661  11.885  10.810   3.004  0.0514  0.0967 -0.1608
 8188W        W24662   5.708   2.674   1.819  0.2177  0.1243  0.1965
 8189W        W24663  10.641   5.635   2.435 -0.1092 -0.0216  0.0917
 8190W        W24664   1.686  16.815   2.847 -0.0458  0.1157 -0.1989
 8191W        W24665   0.632  14.797  14.047 -0.1852  0.1579 -0.1141
 8192W        W24666   8.735  10.037   5.298  0.0596 -0.0398  0.1435
 8193W        W24667   2.003   9.307   0.329  0.0145  0.0129  0.2594
 8194W        W24668   0.425   5.414  12.676  0.0190 -0.1358  0.0158
 8195W        W24669  17.636  10.712  12.966  0.0015 -0.1124  0.1841
 8196W        W24670  13.046   0.765  13.012 -0.0833  0.1180 -0.0738
 8197W        W24671   9.252  13.341  15.322 -0.0480 -0.0640 -0.1205
 8198W        W24672   0.625  11.087  11.905 -0.0474  0.1352  0.0838
 8199W        W24673  13.489   3.112   5.957  0.1494 -0.1610  0.2001
 8200W        W24674  17.457  18.013   3.784 -0.1483  0.1576  0.2663
 8201W        W24675  12.512  10.478   1.848  0.0265  0.0849 -0.3054
 8202W        W24676   2.285  18.072  13.179 -0.0605  0.0152 -0.1307
 8203W        W24677   2.651  14.942   4.414  0.0181  0.1454  0.2457
 8204W        W24678   8.405   0.675  10.346  0.2397 -0.0457  0.0328
 8205W        W24679  15.982   9.170   3.426  0.2968  0.1449 -0.1515
 8206W        W24680   4.207  14.163   2.934 -0.1082 -0.0574  0.2272
 8207W        W24681  17.333  11.724   0.543  0.0691 -0.2335 -0.1494
 8208W        W24682  16.575   6.449  12.894  0.3319  0.3153 -0.0144
 8209W        W24683   2.880   7.602  14.453 -0.2491 -0.0342 -0.1443
 8210W        W24684  11.343  14.607   3.216 -0.1467 -0.2309  0.1537
 8211W        W24685  13.529  13.074   1.159  0.2043  0.0624 -0.0968
 8212W        W24686  15.391  16.531  12.593 -0.3318 -0.0474 -0.1172
 8213W        W24687   9.590  10.545  12.723 -0.0635 -0.2551  0.0284
 8214W        W24688   2.518   8.572   0.604  0.1590  0.1618 -0.0346
 8215W        W24689  14.211  17.395  15.383 -0.0496 -0.0334 -0.1968
 8216W        W24690   8.236   0.037   2.675 -0.2938 -0.0339  0.1019
 8217W        W24691   3.837  15.612  13.643  0.0328  0.2122 -0.1053
 8218W        W24692   9.847   6.771   3.497 -0.1449 -0.1021  0.0481
 8219W        W24693   5.919   6.509   2.116 -0.4210  0.0499 -0.0256
 8220W        W24694   4.105  14.855   1.189 -0.0568  0.1996  0.0819
 8221W        W24695   2.068  10.524   2.684 -0.0121  0.1633  0.0733
 8222W        W24696   7.862   1.218   9.413  0.0458 -0.0303  0.1410
 8223W        W24697   5.499  17.634   1.459 -0.1244 -0.0933  0.0997
 8224W        W24698   7.965  13.850   4.703 -0.1418  0.0700  0.0778
 8225W        W24699  13.234  14.611   4.693  0.0557  0.0934 -0.0637
 8226W        W24700   6.960  18.072   1.596 -0.0194  0.2720 -0.2836
 8227W        W24701  14.470  18.241   5.242  0.0958  0.0069  0.1852
 8228W        W24702   0.521  16.243  13.592  0.3692 -0.2064  0.2523
 8229W        W24703  15.107   6.553  14.252  0.1826  0.0784  0.1246
 8230W        W24704   6.862  12.604   4.826  0.1168  0.1596 -0.3656
 8231W        W24705   3.939  13.472  15.432  0.3400  0.1710 -0.0396
 8232W        W24706   9.624  10.856   4.678 -0.0740 -0.0141 -0.1578
 8233W        W24707  12.196  10.049   0.966  0.1001  0.1570 -0.1423
 8234W        W24708   8.708   7.146   5.072 -0.0231  0.0070 -0.2047
 8235W        W24709  11.518  13.700   2.671  0.1043 -0.0685 -0.1216
 8236W        W24710  16.877  16.685   5.268  0.0168  0.1142 -0.1802
 8237W        W24711   8.642  14.835  13.240  0.4629 -0.1548 -0.0975
 8238W        W24712  17.626   2.681   4.810  0.0150  0.4828  0.1654
 8239W        W24713  12.714   4.610  15.161  0.1238 -0.0712  0.4213
 8240W        W24714   0.855  17.113  12.809  0.3560  0.0004  0.0738
 8241W        W24715   2.008   7.515   2.960  0.2051  0.0804 -0.3856
 8242W        W24716   7.312  12.772  11.219 -0.0312 -0.1385  0.1704
 8243W        W24717   1.529   3.778   1.115  0.5151 -0.2695  0.2506
 8244W        W24718  14.232   2.024   4.724 -0.0029  0.0828  0.0419
 8245W        W24719   5.075  11.863  14.662  0.0776  0.2654  0.1071
 8246W        W24720  15.101   9.207  12.302  0.0612  0.1200  0.0096
 8247W        W24721   5.111  15.307   3.259  0.0606  0.0832 -0.1258
 8248W        W24722   8.499   4.630  12.874  0.1922  0.4430 -0.3178
 8249W        W24723  17.249   0.998  13.059  0.0305  0.0759  0.2609
 8250W        W24724   5.049  14.046   2.724 -0.1641  0.2530 -0.1801
 8251W        W24725   4.274  10.545  10.531 -0.3478  0.0431  0.0672
 8252W        W24726   5.114  11.167  11.535 -0.0952  0.0895  0.2571
 8253W        W24727   8.478   6.552  13.524  0.2993  0.1424  0.0077
 8254W        W24728  12.469  14.241   3.644  0.2011  0.0013  0.1002
 8255W        W24729   3.821  17.920   0.188  0.1509 -0.1835 -0.2456
 8256W        W24730  10.401   6.008  14.637 -0.1250  0.0675 -0.1470
 8257W        W24731   9.564  13.383  15.874  0.0352  0.1437 -0.0657
 8258W        W24732  18.137   0.484  13.085  0.0368 -0.2257  0.1124
 8259W        W24733   1.878   9.102   2.322  0.1019 -0.3276  0.0581
 8260W        W24734   2.112   4.119  15.544 -0.2340  0.2670  0.0564
 8261W        W24735  17.236  10.471  15.028  0.2123 -0.0292  0.0531
 8262W        W24736   3.623   9.485   2.792 -0.0170  0.1838  0.1543
 8263W        W24737  11.843   6.453   0.962 -0.0149 -0.0531 -0.0163
 8264W        W24738   8.131   0.421   1.680 -0.0804 -0.2278  0.0426
 8265W        W24739  10.776   3.825   4.985  0.1441 -0.3002  0.1102
 8266W        W24740  14.179  17.198  13.187  0.1451  0.0019  0.2046
 8267W        W24741   7.068   4.633   2.570 -0.0494 -0.0831 -0.0375
 8268W        W24742  15.172   0.775  13.678 -0.0575  0.4836  0.3444
 8269W        W24743  10.755  12.373  13.396  0.0295 -0.1869  0.3134
 8270W        W24744   5.863   8.844  11.772  0.4162  0.3339 -0.0363
 8271W        W24745  12.071   0.672  12.853  0.2392 -0.0269 -0.0891
 8272W        W24746   9.242   8.187   1.505  0.0986  0.2612  0.0445
 8273W        W24747  12.218  17.346  15.662 -0.0718  0.1824  0.0931
 8274W        W24748  15.537  14.000  11.230  0.0002  0.2514  0.1056
 8275W        W24749   6.410  17.181   0.425  0.0793 -0.1185 -0.3744
 8276W        W24750  12.325   4.906   5.094 -0.0935  0.0236 -0.2192
 8277W        W24751   9.993   4.979  12.525  0.2699 -0.0626  0.0889
 8278W        W24752  11.051   3.831  15.661 -0.1833 -0.1431 -0.3583
 8279W        W24753  17.442   2.080  15.004 -0.2172 -0.2379  0.1476
 8280W        W24754  13.927   4.631  12.641  0.2916  0.1392 -0.0685
 8281W        W24755  11.026   4.451   2.095 -0.1045  0.0400 -0.0425
 8282W        W24756   2.389   8.628   9.581  0.2301 -0.0394 -0.0495
 8283W        W24757  12.808   1.100   0.317  0.1164 -0.1699  0.0921
 8284W        W24758   1.345  14.617  11.232 -0.1565 -0.2126  0.0286
 8285W        W24759  11.976   8.407  13.905 -0.1857 -0.0136  0.1951
 8286W        W24760   3.090   6.134  11.335 -0.3252  0.0496  0.2148
 8287W        W24761  14.271   1.068  13.638 -0.0490  0.1376  0.1492
 8288W        W24762   2.552   9.225   0.288  0.0802  0.1564  0.3320
 8289W        W24763   8.000  11.408  15.620  0.1199  0.2010 -0.0482
 8290W        W24764   0.289   0.183  15.720 -0.0269  0.2576  0.2957
 8291W        W24765   0.854  16.573   1.572  0.1169 -0.1454  0.1143
 8292W        W24766   3.419  15.964  12.885 -0.0430 -0.0049 -0.0636
 8293W        W24767  13.347   0.969  11.630  0.4796  0.1288 -0.1031
 8294W        W24768   5.202   8.066   5.007  0.3814  0.0090  0.5159
 8295W        W24769   3.025  15.462   2.744  0.1345 -0.0670  0.1417
 8296W        W24770  17.410  12.069   1.174  0.2522 -0.0251  0.0138
 8297W        W24771  13.342  17.158   4.240  0.0194  0.1287  0.1883
 8298W        W24772  10.843   4.045   0.563 -0.2043  0.1607  0.2300
 8299W        W24773   2.477  16.404   1.402  0.1640  0.2730 -0.0876
 8300W        W24774  10.624  17.353  13.679 -0.1177 -0.1134 -0.1963
 8301W        W24775   0.435  16.919   1.927 -0.2403 -0.3363  0.2583
 8302W        W24776   0.436   9.242   5.192  0.1275 -0.1574 -0.2358
 8303W        W24777   0.340  11.068   0.374 -0.0500  0.2353  0.0431
 8304W        W24778   5.134   3.240   5.164 -0.0600  0.3891 -0.2230
 8305W        W24779  11.238   2.353   3.430 -0.0013  0.1987 -0.2989
 8306W        W24780  12.852  13.850   6.074 -0.2530  0.0235 -0.1444
 8307W        W24781  17.566  18.145  12.374  0.0754  0.2833 -0.0607
 8308W        W24782  10.131  11.354   2.806 -0.1022  0.1096 -0.2766
 8309W        W24783  12.653   5.392   2.237 -0.1947  0.2889  0.3228
 8310W        W24784   1.659  16.983   5.892 -0.2222  0.1567 -0.2542
 8311W        W24785  10.630  12.310  14.456 -0.2074  0.0253  0.2447
 8312W        W24786   3.985  11.094   5.080  0.0237  0.3287 -0.1710
 8313W        W24787  10.990   6.870   0.043 -0.2400  0.0561  0.1261
 8314W        W24788   8.407   5.041  14.431 -0.0345 -0.2911 -0.0806
 8315W        W24789  10.493  12.826  13.489  0.2188 -0.0631  0.1510
 8316W        W24790   8.531   2.029  13.752  0.4306  0.1301  0.3905
 8317W        W24791   3.307   2.611  10.613  0.1389  0.1130  0.2574
 8318W        W24792  11.265   5.760   4.609  0.0744  0.3278 -0.0432
 8319W        W24793  17.710   3.657  11.406 -0.2959 -0.2065 -0.2172
 8320W        W24794   8.447   2.403  12.430 -0.3136  0.0227 -0.3979
 8321W        W24795  16.969  11.802   1.164 -0.1821  0.0550 -0.0284
 8322W        W24796   8.201  18.260   0.913 -0.1943  0.0233 -0.2293
 8323W        W24797   2.313   6.347   3.434 -0.1388  0.2864 -0.0321
 8324W        W24798  15.705  17.491  15.297  0.0379  0.1491  0.0478
 8325W        W24799   8.416  14.792   2.155  0.3368 -0.1701 -0.0541
 8326W        W24800   8.636  13.317   4.990  0.0314  0.2884  0.1217
 8327W        W24801   7.526   3.018  12.921 -0.4648 -0.3079  0.1451
 8328W        W24802  17.426  16.568   1.377 -0.0031  0.1109 -0.1159
 8329W        W24803  17.859  16.528  11.114 -0.2120  0.2349  0.2681
 8330W        W24804   7.706  15.195   3.915  0.0141  0.2003 -0.1978
 8331W        W24805  10.967   7.220   3.763  0.0586  0.0513 -0.0480
 8332W        W24806   1.892   1.021  14.068  0.2715  0.0175  0.0124
 8333W        W24807   3.681  16.156  15.165  0.0081  0.2602 -0.0496
 8334W        W24808  11.602   7.536  14.921  0.0167  0.0489  0.1197
 8335W        W24809  14.515  15.141  15.060  0.2377 -0.3630  0.0872
 8336W        W24810  12.545   6.277  14.513 -0.1097 -0.1313 -0.2047
 8337W        W24811  13.912   6.867   4.265 -0.0843  0.1854  0.0855
 8338W        W24812   1.467   1.218   5.043 -0.0631 -0.1251  0.1296
 8339W        W24813  10.962  17.768  13.956  0.0413 -0.0107 -0.0049
 8340W        W24814  16.812  17.009  15.172  0.0334  0.3691 -0.0990
 8341W        W24815   7.587  16.525   4.883  0.0827 -0.1725 -0.1388
 8342W        W24816   6.542   9.274  14.678  0.0663  0.1443  0.1125
 8343W        W24817   2.993   7.016   0.771 -0.0857 -0.1443 -0.1358
 8344W        W24818   9.605  18.133   0.703 -0.1200  0.1661 -0.1111
 8345W        W24819   4.594   3.327   2.867  0.1272 -0.1296  0.0035
 8346W        W24820  11.603  12.829  11.833  0.0972 -0.0587 -0.0667
 8347W        W24821  10.642  16.321  10.387  0.3619  0.1319 -0.0357
 8348W        W24822   9.876  14.039   2.421  0.1185  0.0431  0.1363
 8349W        W24823   2.135  11.473  13.053  0.0516  0.4842  0.0392
 8350W        W24824  10.766   2.589   1.272  0.1563 -0.0436  0.1794
 8351W        W24825  11.746  13.662  12.843  0.2713  0.2150 -0.0827
 8352W        W24826  14.921  11.432  13.999  0.1684 -0.2287  0.0174
 8353W        W24827   4.601   8.254  12.909  0.2897  0.0707  0.0703
 8354W        W24828   3.208   2.042  13.728 -0.1185 -0.0611 -0.0629
 8355W        W24829  17.488  10.477   6.033 -0.0429 -0.1399 -0.0487
 8356W        W24830   1.031   6.126  14.459 -0.2103  0.2542 -0.0458
 8357W        W24831   1.528   7.183  13.237  0.2434 -0.0959  0.2265
 8358W        W24832  14.448   0.833  14.888 -0.0441 -0.0239 -0.1970
 8359W        W24833   5.983   1.484   1.406 -0.2834 -0.0628 -0.0511
 8360W        W24834  12.791  11.273  11.880  0.0017 -0.1235  0.1412
 8361W        W24835  13.144   7.958   1.610 -0.2605  0.3837  0.0311
 8362W        W24836  18.410  15.329  14.989 -0.1414  0.0222 -0.2987
 8363W        W24837   5.610   6.847   4.118  0.0016 -0.0835 -0.2397
 8364W        W24838  15.205  12.199   0.440 -0.1593 -0.3914  0.1368
 8365W        W24839  15.258   2.461  14.760  0.3303 -0.1181  0.0517
 8366W        W24840   7.124   9.894  10.985 -0.2052 -0.0824  0.2905
 8367W        W24841  10.977  13.455   3.134 -0.2871  0.2025  0.0872
 8368W        W24842   8.156   4.409   4.556 -0.0650  0.1047 -0.2356
 8369W        W24843   6.457   3.486   1.965 -0.2268 -0.0306 -0.1668
 8370W        W24844   9.777  14.408  14.729 -0.1434  0.0736  0.1988
 8371W        W24845   0.884  17.082  13.770 -0.1119  0.0889 -0.0692
 8372W        W24846  13.485  16.796   3.919 -0.1916  0.2391 -0.3290
 8373W        W24847  11.569   7.952   1.206  0.1212 -0.0459  0.0596
 8374W        W24848  11.887   5.567  12.002  0.0898 -0.1067  0.3196
 8375W        W24849   0.272  16.187   2.214 -0.0286 -0.1886  0.2106
 8376W        W24850  18.160  12.177  15.129  0.2992  0.2295 -0.3802
 8377W        W24851  15.929   0.392   2.874 -0.3286  0.0976  0.2283
 8378W        W24852   5.850   5.466  13.946  0.1446  0.1209  0.0381
 8379W        W24853  17.464  16.133  12.989  0.1656 -0.1644 -0.2356
 8380W        W24854  11.292   6.510  15.717  0.1314  0.0239  0.1971
 8381W        W24855   2.976   0.223  15.289  0.0526  0.3129 -0.2847
 8382W        W24856   5.986   9.336  15.441  0.1395 -0.0270  0.0691
 8383W        W24857  14.232   7.194   1.919  0.0262  0.3603  0.1177
 8384W        W24858   7.494   8.986   5.825  0.0252  0.1899 -0.0350
 8385W        W24859   2.766   0.204  10.932 -0.1477  0.2949  0.1670
 8386W        W24860  10.285  13.597  13.124 -0.0264 -0.1003  0.1270
 8387W        W24861  13.805  13.896   5.207 -0.1101  0.0898  0.0788
 8388W        W24862   2.733  17.064   2.099 -0.2953  0.3056 -0.1329
 8389W        W24863   0.030   2.627  12.044  0.2428 -0.1989  0.2151
 8390W        W24864   9.397   1.853  13.171 -0.3824 -0.1224 -0.0488
 8391W        W24865   2.601  16.370   3.717  0.1491  0.1125 -0.1869
 8392W        W24866   3.856  10.844   5.496 -0.1871  0.1187  0.2880
 8393W        W24867   4.149  15.395   1.460 -0.2949 -0.3352  0.1079
 8394W        W24868  10.274   1.438   1.980 -0.1520 -0.1939 -0.0787
 8395W        W24869   6.374   5.772  12.593 -0.0852  0.1376 -0.2137
 8396W        W24870   2.573  12.389  11.298  0.0682  0.0758  0.4157
 8397W        W24871  13.951  10.179  14.066  0.1428 -0.1056  0.2571
 8398W        W24872  12.058  16.999  14.161  0.0509 -0.0207  0.1760
 8399W        W24873   7.527  11.243  12.107  0.3818 -0.3082 -0.0603
 8400W        W24874  17.813   6.270  14.260 -0.1008  0.1260  0.0956
 8401W        W24875  13.833   9.621  14.685 -0.0206  0.0254  0.1579
 8402W        W24876  12.052   0.365   5.104  0.1935  0.0579  0.1208
 8403W        W24877   0.148   0.028   3.175 -0.0931  0.0784  0.1450
 8404W        W24878  11.692  15.136   2.629  0.0133  0.1836 -0.1902
 8405W        W24879  11.063  12.657   2.034 -0.2604 -0.1516 -0.1092
 8406W        W24880  18.351  14.407  15.161 -0.2894  0.0230  0.0322
 8407W        W24881   4.272   8.950  13.656 -0.0800  0.2036 -0.2522
 8408W        W24882   3.416  16.887  11.722 -0.0213 -0.0473 -0.3736
 8409W        W24883  17.932  10.709   4.320 -0.0011 -0.0713  0.2258
 8410W        W24884   4.867  15.929   4.934  0.2399  0.2233 -0.1342
 8411W        W24885   0.225  17.661  13.080  0.3565  0.0980  0.2584
 8412W        W24886   6.614  12.634   1.973  0.3765 -0.0740  0.0322
 8413W        W24887   7.179  14.503  15.037  0.0355 -0.2157 -0.0403
 8414W        W24888  12.949   4.747   4.003  0.0578  0.0641  0.0047
 8415W        W24889   5.405   2.085  14.142 -0.3431  0.2353  0.2247
 8416W        W24890  13.008   7.814  12.973 -0.1762  0.1664  0.2692
 8417W        W24891   9.357   1.705   3.407  0.1791 -0.2272 -0.4384
 8418W        W24892  17.481   8.293  11.992  0.2552 -0.0864 -0.2691
 8419W        W24893  16.523  13.483   0.426  0.0793  0.2379 -0.0139
 8420W        W24894   5.255   5.079  14.278  0.1241 -0.4719 -0.0120
 8421W        W24895  13.408   0.054   0.494  0.2134  0.1464 -0.2976
 8422W        W24896   5.510   2.198  11.457  0.0398 -0.2102 -0.1374
 8423W        W24897   1.793   3.683   2.598  0.2655  0.1362 -0.1395
 8424W        W24898   3.970  16.571   4.049 -0.2345  0.2303  0.1976
 8425W        W24899  17.987  12.278  12.785 -0.2057  0.0464  0.0255
 8426W        W24900  14.821   5.673  14.749 -0.0467 -0.0933 -0.0569
 8427W        W24901   4.807  16.185   0.532  0.0485  0.1335 -0.0356
 8428W        W24902   2.053   1.953  13.186  0.1580 -0.1298 -0.2289
 8429W        W24903   6.999   0.055   1.068 -0.2272 -0.1311 -0.0220
 8430W        W24904  11.666  14.187  11.636 -0.1138  0.2357 -0.3748
 8431W        W24905   6.593  12.288   1.163 -0.1567 -0.1206 -0.0791
 8432W        W24906   2.042   1.197   3.463 -0.0034 -0.1290  0.2335
 8433W        W24907  15.597   5.763  15.327  0.1562 -0.3387  0.0559
 8434W        W24908   8.292  16.800  13.253 -0.0572  0.0841 -0.1143
 8435W        W24909   3.404  15.178  14.199 -0.1040 -0.1664  0.0812
 8436W        W24910   9.046  15.650   2.326  0.0702 -0.1577 -0.0960
 8437W        W24911   9.619  12.179   1.505  0.1652  0.3444 -0.1193
 8438W        W24912   5.101   0.430   0.119  0.1515 -0.0142 -0.1733
 8439W        W24913   7.436  15.382  13.779  0.1440  0.0718 -0.3059
 8440W        W24914  14.353   2.821   1.447  0.0212 -0.1420 -0.1676
 8441W        W24915   3.657   1.840  14.547  0.3848 -0.0339 -0.2528
 8442W        W24916   9.240   1.780   4.800  0.1405  0.0867  0.1016
 8443W        W24917  16.190  10.407  15.157 -0.1139  0.1933  0.2524
 8444W        W24918   9.919  11.466   5.161  0.1790 -0.1124  0.1901
 8445W        W24919  14.064   7.298  15.195  0.1095  0.2366 -0.1169
 8446W        W24920   2.248  17.685   3.474  0.3252 -0.0649 -0.1072
 8447W        W24921   0.305  10.645  10.798 -0.2477  0.2633  0.1774
 8448W        W24922  12.189   4.156  14.722  0.0576  0.0232  0.0401
 8449W        W24923   6.026  14.167  12.884  0.2944 -0.1634  0.1237
 8450W        W24924   0.220   9.793   2.099 -0.2625 -0.1528  0.3594
 8451W        W24925  10.874   7.067  11.072  0.0077 -0.0955 -0.2386
 8452W        W24926  12.003  11.047  12.517 -0.2534 -0.3333 -0.0819
 8453W        W24927  12.040  16.652   0.123  0.1800 -0.1385  0.3227
 8454W        W24928  11.535   6.751   2.711  0.2123  0.1548 -0.0803
 8455W        W24929  15.863   7.811   1.721  0.0050  0.1584 -0.1758
 8456W        W24930   0.677  17.570   1.035  0.0840 -0.2065 -0.1734
 8457W        W24931   3.428  11.848  10.046 -0.1967  0.0235  0.1279
 8458W        W24932   4.127   7.501  14.297 -0.1722 -0.0694 -0.0822
 8459W        W24933   2.334  17.205   4.238 -0.0982  0.1945  0.1005
 8460W        W24934  15.653  16.690   2.520 -0.3172  0.0145 -0.0703
 8461W        W24935   8.333   7.357  15.052  0.3089  0.0185 -0.1052
 8462W        W24936  15.084  10.836  13.988 -0.0077 -0.1266  0.0882
 8463W        W24937   2.744  10.996   2.889  0.2478 -0.1804 -0.2244
 8464W        W24938   0.735   5.508   3.546  0.2617  0.0875  0.1295
 8465W        W24939   1.668   4.074  12.966 -0.0477  0.0270 -0.0372
 8466W        W24940  15.806   0.964  10.979  0.1316 -0.1863  0.1055
 8467W        W24941   4.192   7.020  15.033 -0.2201 -0.0465 -0.2738
 8468W        W24942  11.720  15.864   3.824  0.0852  0.0360 -0.2904
 8469W        W24943  17.083   5.000   0.243 -0.1716  0.1626  0.1157
 8470W        W24944   2.985   8.266   4.517 -0.1166 -0.0361  0.3645
 8471W        W24945   0.510  16.813  13.567  0.2948  0.1116  0.1350
 8472W        W24946   4.297   2.590  15.416 -0.2296  0.1108 -0.3486
 8473W        W24947   1.494   4.523   0.274  0.0929  0.0860  0.0925
 8474W        W24948  14.821   9.497   2.284  0.2699 -0.1339  0.0235
 8475W        W24949   8.512   3.865   3.104  0.3573 -0.1375 -0.2234
 8476W        W24950   8.689  11.425  15.126 -0.1458  0.0203 -0.2153
 8477W        W24951  12.110   6.353   0.436  0.0993  0.0534 -0.0247
 8478W        W24952  17.810  18.316  13.698 -0.1717 -0.3803  0.2175
 8479W        W24953   6.091  13.250   0.830 -0.1263 -0.2043 -0.0715
 8480W        W24954  15.916  12.981   3.782  0.4265  0.2179  0.3378
 8481W        W24955  15.916  16.799  10.266  0.1843  0.2353  0.1860
 8482W        W24956  16.426   9.332   2.480 -0.0474 -0.1326  0.2540
 8483W        W24957   4.938   3.746   1.452  0.0405  0.1312 -0.0369
 8484W        W24958  18.475   1.115   0.121 -0.1328 -0.0656  0.3588
 8485W        W24959   3.483  18.459  11.423  0.1280 -0.0868 -0.0681
 8486W        W24960   8.755   4.973  11.415  0.0058 -0.2556  0.3798
 8487W        W24961   3.913  11.226   2.810 -0.2448 -0.0023 -0.0411
 8488W        W24962   1.817  14.215  12.817 -0.2481  0.1874  0.1642
 8489W        W24963   1.423   8.244   9.947 -0.0123 -0.1684 -0.2165
 8490W        W24964   3.251   7.225  10.342  0.1221 -0.1997  0.1361
 8491W        W24965   1.471   2.387   5.920 -0.0563 -0.0348  0.1427
 8492W        W24966  12.101   6.294   1.904 -0.1097  0.0297 -0.0886
 8493W        W24967   6.331  18.428  12.926 -0.3493  0.0792 -0.3031
 8494W        W24968   3.116   7.979   1.688  0.0302  0.0464 -0.2162
 8495W        W24969   6.809   0.647  11.382 -0.0934  0.2734  0.0977
 8496W        W24970  11.674   1.307   4.959  0.0123 -0.2681 -0.1661
 8497W        W24971   7.197   2.392  10.629  0.3299  0.1195 -0.3774
 8498W        W24972  15.887  18.000  13.884 -0.0629 -0.1865 -0.1851
 8499W        W24973   9.811  13.444  11.183 -0.1147 -0.1337 -0.2855
 8500W        W24974   3.953   9.314  13.558  0.0631  0.1471  0.0869
 8501W        W24975   5.823   2.977   3.522 -0.2468 -0.2708  0.0132
 8502W        W24976  14.005   8.837  14.506  0.0316 -0.1617 -0.0391
 8503W        W24977  16.759   0.704  11.657 -0.2703 -0.4127  0.1207
 8504W        W24978   0.593   3.526  14.348  0.0245  0.1081  0.1288
 8505W        W24979   7.542  12.938  12.484 -0.0729  0.1401  0.2770
 8506W        W24980   6.153   8.252   3.927 -0.0842 -0.0930 -0.0470
 8507W        W24981  12.305   6.325  15.867  0.0094  0.1681 -0.3526
 8508W        W24982  11.340   3.054  11.201 -0.0653  0.0479 -0.0534
 8509W        W24983   6.204  14.846  15.889 -0.2253 -0.0501 -0.2668
 8510W        W24984   5.603  14.782   5.641 -0.0145  0.1187  0.0414
 8511W        W24985   5.580   2.870   0.161 -0.0617  0.1718 -0.0686
 8512W        W24986   0.459  11.138  12.753  0.0447  0.0181  0.2700
 8513W        W24987  11.067   9.232   2.268 -0.3404 -0.0724  0.0196
 8514W        W24988  16.692   7.677  14.366  0.0857  0.5017 -0.1438
 8515W        W24989   3.028  13.353  13.963 -0.2269  0.0960 -0.1074
 8516W        W24990   9.856  15.781   5.066 -0.1541 -0.1110 -0.2731
 8517W        W24991   3.722   9.766  12.541  0.1740  0.3642  0.0253
 8518W        W24992   3.076  12.194  12.165 -0.0295  0.2306 -0.3235
 8519W        W24993   6.716  12.794  12.865 -0.1435 -0.0823 -0.0229
 8520W        W24994   5.406   1.539  14.181 -0.0288 -0.0077 -0.1929
 8521W        W24995  11.452   8.550   1.077 -0.1184 -0.1403 -0.2857
 8522W        W24996   5.266  12.044   4.903 -0.3448  0.0465  0.2092
 8523W        W24997  16.004   1.211  15.925  0.1952  0.5765  0.1779
 8524W        W24998   2.663  11.583  13.201 -0.1041 -0.0767 -0.2468
 8525W        W24999  14.025  16.105   3.841  0.0630  0.0456  0.3906
 8526W        W25000  11.035   2.617   3.866  0.1244 -0.0468 -0.0547
 8527W        W25001  11.420  11.809   3.597 -0.3346 -0.2810  0.1256
 8528W        W25002  15.719   1.919  14.230  0.2231 -0.1490  0.0202
 8529W        W25003   1.665   8.927  12.563 -0.2204  0.0871 -0.1310
 8530W        W25004   7.012  13.670   3.600  0.0490  0.1918 -0.0430
 8531W        W25005   2.455   2.797   0.059 -0.1352 -0.0857  0.1052
 8532W        W25006  11.070   6.063   1.526  0.1422 -0.0732 -0.0520
 8533W        W25007  17.127   3.535   0.494 -0.0861 -0.2543 -0.2532
 8534W        W25008  11.932  11.618   1.171  0.2436  0.3281 -0.4025
 8535W        W25009  11.549  16.859   0.186 -0.1017 -0.2551  0.0716
 8536W        W25010  12.923  16.080  10.454 -0.0026 -0.0281  0.0739
 8537W        W25011   5.835   4.852   0.815 -0.1648  0.1066  0.0627
 8538W        W25012  11.073   0.949   2.133  0.0537 -0.0392  0.2257
 8539W        W25013   3.469   2.194   0.256 -0.1984 -0.1500 -0.1416
 8540W        W25014  12.329   9.081  15.220  0.5043 -0.2650  0.1619
 8541W        W25015  10.620   0.787   4.642  0.0148  0.1629 -0.0370
 8542W        W25016   3.061   8.021  10.803  0.3286  0.0946 -0.1496
 8543W        W25017  11.650   3.038   2.593  0.0962  0.0320  0.1078
 8544W        W25018   8.489   9.066  11.479  0.2162 -0.1773  0.1377
 8545W        W25019   7.409  13.994  15.271  0.0934  0.0571 -0.0865
 8546W        W25020  11.332   2.907  15.446 -0.2370 -0.0409 -0.0391
 8547W        W25021   6.088  14.108   5.777 -0.0279  0.1817  0.0101
 8548W        W25022   6.455   6.265  14.532  0.0216 -0.0010  0.2880
 8549W        W25023   7.598   1.713  11.811  0.1838  0.0745 -0.0387
 8550W        W25024  17.244  18.401   5.177  0.1230 -0.0486  0.2641
 8551W        W25025   1.453   8.162   3.839  0.0778  0.4323 -0.1227
 8552W        W25026  11.876   6.683   5.077 -0.1393 -0.2402 -0.0760
 8553W        W25027  15.355  14.286  11.680 -0.0838 -0.1646  0.1138
 8554W        W25028   4.319  14.968  14.565 -0.2297  0.0964  0.0947
 8555W        W25029   7.680  14.546   2.651  0.0147  0.0941 -0.2114
 8556W        W25030   1.689   4.887  11.569  0.2582 -0.2073 -0.2610
 8557W        W25031  14.338   7.372   0.066  0.1294  0.0228 -0.1280
 8558W        W25032  18.125  10.430   4.679  0.1117 -0.0004  0.0306
 8559W        W25033  11.534   2.814  12.503  0.1114  0.0203 -0.2277
 8560W        W25034   5.509   0.637  11.585  0.1609 -0.0446  0.0726
 8561W        W25035   3.552   0.484   0.947 -0.1792 -0.0823 -0.0040
 8562W        W25036   1.510  12.453  15.037 -0.0996 -0.1934  0.2437
 8563W        W25037   0.281  14.416  15.466 -0.0489  0.1344 -0.1282
 8564W        W25038  18.244   4.934  11.189 -0.2654  0.1046  0.0813
 8565W        W25039   6.056   5.103  14.366  0.4348 -0.1851 -0.0843
 8566W        W25040   4.645  15.015  14.991 -0.1680 -0.2998 -0.1493
 8567W        W25041  13.558   3.763   5.130 -0.0905  0.0504 -0.0254
 8568W        W25042   4.843  13.501  12.536 -0.1610  0.1456  0.0759
 8569W        W25043  17.170  15.028   2.477  0.1729 -0.0393 -0.2630
 8570W        W25044  11.615  18.235   2.997 -0.2041  0.0972  0.3499
 8571W        W25045  17.038  16.530  12.852 -0.2114  0.1170  0.0751
 8572W        W25046   5.875   4.969  11.404  0.2852  0.1609  0.0896
 8573W        W25047   0.196   5.057   0.358  0.2079  0.2656 -0.2681
 8574W        W25048   8.824  16.245  12.145  0.2124  0.1073 -0.0239
 8575W        W25049   5.897  16.493   1.411  0.0995 -0.3099 -0.1280
 8576W        W25050   4.707  17.868  13.411  0.0947  0.0277  0.0709
 8577W        W25051  14.828  11.996   5.986  0.0380  0.0469  0.1537
 8578W        W25052  14.505   6.279   1.847  0.1543  0.0679  0.2144
 8579W        W25053  13.436  10.294  14.292  0.0841  0.3228  0.0474
 8580W        W25054   6.468  12.017  14.193 -0.1448 -0.1025  0.0924
 8581W        W25055  17.840   4.964  15.289  0.1549 -0.0029  0.1015
 8582W        W25056  16.524  14.347   3.680  0.0951  0.2263 -0.0035
 8583W        W25057  10.452   2.229  10.733  0.0290 -0.2778  0.1133
 8584W        W25058   0.267   5.048  15.051 -0.2372  0.1790 -0.2323
 8585W        W25059   1.831  13.984  13.779 -0.1366  0.0802  0.2277
 8586W        W25060  14.715  11.111  15.643  0.1528  0.0186  0.1802
 8587W        W25061   8.969  10.088   0.041  0.0679 -0.1602 -0.3436
 8588W        W25062   7.388  14.543  14.504 -0.3868  0.0585 -0.0455
 8589W        W25063  15.143  12.464  13.837  0.2802 -0.0119 -0.0168
 8590W        W25064   3.748  11.038   3.477 -0.3125 -0.0462  0.0950
 8591W        W25065  18.417  13.664  12.890 -0.0767  0.0976 -0.0166
 8592W        W25066   4.179  12.139   4.242 -0.4336 -0.0108 -0.1070
 8593W        W25067   0.472  15.783   0.077  0.0288 -0.0589 -0.2798
 8594W        W25068  16.835   5.092  14.354 -0.1552  0.0397 -0.4218
 8595W        W25069   9.343  17.868  15.559  0.1541 -0.1214 -0.0090
 8596W        W25070   0.620  16.240   5.212  0.0061 -0.1837  0.0959
 8597W        W25071  10.759  14.316  14.265  0.0899  0.1017  0.2052
 8598W        W25072   0.230  16.110   1.716  0.2481 -0.2141  0.0533
 8599W        W25073  11.703   5.067   4.182  0.0805  0.4092  0.1431
 8600W        W25074   8.822   8.896   4.380  0.0629  0.3115  0.2237
 8601W        W25075   3.911   2.378   3.439 -0.0539  0.2036  0.2010
 8602W        W25076   9.696   0.554   9.822  0.0474 -0.3008  0.1609
 8603W        W25077  15.752   5.448  14.732  0.0021  0.1896 -0.1136
 8604W        W25078  17.074   8.150  12.288 -0.0891 -0.0078 -0.1713
 8605W        W25079  18.227   7.703   0.776 -0.1366  0.1809  0.0314
 8606W        W25080   8.329   6.051  14.315  0.2545  0.0458 -0.0583
 8607W        W25081   5.187   8.935   0.251 -0.0399  0.3326 -0.0168
 8608W        W25082   1.659   7.011  10.804 -0.0755  0.0668 -0.0680
 8609W        W25083   3.600   4.162  13.279  0.4161 -0.1493  0.2949
 8610W        W25084   0.486   9.220   1.050 -0.3254 -0.3110 -0.1021
 8611W        W25085   5.954   0.331   6.089  0.2239  0.1765 -0.2154
 8612W        W25086  11.614  17.410   4.412 -0.1029 -0.1201 -0.0055
 8613W        W25087   2.842   7.666   0.627  0.0114  0.2114 -0.2275
 8614W        W25088  16.710  10.102   4.548 -0.0143 -0.1084  0.0246
 8615W        W25089   1.941  12.305   3.624 -0.0836 -0.1225  0.1944
 8616W        W25090   2.495  15.008   4.943  0.2065  0.3918  0.3572
 8617W        W25091   9.748  10.715  13.321 -0.2238  0.0101 -0.0172
 8618W        W25092  14.009  15.237   2.030  0.0321 -0.2791 -0.0469
 8619W        W25093   2.522   9.205  13.325  0.0176  0.3670 -0.0752
 8620W        W25094   2.181   4.548   0.452 -0.3646  0.0729 -0.3811
 8621W        W25095   8.079   2.996  13.101 -0.1711 -0.0687  0.3541
 8622W        W25096   4.680  13.350  13.605  0.0790 -0.0201 -0.1153
 8623W        W25097   4.588   1.711  11.528  0.0400  0.0225  0.0288
 8624W        W25098   4.285   1.085  15.030  0.0812  0.2414 -0.1524
 8625W        W25099  15.972  12.310   1.648 -0.0074  0.1142 -0.1911
 8626W        W25100   6.428  14.447   4.575 -0.0850  0.0345 -0.1928
 8627W        W25101  14.786   2.874  14.542  0.2507 -0.0595  0.1746
 8628W        W25102   1.570   0.295  10.901  0.0388  0.0645  0.0429
 8629W        W25103  14.739   9.723  11.846 -0.3111 -0.3620  0.1403
 8630W        W25104  16.312  16.788   5.157 -0.2760 -0.0279 -0.1554
 8631W        W25105   2.765   8.526  11.640 -0.0070 -0.1800  0.2135
 8632W        W25106  12.069   6.559   3.983  0.2676 -0.0170 -0.0454
 8633W        W25107  16.101   6.980   0.005 -0.0206 -0.0062  0.0783
 8634W        W25108  17.141   7.378   2.488 -0.2621 -0.0636  0.0636
 8635W        W25109   7.189   6.723  15.742  0.0633  0.1232  0.1174
 8636W        W25110   0.493   9.563  14.788  0.0812  0.4099 -0.2569
 8637W        W25111   2.946   3.522  11.077 -0.2558 -0.2248 -0.1074
 8638W        W25112   9.078  13.055   1.846  0.0751 -0.0417 -0.0393
 8639W        W25113   6.152  13.763  11.960  0.1053 -0.0033 -0.1164
 8640W        W25114   5.860   5.319   3.059 -0.0175  0.0777  0.2625
 8641W        W25115  12.809  15.372   1.282 -0.2540 -0.1324  0.3447
 8642W        W25116   2.323   0.120  12.917  0.2892 -0.0043  0.1019
 8643W        W25117  13.240   5.035  15.188  0.0814  0.1348 -0.0068
 8644W        W25118  13.619  17.511   1.658  0.1690 -0.0396  0.1469
 8645W        W25119   8.257   8.768  13.150  0.0740  0.0527  0.2374
 8646W        W25120  15.045   9.971   5.182 -0.1015 -0.0139 -0.0554
 8647W        W25121   6.130   9.461   4.836  0.1306  0.0228  0.1239
 8648W        W25122  15.210  16.501  15.643 -0.2523  0.0400  0.1534
 8649W        W25123  18.383  10.467  15.488  0.1578 -0.0068  0.4942
 8650W        W25124   8.012  13.246  14.658 -0.0363  0.3196  0.1371
 8651W        W25125   5.651  16.450   4.269 -0.1644 -0.1937 -0.4880
 8652W        W25126  18.142  18.250   2.074 -0.0757  0.4033  0.0768
 8653W        W25127  15.331   6.496  13.819 -0.1260  0.0812 -0.2849
 8654W        W25128   8.179  13.282   1.078  0.2301  0.1482 -0.0940
 8655W        W25129  13.860  10.236   4.748 -0.0645  0.1353 -0.0546
 8656W        W25130   8.317   3.731   3.559 -0.1411 -0.5302 -0.2552
 8657W        W25131   2.884  17.950   1.205  0.0969 -0.3622 -0.1706
 8658W        W25132   5.874  14.133   3.984 -0.0302 -0.2171 -0.3717
 8659W        W25133  11.192   3.748   0.235 -0.2739  0.1030 -0.0722
 8660W        W25134   3.455  11.146   5.050 -0.0408 -0.1036  0.2083
 8661W        W25135  13.047   3.454   0.171 -0.2620  0.0386 -0.1099
 8662W        W25136   7.786   6.070  11.699  0.0536  0.3380 -0.0731
 8663W        W25137   7.114   2.146   0.871  0.1949  0.0011  0.2440
 8664W        W25138  13.281   9.225   0.934 -0.2282  0.0540 -0.1675
 8665W        W25139   2.112  14.413   2.082 -0.1291  0.1896  0.1503
 8666W        W25140  14.072  10.851  13.462  0.1856  0.1918  0.2271
 8667W        W25141  14.297  11.276  14.675  0.4381  0.1225 -0.0253
 8668W        W25142  11.544   5.964   0.963 -0.1627 -0.0526  0.0981
 8669W        W25143   1.306   5.002  15.937 -0.0492  0.1853 -0.0725
 8670W        W25144   1.560  14.676  12.934 -0.3075  0.2922  0.0338
 8671W        W25145   4.504   7.707  12.263  0.3091 -0.0332 -0.1512
 8672W        W25146   6.480  11.916   3.670 -0.0746 -0.3350  0.0326
 8673W        W25147   5.588  12.045  13.563 -0.1729 -0.2088  0.2955
 8674W        W25148   4.934   9.975  14.118  0.1055 -0.0493 -0.1679
 8675W        W25149  12.085   4.942  10.251 -0.1649  0.1897  0.1094
 8676W        W25150  16.292   8.842   2.613 -0.0557 -0.0619  0.0071
 8677W        W25151   0.978  10.713   1.211  0.2418  0.0095 -0.1112
 8678W        W25152   7.234   3.023  10.563 -0.2813  0.3051  0.0200
 8679W        W25153  14.192   3.129   4.668 -0.0157 -0.0502  0.2339
 8680W        W25154  18.241   7.780   2.586 -0.0335  0.1950  0.0240
 8681W        W25155   1.995   5.135  13.268 -0.0559 -0.1879  0.1839
 8682W        W25156   6.353  15.697   4.205  0.2691  0.3373  0.1390
 8683W        W25157  18.191   3.311  14.952 -0.0433 -0.0086 -0.0759
 8684W        W25158   0.990   4.562   0.218  0.2020 -0.1012  0.0727
 8685W        W25159  11.535  15.453  12.035  0.3816 -0.0689  0.2179
 8686W        W25160  15.470   1.404   4.404 -0.1966  0.2158  0.1932
 8687W        W25161   7.758  17.618  11.513 -0.0625  0.0497 -0.0183
 8688W        W25162   9.027  17.902   2.971  0.0333  0.1572 -0.2216
 8689W        W25163  11.153  10.805  11.501  0.1751  0.2420  0.0629
 8690W        W25164   9.570  15.352   5.031  0.0364 -0.2792  0.1272
 8691W        W25165   7.421   7.225  12.394 -0.6091 -0.1070 -0.0767
 8692W        W25166  10.472  15.066   2.979  0.2263 -0.0728 -0.0023
 8693W        W25167   6.419  12.422   3.570  0.0853  0.0583  0.0047
 8694W        W25168  13.383   2.835  14.526 -0.0817 -0.0895 -0.0666
 8695W        W25169  13.020   9.595  15.904  0.4084  0.0196 -0.1025
 8696W        W25170   8.784   9.740   3.752 -0.0047  0.0798 -0.2062
 8697W        W25171   4.308   7.422   5.061 -0.1334 -0.1106  0.1618
 8698W        W25172   9.307  15.250   0.353  0.2673  0.2943  0.1910
 8699W        W25173  12.175   0.698   0.968  0.0183  0.0552 -0.2324
 8700W        W25174   2.390  11.073  12.900  0.0306 -0.0448 -0.0001
 8701W        W25175  11.066  12.829  14.217 -0.1480 -0.1103  0.0063
 8702W        W25176   9.299   5.608  14.596  0.3400 -0.1377  0.1671
 8703W        W25177  13.810  15.296   1.104 -0.1183 -0.1700 -0.0114
 8704W        W25178   1.382   3.333   1.988 -0.0931  0.1765  0.2174
 8705W        W25179  13.004  16.396   5.790 -0.1922 -0.2357 -0.0903
 8706W        W25180  15.283  13.802   4.988  0.0361 -0.1847 -0.1202
 8707W        W25181   2.000   9.243  13.320  0.0773  0.2435 -0.0588
 8708W        W25182   3.178   3.400   4.148  0.0709 -0.2037 -0.0690
 8709W        W25183   1.245  14.252   3.475  0.0745 -0.0450 -0.1108
 8710W        W25184   4.936   9.286   4.527  0.1254  0.1774  0.2834
 8711W        W25185  15.101  16.157  15.297 -0.1347  0.0847 -0.1978
 8712W        W25186   8.403  15.105   4.582 -0.2341 -0.1590  0.0950
 8713W        W25187  10.808   5.880   3.994  0.0190 -0.2398  0.3480
 8714W        W25188   6.506  12.493   3.059  0.1273  0.2965  0.1892
 8715W        W25189  10.657   6.036   0.761  0.0328 -0.1719 -0.0714
 8716W        W25190  15.897   1.968   2.517  0.1904  0.1084 -0.0544
 8717W        W25191  15.974   4.587   5.863  0.1961 -0.0996 -0.1533
 8718W        W25192   1.864   0.351  12.910  0.0588 -0.1038  0.0946
 8719W        W25193   9.909   7.856   2.630 -0.3312 -0.1675 -0.2919
 8720W        W25194  16.586  17.813  11.777 -0.1329 -0.0467  0.1583
 8721W        W25195   5.211   4.649   2.475 -0.2319  0.0110  0.0470
 8722W        W25196  13.520   8.164   1.274  0.0747 -0.0902 -0.1596
 8723W        W25197  11.621   6.183  11.636 -0.1772 -0.0657  0.1561
 8724W        W25198  17.575   7.556   4.385 -0.2669 -0.1250  0.1580
 8725W        W25199  17.361   9.730  13.863  0.0353 -0.1885 -0.0247
 8726W        W25200  13.037   7.552  14.143  0.0734 -0.1735  0.0412
 8727W        W25201  16.519   7.216   1.956  0.2895  0.4527  0.0661
 8728W        W25202   1.402   2.370   0.104 -0.1167  0.1731 -0.0930
 8729W        W25203   5.915  16.998  14.108 -0.3294 -0.1668 -0.1284
 8730W        W25204  12.342  10.503  11.727 -0.0888  0.5056 -0.0881
 8731W        W25205  15.000   7.591  13.263  0.1077  0.3800  0.0071
 8732W        W25206   9.155  11.947   4.209  0.0801  0.1912  0.2588
 8733W        W25207   0.471   4.820   1.963  0.0497 -0.3740  0.3008
 8734W        W25208  15.735  16.045   1.836 -0.1414 -0.0600 -0.3267
 8735W        W25209   1.306  16.537  11.663 -0.2010 -0.0484 -0.0404
 8736W        W25210   0.824   0.444  10.580 -0.0652  0.0759  0.2170
 8737W        W25211  15.249  16.114   3.559 -0.1327  0.0430  0.1694
 8738W        W25212   7.397  10.459  15.118 -0.2995  0.3971 -0.0646
 8739W        W25213   2.732   2.870  11.961 -0.0537  0.0412  0.0443
 8740W        W25214  14.247  17.261  11.852 -0.0773  0.0895  0.0278
 8741W        W25215   1.776   3.353   3.301  0.0455  0.0003 -0.0614
 8742W        W25216   7.665   4.124  15.663  0.0388 -0.3250 -0.1647
 8743W        W25217  11.791  12.910   0.475 -0.2683 -0.0296  0.0809
 8744W        W25218   4.704   7.011   4.056 -0.0527 -0.0280 -0.0884
 8745W        W25219  16.109   1.992   2.005 -0.5039  0.3725  0.1294
 8746W        W25220   7.972   7.803  12.751  0.0494 -0.0626  0.1265
 8747W        W25221   1.902   9.522   1.541 -0.1259 -0.0077  0.3161
 8748W        W25222   6.601   6.779  15.660  0.0965  0.1555 -0.1621
 8749W        W25223  13.954  17.070  15.042 -0.1811 -0.2842  0.0213
 8750W        W25224  15.463   4.424  12.613  0.0210  0.1101  0.3871
 8751W        W25225   1.805   7.818  14.667 -0.2305 -0.2944 -0.0052
 8752W        W25226  11.441  15.094   5.413 -0.2024 -0.0458  0.0314
 8753W        W25227   3.580  18.290  14.605 -0.1426  0.1321  0.1546
 8754W        W25228  13.789   5.422   3.739  0.1166  0.0042  0.1989
 8755W        W25229  11.472   4.218   5.351  0.1059 -0.3609  0.0935
 8756W        W25230   4.469   5.503  11.499  0.4639 -0.2755 -0.2770
 8757W        W25231   5.667  10.070  15.133 -0.0509 -0.2500 -0.0036
 8758W        W25232  14.031   6.208  14.452  0.1437 -0.0387  0.3399
 8759W        W25233  10.130   6.791   1.108 -0.1316 -0.0085  0.1637
 8760W        W25234   0.845   7.899  13.797 -0.1495 -0.2252  0.4047
 8761W        W25235   4.520  11.355  13.876  0.1893 -0.0603 -0.2629
 8762W        W25236  12.748   6.841  13.383 -0.1477  0.0117  0.0302
 8763W        W25237   1.084   6.547  13.606  0.2212 -0.1805  0.0860
 8764W        W25238   2.166  16.547   4.445  0.2134 -0.0522 -0.2258
 8765W        W25239  17.666  15.353  14.273 -0.1184 -0.0791  0.0566
 8766W        W25240  12.699  13.492   4.460 -0.1243  0.0037 -0.3267
 8767W        W25241   9.525   4.282  11.493  0.2237 -0.3192  0.0066
 8768W        W25242   8.152  16.723  10.886  0.1377  0.1746  0.1035
 8769W        W25243   0.774   4.791  15.161  0.0192 -0.0518  0.0117
 8770W        W25244  17.043  16.737   3.515 -0.0303  0.3713 -0.0629
 8771W        W25245   8.221  16.894   2.519  0.2138 -0.1169  0.1287
 8772W        W25246   5.875   7.434   1.933 -0.0786 -0.2218  0.2885
 8773W        W25247  16.761   6.906  12.411 -0.0444 -0.0843 -0.1999
 8774W        W25248  12.739  13.143   4.969 -0.0165 -0.1840 -0.1386
 8775W        W25249   2.830  14.069  12.172  0.1152  0.1539  0.2740
 8776W        W25250   7.774   7.611   4.436  0.0983  0.2539 -0.0492
 8777W        W25251  16.209  11.157  10.937 -0.2183 -0.0263  0.1126
 8778W        W25252   2.346  10.814  14.297  0.4679  0.1453 -0.1792
 8779W        W25253   8.402  17.175  13.514 -0.1389  0.1605  0.1296
 8780W        W25254   2.615  11.850   3.805 -0.0609 -0.1214  0.0617
 8781W        W25255   9.595  15.820  15.065 -0.2940 -0.1946  0.1866
 8782W        W25256   0.178   6.405  10.637 -0.2609  0.3227  0.1263
 8783W        W25257  17.210  16.648   5.689 -0.3723 -0.0343  0.0730
 8784W        W25258   9.030   2.454  13.754  0.1194 -0.0767  0.3464
 8785W        W25259  17.590  13.939   3.872 -0.0442 -0.1330 -0.1071
 8786W        W25260   0.035  12.444   3.822  0.1837  0.0325 -0.1755
 8787W        W25261  10.852   9.754   0.362  0.1589  0.0099  0.2063
 8788W        W25262   3.539   5.864  15.288 -0.0653 -0.0783  0.0840
 8789W        W25263  13.470   5.821  14.395 -0.0314 -0.0119 -0.2199
 8790W        W25264  10.934   7.741  12.315 -0.3856  0.1035  0.1175
 8791W        W25265  18.291   8.228  10.423  0.0678 -0.2812  0.0369
 8792W        W25266   3.973  11.200  11.504 -0.1304 -0.1952  0.0362
 8793W        W25267   0.804   4.061   2.338  0.1728 -0.2683 -0.1918
 8794W        W25268  12.683   4.557   0.582  0.1294 -0.0834 -0.0620
 8795W        W25269  15.478   9.121   3.814  0.2162 -0.1581 -0.0626
 8796W        W25270  11.705   9.356   3.031 -0.3647  0.0458  0.0271
 8797W        W25271  17.734   0.284   4.247 -0.0805 -0.2785 -0.1091
 8798W        W25272  12.724   2.200  12.379 -0.0319 -0.0617 -0.0782
 8799W        W25273   4.204   5.822   0.839 -0.0711 -0.4222 -0.0767
 8800W        W25274  14.182   1.644  10.910 -0.0274 -0.0102 -0.0160
 8801W        W25275  16.886  13.105  15.684 -0.2567 -0.2022  0.0056
 8802W        W25276   3.347   9.845  13.059  0.1422 -0.0856  0.0301
 8803W        W25277  14.644  13.046  13.837  0.3735 -0.1206  0.0353
 8804W        W25278   2.906  14.898   3.917  0.0884 -0.0717 -0.0862
 8805W        W25279  17.015  14.431  12.385  0.2059 -0.1341 -0.1383
 8806W        W25280  15.845  11.840  11.460 -0.3013 -0.3171 -0.0093
 8807W        W25281  14.362   2.883   2.002  0.0755 -0.0512  0.2585
 8808W        W25282  14.906   2.184  15.080  0.0208 -0.0025  0.3492
 8809W        W25283   5.372   0.905  15.937  0.1870 -0.2118 -0.0015
 8810W        W25284  15.829  13.617   2.770 -0.0778 -0.0082  0.3497
 8811W        W25285   4.875   7.674   0.088 -0.0144 -0.1567 -0.3478
 8812W        W25286   0.924  10.200   2.659 -0.3339  0.0394 -0.0844
 8813W        W25287  12.877  15.492  15.802  0.2963  0.3338 -0.2020
 8814W        W25288   4.566  16.577   3.181  0.0237 -0.0224  0.2034
 8815W        W25289   7.919   1.734   3.656 -0.2170  0.1701  0.0474
 8816W        W25290  13.519   7.461  11.201  0.2790  0.1244 -0.0615
 8817W        W25291   4.607   8.839   5.041  0.2476  0.0890 -0.1457
 8818W        W25292   4.250   2.558   1.284 -0.3682  0.2789 -0.3069
 8819W        W25293  14.486   5.968   3.989  0.1581  0.0412 -0.0767
 8820W        W25294   9.649   9.890   4.285 -0.0310 -0.1177  0.0620
 8821W        W25295  13.120  17.676  11.647  0.0093  0.0380 -0.4195
 8822W        W25296   5.302   7.573   5.210  0.3550  0.0146  0.0674
 8823W        W25297  14.163   6.781  11.207  0.0476  0.2079 -0.0691
 8824W        W25298   3.056   0.769   0.140 -0.0855  0.1642 -0.0079
 8825W        W25299  18.071  12.439  14.666  0.0069  0.1605  0.0389
 8826W        W25300  18.456  16.739  12.884  0.1254  0.1053 -0.1402
 8827W        W25301  16.843   3.068  14.924  0.0988 -0.0110 -0.2650
 8828W        W25302  15.696   3.714   5.066  0.2107  0.0479 -0.0042
 8829W        W25303  14.096   3.109  15.646 -0.0316 -0.1595  0.0130
 8830W        W25304   5.968   1.798   3.188  0.0322 -0.0354 -0.1375
 8831W        W25305  18.393  13.829   5.016  0.1920  0.2264 -0.0197
 8832W        W25306   8.397  11.145   2.017  0.3200 -0.0207  0.3942
 8833W        W25307  13.353   9.912  12.414  0.2335  0.1303  0.1274
 8834W        W25308   0.906  11.182   3.276  0.0212 -0.0312  0.2534
 8835W        W25309  13.864  12.171  11.871  0.0850  0.2606 -0.1673
 8836W        W25310   2.786  16.537  13.900 -0.1885 -0.0921 -0.2017
 8837W        W25311  16.549   2.891   0.747  0.3025  0.0032  0.0161
 8838W        W25312   8.168   7.880   0.571 -0.3177  0.0273 -0.0734
 8839W        W25313   5.540  11.363   2.118 -0.3202 -0.0224 -0.0165
 8840W        W25314   8.124  10.400   0.777  0.0761 -0.0372  0.3435
 8841W        W25315  12.517   3.677  11.004 -0.0372  0.3122 -0.1266
 8842W        W25316   0.785   5.484  12.155  0.0160 -0.2131 -0.0702
 8843W        W25317   5.714  11.382   4.761  0.6935 -0.0853  0.0506
 8844W        W25318  12.992   3.341   1.658  0.3527  0.4197 -0.2062
 8845W        W25319   2.097  13.582   0.097 -0.1460  0.1897  0.2358
 8846W        W25320  11.952   7.511   1.205 -0.0111 -0.3944  0.2501
 8847W        W25321   1.481   0.470  12.572  0.1085  0.2733 -0.3117
 8848W        W25322  12.026  14.722   4.688 -0.0522  0.2276  0.1150
 8849W        W25323   1.886  11.008   5.068 -0.3725 -0.1654 -0.2106
 8850W        W25324   1.708  10.531  13.843 -0.1052  0.2890  0.1926
 8851W        W25325  16.508   4.112  14.746 -0.0213 -0.3356 -0.0130
 8852W        W25326  13.251  14.120   3.339  0.1928  0.0176 -0.1023
 8853W        W25327   7.069   8.805   3.967  0.1968 -0.2071  0.2020
 8854W        W25328   3.889  16.634   2.368  0.0993 -0.0713  0.0256
 8855W        W25329   7.201  17.700   4.525  0.0319  0.1260  0.1504
 8856W        W25330  13.747  17.856  14.643 -0.0926 -0.0164  0.1865
 8857W        W25331  13.875   3.568   4.644 -0.0236  0.2343  0.0858
 8858W        W25332  14.201  15.862   0.442  0.2005 -0.1564  0.0741
 8859W        W25333   4.314  12.855   5.659  0.3976 -0.1392 -0.0111
 8860W        W25334   8.168   1.244   3.849  0.1860  0.0568 -0.0427
 8861W        W25335   3.732  16.224  14.116 -0.0448 -0.3519  0.0619
 8862W        W25336   4.406   4.645  15.060 -0.1844 -0.1004  0.1337
 8863W        W25337  12.461  12.542   3.291  0.2633  0.0303 -0.2376
 8864W        W25338   0.508   1.128  15.072  0.2142  0.1222  0.0991
 8865W        W25339   6.541   2.047   4.890  0.3144  0.3550 -0.0279
 8866W        W25340  15.937  14.137  13.452  0.2773  0.0174  0.2687
 8867W        W25341   5.234  15.938  11.262 -0.2734 -0.2290  0.0825
 8868W        W25342  18.454  10.921   5.411 -0.0698  0.2213 -0.1672
 8869W        W25343   8.879   8.803   4.948 -0.2627  0.1937  0.2862
 8870W        W25344  12.613  12.666  15.549 -0.0312 -0.0747  0.2432
 8871W        W25345  14.285   3.264  13.646 -0.0822 -0.1479  0.3457
 8872W        W25346   6.628  14.432  15.694 -0.0908 -0.2210  0.2305
 8873W        W25347   5.516   3.124   3.164 -0.1539  0.2688  0.4196
 8874W        W25348  13.508   5.616   0.570  0.0607  0.0730 -0.2110
 8875W        W25349  13.207   9.193   0.310  0.1916  0.0053 -0.4060
 8876W        W25350   7.273  12.133  11.481  0.0598  0.0328 -0.0865
 8877W        W25351   7.115  13.579  14.526  0.1618 -0.3399  0.0176
 8878W        W25352  11.366  14.715   1.747 -0.1834 -0.0054 -0.1224
 8879W        W25353   8.853  16.274   3.412 -0.1462  0.2190  0.1678
 8880W        W25354   9.108   9.221  13.338 -0.0656  0.0811 -0.0474
 8881W        W25355   6.928  15.478  13.657 -0.1310  0.0014  0.0391
 8882W        W25356   5.297   3.313   0.996 -0.1996 -0.2264  0.2745
 8883W        W25357   7.704   0.295   0.295 -0.1835 -0.1870 -0.1272
 8884W        W25358   1.811  12.740  11.340  0.1452  0.0344  0.3073
 8885W        W25359  12.158   9.896   1.818  0.0163  0.0291  0.0343
 8886W        W25360  16.776   7.923   4.441 -0.3077 -0.0375 -0.0499
 8887W        W25361  14.997   0.037   4.275 -0.0143 -0.2510  0.0215
 8888W        W25362   1.399  14.370  14.611 -0.2436  0.0586  0.2761
 8889W        W25363   9.379  10.090  12.971 -0.1032  0.0316  0.1083
 8890W        W25364  13.170   4.014  15.070  0.0306 -0.0381  0.0773
 8891W        W25365   7.981  16.561   5.200 -0.0589  0.0365  0.0502
 8892W        W25366  15.504   3.832  12.099  0.0773 -0.0237  0.2875
 8893W        W25367   3.027   8.853  14.210  0.2072 -0.0058 -0.0166
 8894W        W25368   8.325   7.820   2.338 -0.0297 -0.3253  0.0296
 8895W        W25369   5.578  18.201  14.127 -0.0344  0.0465 -0.3618
 8896W        W25370  18.263   1.949   0.622  0.2056  0.0565  0.1474
 8897W        W25371   6.307  16.705   0.418 -0.0856  0.0299  0.0764
 8898W        W25372   3.046   3.633  14.442  0.0147 -0.0171 -0.0517
 8899W        W25373   5.730   8.168  15.669  0.1928 -0.5000 -0.0285
 8900W        W25374  10.187   4.914  14.331  0.0067  0.1744  0.3040
 8901W        W25375   6.243   1.774  11.280  0.1518  0.0966  0.3284
 8902W        W25376   2.392  12.267   5.673 -0.0772 -0.1950  0.1006
 8903W        W25377  12.690  12.265  14.610  0.2792 -0.2962 -0.0511
 8904W        W25378   4.240  14.745   3.661 -0.1631  0.1280 -0.0476
 8905W        W25379   5.739  10.858  14.152  0.0180 -0.0492 -0.1201
 8906W        W25380  11.929   4.832  12.341  0.0365  0.2260  0.1696
 8907W        W25381   4.310  10.327   2.305  0.3376  0.0413  0.0171
 8908W        W25382   8.301   3.640  10.890 -0.2192  0.0142  0.0513
 8909W        W25383   2.827   9.535  13.676  0.4649  0.1689  0.0142
 8910W        W25384   7.813  14.956   4.524  0.1450 -0.0562  0.1522
 8911W        W25385   5.696  11.998   3.978 -0.0937 -0.0549 -0.3384
 8912W        W25386  14.537  11.626   0.987 -0.0595 -0.1052  0.2071
 8913W        W25387  16.006   9.339  12.242 -0.2061 -0.0242 -0.3701
 8914W        W25388   2.032   4.002   0.275  0.3298 -0.0050 -0.2216
 8915W        W25389  17.830   0.090  11.808  0.1479  0.2235 -0.1421
 8916W        W25390   3.153   4.468   3.533 -0.2292 -0.1145  0.0559
 8917W        W25391   4.954  14.406  14.482 -0.1730 -0.0200 -0.3156
 8918W        W25392   3.423  16.451  11.850  0.3556  0.2247  0.2120
 8919W        W25393   4.202  14.297  15.497 -0.2441 -0.4309 -0.0054
 8920W        W25394  14.222  10.190   1.423  0.1724 -0.1884  0.0345
 8921W        W25395  11.636   1.166  12.277  0.0028  0.0228  0.2745
 8922W        W25396  15.058  15.757  15.646 -0.3918 -0.4650  0.0118
 8923W        W25397  10.314   3.851   2.606  0.0102 -0.2298  0.3140
 8924W        W25398  11.193  14.573  14.043 -0.0457  0.3773  0.0328
 8925W        W25399  15.925  12.759  12.483  0.2539  0.1133  0.2296
 8926W        W25400  16.512  14.885   3.856  0.1400  0.0177 -0.1675
 8927W        W25401   7.654   5.157   0.567  0.0946  0.0447  0.0544
 8928W        W25402   2.676   9.413   3.628  0.2277 -0.0361  0.1429
 8929W        W25403  17.284  18.191   4.654 -0.0606  0.2529 -0.1417
 8930W        W25404  16.574   9.098   2.918 -0.0326 -0.0356  0.0489
 8931W        W25405  14.743  13.545   1.176 -0.3094 -0.1287  0.0776
 8932W        W25406  14.882   2.613   2.269 -0.0927  0.1190 -0.2237
 8933W        W25407   2.540  15.782  14.497  0.1079 -0.0941  0.0415
 8934W        W25408   3.484  17.514   4.525  0.2735 -0.5260 -0.0978
 8935W        W25409   1.603  16.266   2.984 -0.0642  0.1188 -0.3018
 8936W        W25410  10.995  12.221  14.895 -0.1496 -0.0260 -0.0061
 8937W        W25411  17.858   4.687   2.242 -0.0112 -0.1061  0.2573
 8938W        W25412  17.968  13.769  14.323  0.0882 -0.0744 -0.0018
 8939W        W25413   7.237   6.673  11.846 -0.1195 -0.1331 -0.0280
 8940W        W25414   6.862   8.787  15.765  0.1706 -0.1464  0.0699
 8941W        W25415   7.437  10.548   2.140 -0.1095  0.0443 -0.1858
 8942W        W25416  18.133   6.531   2.139  0.0558 -0.0360  0.2447
 8943W        W25417   3.104  16.910   2.447  0.2209 -0.0707  0.0277
 8944W        W25418   1.230  13.276  11.975 -0.1142  0.3459 -0.0534
 8945W        W25419   1.838  17.197   4.162  0.3945  0.2638 -0.0174
 8946W        W25420  11.866   7.090  14.710 -0.2388 -0.0141  0.0146
 8947W        W25421   2.515   7.969   3.654  0.0639 -0.0447  0.0149
 8948W        W25422  16.600  14.894  14.646 -0.0895  0.1033  0.1073
 8949W        W25423   7.582  15.796  11.540 -0.0818  0.1271 -0.5600
 8950W        W25424   1.125   2.779  11.188  0.0202  0.1685 -0.1280
 8951W        W25425  14.068  10.942   1.412 -0.1049 -0.0226  0.0754
 8952W        W25426   4.682   2.773  12.788  0.1190 -0.1696 -0.0004
 8953W        W25427   3.649  12.231  13.860  0.7031 -0.1741  0.1651
 8954W        W25428   7.961   9.490  14.636 -0.0053 -0.0088  0.0804
 8955W        W25429   1.891   5.265   2.948 -0.1276 -0.0353 -0.1143
 8956W        W25430  11.567  11.231   0.114 -0.0905  0.1574 -0.0046
 8957W        W25431   2.039   6.885  12.474 -0.1347 -0.0975  0.2231
 8958W        W25432   3.369  14.205   1.571 -0.0700  0.2455 -0.1902
 8959W        W25433  11.765   4.572  11.912 -0.0329 -0.0457  0.0103
 8960W        W25434  14.286  15.133   1.631 -0.1620 -0.2542  0.4023
 8961W        W25435  14.680   0.933   4.190  0.3142  0.0476 -0.0057
 8962W        W25436   4.365   4.852   1.286  0.0239  0.2742 -0.3427
 8963W        W25437   6.234  15.977   3.702 -0.0859 -0.0475  0.0481
 8964W        W25438  10.281   0.736  11.597  0.2112 -0.0391 -0.1904
 8965W        W25439  17.493  16.614   4.662  0.0581 -0.2869 -0.0066
 8966W        W25440  15.426  11.966   1.410 -0.2453 -0.1137  0.1345
 8967W        W25441   9.218   8.136  13.912  0.2086 -0.4128 -0.1091
 8968W        W25442   3.239  18.151   0.896  0.3398 -0.0486 -0.2909
 8969W        W25443   6.467   7.600  12.679 -0.2418 -0.2233  0.1885
 8970W        W25444   3.275  11.874  13.182 -0.1157 -0.0817 -0.2157
 8971W        W25445   8.045  11.853  15.289 -0.1147 -0.1201 -0.2819
 8972W        W25446   1.446   8.016   3.304 -0.0386  0.0247 -0.2875
 8973W        W25447  12.127   0.239   0.912  0.3571  0.0481 -0.0455
 8974W        W25448   7.010   6.007   4.064  0.0751  0.0183 -0.0200
 8975W        W25449   3.115  17.152  12.483  0.0538 -0.2796  0.2698
 8976W        W25450  11.255   1.664  13.975  0.2885  0.1118  0.0830
 8977W        W25451   8.755   5.778   3.335  0.1140 -0.0001  0.2421
 8978W        W25452  13.218  14.876   1.611  0.1390  0.2476 -0.0169
 8979W        W25453  16.607  18.051   1.083  0.1143 -0.1606 -0.0543
 8980W        W25454   9.983  15.499   3.352  0.0635  0.2658 -0.0830
 8981W        W25455  11.585   4.548   4.353 -0.1585  0.0133 -0.0467
 8982W        W25456   7.190   2.982   0.674 -0.1529  0.1854 -0.0181
 8983W        W25457   0.321  11.603   4.742 -0.0850 -0.0179 -0.0609
 8984W        W25458   7.397   3.700   5.289 -0.0801  0.1419 -0.0660
 8985W        W25459   4.480   6.294  13.616  0.2826 -0.0273  0.0333
 8986W        W25460   9.247   8.725  13.409  0.0228 -0.2609  0.3671
 8987W        W25461  10.746   3.555   0.010  0.2342 -0.3109 -0.0751
 8988W        W25462   9.154   6.126   5.760 -0.2063  0.1485 -0.1165
 8989W        W25463   5.236   5.913   0.554 -0.2892  0.3433  0.1756
 8990W        W25464  12.763   5.146   5.138  0.3058  0.0996 -0.0473
 8991W        W25465  11.127   7.284  15.045 -0.0869 -0.1709  0.4171
 8992W        W25466  13.564  10.378   2.375  0.0730  0.1625 -0.0890
 8993W        W25467   8.234   7.316  13.049 -0.2277  0.2280 -0.0498
 8994W        W25468   4.403   9.633  10.099 -0.0470  0.0108 -0.2779
 8995W        W25469  17.125   8.887   4.945 -0.0260 -0.0168  0.0705
 8996W        W25470   6.880   3.369  15.910  0.1173 -0.0641  0.1263
 8997W        W25471  18.302  18.440   1.594  0.2867 -0.0876 -0.2069
 8998W        W25472   5.375  15.238  14.289 -0.2848 -0.0703 -0.0060
 8999W        W25473  14.762  10.525  12.634 -0.0580  0.2008 -0.1111
 9000W        W25474  15.506   7.365   1.658 -0.0913  0.2722  0.1121
 9001W        W25475   8.044  15.038   3.607 -0.1548 -0.0595  0.0806
 9002W        W25476   0.995   1.535   0.299  0.2326  0.1140 -0.0027
 9003W        W25477  15.199   0.015   3.157 -0.0226  0.0929  0.0194
 9004W        W25478   3.693   8.990  11.526  0.0291 -0.1065  0.3961
 9005W        W25479  15.308  10.625  14.762 -0.2238 -0.1950 -0.0438
 9006W        W25480  12.152  10.908   2.005  0.3257 -0.1826 -0.3946
 9007W        W25481  15.691  12.937  14.739  0.0923  0.0275 -0.3535
 9008W        W25482   2.095  11.740   3.908  0.0528  0.2647 -0.0136
 9009W        W25483   9.503   7.601   4.919  0.2278  0.0322  0.1687
 9010W        W25484  10.419   1.109   3.908  0.0873 -0.0022 -0.0200
 9011W        W25485  16.300  16.470  14.189  0.2012  0.3343 -0.4045
 9012W        W25486  11.631  12.560   0.012  0.1036  0.3955  0.2879
 9013W        W25487   9.670   2.659   1.168 -0.5401 -0.0798  0.2777
 9014W        W25488   3.466  10.773   0.666  0.0306  0.1473 -0.1384
 9015W        W25489   5.270   4.823   4.888 -0.1356  0.1699 -0.2000
 9016W        W25490  14.497  13.772   2.100  0.0318  0.4607 -0.3426
 9017W        W25491   3.244   3.810  11.801  0.0981 -0.2130  0.1222
 9018W        W25492  14.614  17.081  10.954 -0.0092  0.1876 -0.0525
 9019W        W25493   7.464  13.142  15.340  0.0693 -0.0695 -0.1285
 9020W        W25494   9.071   4.829   5.230 -0.0565  0.2219  0.0071
 9021W        W25495   9.980   9.556  10.378 -0.2170 -0.5404 -0.0228
 9022W        W25496   5.485   9.391  15.559  0.0568 -0.0390  0.1036
 9023W        W25497   5.643   2.196   1.700 -0.0915 -0.3211  0.5342
 9024W        W25498   6.086   5.605  14.343  0.0949 -0.2222  0.0646
 9025W        W25499   2.147   0.808  11.453  0.0960 -0.1216 -0.1645
 9026W        W25500   7.879   8.211  13.624 -0.0412  0.1254  0.3402
 9027W        W25501  11.452   5.265  12.714  0.1030 -0.2783 -0.1548
 9028W        W25502   3.924  16.083   4.875 -0.0330  0.0273 -0.1096
 9029W        W25503   0.470   2.801  12.215 -0.4850 -0.3471 -0.0268
 9030W        W25504   2.827   8.118  14.349  0.0171 -0.1434 -0.0349
 9031W        W25505   8.074  10.943   1.617  0.0221 -0.0994  0.0798
 9032W        W25506  14.825   9.516   0.623 -0.2008  0.0988  0.0982
 9033W        W25507  16.018  15.646  14.752  0.1111 -0.0203 -0.2349
 9034W        W25508   3.911  13.587   3.303 -0.0282  0.0497  0.0029
 9035W        W25509   2.409   0.473  13.242  0.1295  0.0308  0.0696
 9036W        W25510   7.924  10.244  11.261  0.1942  0.0481  0.1987
 9037W        W25511  12.439   6.272  11.291 -0.5480 -0.0067 -0.2505
 9038W        W25512   1.532   8.477  10.355  0.0781 -0.0125 -0.0393
 9039W        W25513   3.198   9.021   0.466  0.2364 -0.2228 -0.1711
 9040W        W25514   5.883   3.201   0.318 -0.2864 -0.0346  0.2196
 9041W        W25515   4.701  13.659  15.208 -0.3209 -0.0974 -0.0568
 9042W        W25516   8.157   9.407   3.112 -0.0840 -0.0423  0.4484
 9043W        W25517  13.571   0.345   2.541  0.0435  0.1021  0.0733
 9044W        W25518  10.135   4.373   1.866 -0.0026 -0.1539 -0.0324
 9045W        W25519   2.979   5.712  13.133 -0.1220 -0.0170 -0.0381
 9046W        W25520   3.476   1.786   2.464  0.2885  0.0643  0.2789
 9047W        W25521  13.257  11.904   0.451  0.1533  0.2457  0.3496
 9048W        W25522  10.855  16.634  13.015  0.4029 -0.0390  0.3567
 9049W        W25523   1.147   4.450  15.220  0.1606  0.1447  0.0437
 9050W        W25524   0.284  13.563  11.512  0.3835 -0.1386  0.0472
 9051W        W25525   9.267   3.727  15.118 -0.1045 -0.1082 -0.0442
 9052W        W25526  11.518   8.378  14.886  0.0327 -0.2898  0.2762
 9053W        W25527   9.510  13.857   0.663 -0.0842  0.1054  0.1173
 9054W        W25528   6.508  16.558   0.964 -0.1761 -0.0158 -0.0108
 9055W        W25529   5.504   8.643  15.793  0.0509  0.1876  0.0238
 9056W        W25530   0.114   3.558  14.148  0.1820 -0.0231  0.1529
 9057W        W25531   7.815  15.676   2.205  0.0372 -0.0122  0.1711
 9058W        W25532   2.337  11.656   5.388  0.1315  0.1541 -0.1174
 9059W        W25533  13.019   3.508  14.577 -0.0577  0.2273 -0.1183
 9060W        W25534  14.561  16.468  12.741  0.3098 -0.2018  0.1445
 9061W        W25535   8.148   4.996   4.321 -0.5543  0.0509  0.1048
 9062W        W25536   2.797   2.981   1.912  0.1390 -0.0439  0.0243
 9063W        W25537  17.244  13.271   4.229  0.1192 -0.2310  0.2797
 9064W        W25538   2.356  13.376  11.786 -0.0898  0.0451  0.2146
 9065W        W25539  11.894  15.652   0.985 -0.1731  0.1733 -0.0449
 9066W        W25540   9.616   0.742  10.310  0.3083 -0.2256 -0.2971
 9067W        W25541  17.073   0.395  10.023  0.2277 -0.1535 -0.0779
 9068W        W25542  15.854  17.090  15.089 -0.4134  0.3341  0.1534
 9069W        W25543   7.667  12.795   2.759 -0.2041 -0.1244 -0.0350
 9070W        W25544   8.455  17.747   3.195 -0.1027  0.0568  0.0503
 9071W        W25545  16.450   1.606   3.668  0.0575  0.0734 -0.2872
 9072W        W25546   5.745   6.204   1.033  0.1912 -0.2188 -0.1115
 9073W        W25547   7.919  11.321   2.844  0.1089  0.2522  0.1578
 9074W        W25548   7.027  16.980  11.269  0.2439 -0.0973  0.0581
 9075W        W25549  11.685  11.184  15.503  0.2897  0.2615 -0.0876
 9076W        W25550  16.437   8.672   3.968 -0.0664 -0.4850  0.0867
 9077W        W25551  11.308  17.963  10.472  0.1509 -0.0210  0.4955
 9078W        W25552   1.795   7.326  14.646  0.0310 -0.2120 -0.0808
 9079W        W25553   1.858  17.077   0.983 -0.2109  0.1356  0.4956
 9080W        W25554   3.253   5.359   4.418  0.0392 -0.0996  0.0811
 9081W        W25555  17.692  16.679  14.139  0.1422  0.0002 -0.2723
 9082W        W25556   6.194  18.053   0.049  0.1056 -0.0369 -0.0776
 9083W        W25557  15.850  15.162  15.968  0.1325 -0.2960 -0.1235
 9084W        W25558   6.142   6.137   4.393 -0.3077  0.1413 -0.1413
 9085W        W25559  12.883   0.419   3.057  0.0449  0.0570 -0.0708
 9086W        W25560  12.091   7.196   1.507 -0.1735 -0.0787 -0.0684
 9087W        W25561  18.377   7.319   1.971 -0.0790 -0.2015  0.0278
 9088W        W25562  10.015   4.051   3.584 -0.0208 -0.1226 -0.0160
 9089W        W25563   7.046  12.399  11.991 -0.1469  0.1809  0.0219
 9090W        W25564   9.444   2.615   3.887 -0.0974 -0.1706  0.3670
 9091W        W25565   2.620  11.847   3.286  0.2884  0.0516  0.0185
 9092W        W25566   6.728  12.092  11.686 -0.0697 -0.0204 -0.3348
 9093W        W25567   4.410   8.859  14.623  0.1223  0.1702 -0.0097
 9094W        W25568  14.486   3.476   0.682 -0.3007  0.0618 -0.1073
 9095W        W25569  13.577  15.236  12.515  0.0793  0.0261 -0.1424
 9096W        W25570   8.416  14.391  11.306 -0.0094  0.2092 -0.1445
 9097W        W25571  14.266   9.458   2.840 -0.2241  0.2815  0.1635
 9098W        W25572   6.726   2.108  11.537 -0.3092  0.0846 -0.0221
 9099W        W25573   9.411   3.377   0.603  0.2276 -0.2284 -0.2427
 9100W        W25574  10.418   9.608   3.429  0.2061  0.0959  0.0487
 9101W        W25575   0.055   6.730  14.505 -0.2406  0.0018  0.0577
 9102W        W25576  10.365  16.300  15.464 -0.1755  0.0213  0.0434
 9103W        W25577  14.966  11.866   1.234 -0.0863 -0.2318 -0.0467
 9104W        W25578   0.990   3.643  14.781 -0.3367  0.0025 -0.1006
 9105W        W25579  15.035  11.383   1.988 -0.0846  0.1006  0.1590
 9106W        W25580  16.839   5.166   4.760 -0.2470 -0.1381  0.1442
 9107W        W25581  18.047  18.238  12.265  0.0023 -0.2307  0.2499
 9108W        W25582  12.378  12.662  14.615 -0.1137  0.1306  0.1366
 9109W        W25583  12.552  17.094   5.841  0.3083 -0.1053  0.3334
 9110W        W25584  14.274  13.505  11.835  0.0415 -0.0526 -0.1040
 9111W        W25585  14.005  18.366   1.766 -0.0894  0.1044  0.1250
 9112W        W25586  12.408   7.029  12.902  0.0822 -0.4947 -0.0722
 9113W        W25587  13.916   2.640   1.637 -0.1600 -0.0372  0.0853
 9114W        W25588   6.051  13.585   1.542  0.1440 -0.1216  0.2532
 9115W        W25589   9.264   3.320  13.998 -0.0121 -0.2854 -0.0740
 9116W        W25590   2.136   7.067   1.193  0.2975 -0.1643 -0.0960
 9117W        W25591  18.405   2.173  15.359  0.1395  0.0553 -0.3167
 9118W        W25592  10.742  12.902   4.814  0.1194 -0.0297  0.2251
 9119W        W25593   2.208  12.784   0.587  0.0106 -0.1159  0.2880
 9120W        W25594   0.757   9.721   1.940  0.3610 -0.1358 -0.0320
 9121W        W25595   1.193  10.509  12.434  0.1080  0.3409  0.4615
 9122W        W25596   0.803  13.450   0.792 -0.1336  0.1624  0.1632
 9123W        W25597   4.976  16.427   3.676 -0.0248  0.0822  0.1608
 9124W        W25598   7.947   2.621  14.841  0.1399  0.1756 -0.1146
 9125W        W25599  16.803   9.600   4.641 -0.1617 -0.0268 -0.0341
 9126W        W25600  16.128   8.861  12.184 -0.2089 -0.1456 -0.2025
 9127W        W25601   8.822   7.521   0.360  0.3815  0.0954 -0.0712
 9128W        W25602   8.213  12.044   4.223  0.1227 -0.0118  0.0654
 9129W        W25603  15.973  15.958  11.914 -0.1668 -0.0344  0.0874
 9130W        W25604   1.189   8.685  14.740  0.0239  0.1050  0.2271
 9131W        W25605   7.982   5.479   5.003 -0.0160 -0.0843  0.3206
 9132W        W25606   5.252   6.556  12.060  0.0868 -0.1476 -0.1493
 9133W        W25607  11.660  13.761  12.118 -0.1597  0.1418 -0.0198
 9134W        W25608  18.043   4.589  11.502 -0.3251 -0.0403 -0.0342
 9135W        W25609   8.805  13.167   4.464 -0.2034  0.1233  0.0460
 9136W        W25610  18.315  17.879   5.218 -0.1496 -0.2911  0.0831
 9137W        W25611   3.943  11.318  14.459 -0.2684 -0.0267 -0.1852
 9138W        W25612   5.964   0.046  12.633 -0.1953  0.2166  0.0338
 9139W        W25613  14.254   4.402  11.075  0.3295 -0.5003 -0.0659
 9140W        W25614   4.783  10.438  14.004  0.0331 -0.3011 -0.2265
 9141W        W25615   4.763   2.010   2.158 -0.1701 -0.2514 -0.2364
 9142W        W25616  12.983   8.712  13.144 -0.1286 -0.0024 -0.1404
 9143W        W25617   8.226   3.308  11.343  0.4548 -0.0086 -0.0768
 9144W        W25618   1.493  17.626   4.237  0.0323  0.1117 -0.1037
 9145W        W25619   8.753  10.589   5.241 -0.1412  0.0855  0.2903
 9146W        W25620   6.160   2.624   0.938 -0.0076 -0.0306 -0.1015
 9147W        W25621   3.016  18.006  13.288 -0.2172  0.0138  0.0949
 9148W        W25622   8.089   2.051   1.069  0.0139 -0.1815  0.0089
 9149W        W25623  12.119  14.595  15.854  0.3611 -0.1178 -0.2162
 9150W        W25624  17.338   5.274  14.523 -0.2662  0.1280 -0.2991
 9151W        W25625  15.367  15.834   2.114  0.0344  0.2140 -0.2306
 9152W        W25626  12.220  12.575   1.092  0.1207 -0.1753  0.1455
 9153W        W25627   3.738  16.307  13.200 -0.0404  0.0130 -0.0919
 9154W        W25628  13.897  10.878   4.040 -0.1650 -0.0267 -0.1686
 9155W        W25629   6.067  13.904  11.469  0.0161  0.0081  0.0061
 9156W        W25630   0.477  17.750  13.559  0.0880 -0.0800 -0.3545
 9157W        W25631   0.413  13.377   4.105 -0.2530  0.0811  0.0292
 9158W        W25632   8.505   9.172  14.528 -0.1388  0.2933  0.3820
 9159W        W25633  10.475   4.430  11.413 -0.0625  0.0355 -0.0804
 9160W        W25634   3.115  12.481   1.468 -0.2395  0.0384  0.2525
 9161W        W25635   2.316   8.951  11.292  0.1076 -0.0737 -0.1498
 9162W        W25636  14.516  13.542   4.066  0.0394 -0.0524  0.2062
 9163W        W25637   6.897   5.584   6.324 -0.1283  0.3545  0.1825
 9164W        W25638   8.862   0.325   3.401  0.1361 -0.1324  0.2481
 9165W        W25639  14.579  15.443  15.554  0.2067  0.1336  0.1995
 9166W        W25640  15.195   7.414   0.391  0.2755  0.1358 -0.1081
 9167W        W25641  15.155   6.052  14.042  0.0574  0.0413 -0.0110
 9168W        W25642  14.679   8.937  11.491 -0.0949 -0.5005 -0.1227
 9169W        W25643   3.019   9.619   1.959 -0.0519 -0.2283 -0.0084
 9170W        W25644  16.114   5.646  11.531 -0.0252  0.3880  0.1320
 9171W        W25645   8.081   8.602   1.394 -0.0868 -0.1579  0.1688
 9172W        W25646   5.448  11.005  15.406  0.2312  0.1611 -0.0037
 9173W        W25647  17.385   6.285  15.710  0.2252  0.0113  0.2602
 9174W        W25648   8.659  13.072   3.075  0.6601  0.3421 -0.0697
 9175W        W25649   4.577   3.467  13.306  0.4033  0.2185  0.3747
 9176W        W25650   1.837  17.502  11.123 -0.1474 -0.2896 -0.0023
 9177W        W25651  16.319  15.812   4.342  0.1653  0.0971 -0.2330
 9178W        W25652   4.899  14.893   2.600 -0.1685  0.6941  0.0702
 9179W        W25653  16.840  18.046  14.241 -0.1682  0.1523  0.4799
 9180W        W25654   9.431   9.960   0.238  0.0938  0.3729 -0.0185
 9181W        W25655   0.550   9.416  11.318 -0.1310 -0.0454  0.1082
 9182W        W25656  10.107   3.041  15.131 -0.0305 -0.0278 -0.1505
 9183W        W25657  17.110  12.601   1.197  0.0312  0.1154  0.0627
 9184W        W25658  16.145   1.327  11.044  0.0973  0.2557 -0.0404
 9185W        W25659   4.460   5.080   4.793  0.1226 -0.1291 -0.2487
 9186W        W25660   8.863  12.018  10.638 -0.0210 -0.0468  0.0272
 9187W        W25661   4.278  14.037  11.326  0.0955 -0.4588  0.0130
 9188W        W25662   1.102   4.642   1.785 -0.3442 -0.4651  0.2691
 9189W        W25663   1.214  13.052  14.529 -0.1288 -0.0616 -0.2459
 9190W        W25664   6.981  14.134   1.439  0.0848 -0.3105  0.0831
 9191W        W25665   0.403   8.960  11.102  0.2181 -0.2749 -0.2497
 9192W        W25666  17.944  13.161  12.810  0.4204  0.0690 -0.0259
 9193W        W25667   4.140  16.385  11.382  0.1050  0.3523  0.1293
 9194W        W25668   7.744   6.735  11.136 -0.0182 -0.3001 -0.0881
 9195W        W25669   2.205   0.178   1.526  0.1920  0.2019  0.4264
 9196W        W25670  11.174   7.957   2.928  0.1214 -0.0057  0.0242
 9197W        W25671   1.640  12.216   5.249 -0.0700 -0.3743 -0.1651
 9198W        W25672  15.740   5.256   0.638 -0.1176 -0.0543  0.1840
 9199W        W25673   1.282   2.823  11.675  0.2801 -0.0411  0.0524
 9200W        W25674   7.658   6.281   2.759 -0.3161  0.1171  0.0287
 9201W        W25675  11.642   1.716   2.020  0.0142 -0.2031  0.2987
 9202W        W25676   9.428  10.955   4.233 -0.1616 -0.2570 -0.2415
 9203W        W25677   4.579  13.422   0.560  0.1826 -0.1856  0.3826
 9204W        W25678   2.971  16.579  12.315 -0.1252 -0.2529 -0.0756
 9205W        W25679   1.177   0.554   2.883 -0.0666 -0.1453  0.1336
 9206W        W25680  15.723   8.647   5.147  0.1546 -0.1868 -0.0621
 9207W        W25681   2.394   4.490   2.826  0.3617 -0.0249 -0.1451
 9208W        W25682  16.511  18.080  11.231 -0.3520  0.0216  0.0722
 9209W        W25683   1.062   0.879   5.065 -0.1763 -0.0668  0.0922
 9210W        W25684  16.549   8.381  10.984  0.1613  0.1790 -0.1743
 9211W        W25685  15.363   3.459  14.709 -0.0297 -0.0194 -0.0260
 9212W        W25686   1.492  17.890  12.914  0.3183  0.1825  0.0379
 9213W        W25687   4.331  12.671   3.113  0.1773 -0.0918  0.1340
 9214W        W25688   6.965  11.821   1.957  0.0542 -0.0112 -0.1927
 9215W        W25689  13.805  16.358   4.161  0.1378 -0.1422  0.1500
 9216W        W25690   5.157  17.417  12.464 -0.0225  0.0578  0.0012
 9217W        W25691   0.966   9.754   2.566 -0.0822  0.1163 -0.2127
 9218W        W25692  10.004   1.388   4.062  0.1477 -0.0342  0.1927
 9219W        W25693  17.789   5.131  11.146 -0.3409 -0.1653 -0.0100
 9220W        W25694  12.502  15.701  14.801  0.0588 -0.3564 -0.1687
 9221W        W25695  17.331   6.666   0.622  0.2402 -0.0632  0.1318
 9222W        W25696   9.397  16.250   0.536  0.1761 -0.2614  0.0168
 9223W        W25697   9.000   7.570   3.110  0.2180 -0.1183  0.2791
 9224W        W25698   3.819   0.845   1.391  0.1370 -0.2715  0.0503
 9225W        W25699   1.355   9.840  13.133 -0.0500 -0.0465 -0.2620
 9226W        W25700   0.744   8.474  11.553  0.4041  0.2401 -0.0219
 9227W        W25701  13.282   6.098   1.273 -0.1923 -0.1313  0.2208
 9228W        W25702   0.048  13.907  14.312  0.2923 -0.0481  0.1877
 9229W        W25703   6.605   7.195   0.030 -0.0488 -0.0511 -0.1572
 9230W        W25704   2.405  17.487   2.419 -0.3301 -0.1608  0.1564
 9231W        W25705   7.907   2.336  13.655  0.1884  0.0109 -0.0869
 9232W        W25706  14.559   3.267  13.111 -0.0599 -0.0466  0.0780
 9233W        W25707  15.236  14.660  13.076  0.2640 -0.1498 -0.1635
 9234W        W25708   5.176  12.537   4.768  0.3240 -0.0875 -0.1432
 9235W        W25709  12.196  10.101  15.218  0.3402  0.3051 -0.0644
 9236W        W25710   7.931  16.550  12.477  0.1476 -0.0751 -0.1516
 9237W        W25711   7.057   1.567  14.638 -0.2444 -0.0711 -0.0928
 9238W        W25712  12.838   5.396  15.923 -0.3034 -0.1118  0.2080
 9239W        W25713  12.178  10.790  12.095  0.1388 -0.1646  0.0463
 9240W        W25714   2.895   0.922  12.620 -0.0330  0.1308 -0.0758
 9241W        W25715  11.581   1.080   4.043  0.0817 -0.0596  0.1612
 9242W        W25716   2.710  16.775   5.400  0.1243 -0.4019  0.0572
 9243W        W25717  15.637   3.819  14.441 -0.1645  0.1856 -0.1486
 9244W        W25718  16.399  10.106   2.102  0.1712 -0.0274  0.2783
 9245W        W25719  17.700   6.015   1.266  0.2481 -0.1886  0.1193
 9246W        W25720   6.087   0.524   5.607 -0.3915  0.2730 -0.1374
 9247W        W25721   4.126   9.349   2.846  0.1262 -0.1502  0.2251
 9248W        W25722  15.486   4.055  13.992  0.2623  0.2079 -0.1019
 9249W        W25723  13.438   9.079  13.607  0.1011  0.3173 -0.0201
 9250W        W25724   4.930   1.961   1.392  0.1054 -0.0203 -0.2394
 9251W        W25725   1.202  18.324  14.180  0.1050  0.2493  0.2477
 9252W        W25726  10.008  14.722   4.026  0.3676 -0.1647 -0.0743
 9253W        W25727   8.794   2.788  12.536  0.1769  0.0970  0.0310
 9254W        W25728  17.886  14.236  14.827 -0.0306 -0.4033  0.1900
 9255W        W25729   0.500   5.274  10.837 -0.3038 -0.0024  0.0414
 9256W        W25730  16.521   8.881  14.191  0.0987  0.1234 -0.1428
 9257W        W25731   1.758  17.124  12.456  0.2485 -0.1729  0.3140
 9258W        W25732   1.666   4.202   2.410  0.1972 -0.1773  0.0228
 9259W        W25733   6.706  18.439  11.322  0.1196 -0.1870 -0.3007
 9260W        W25734  11.387   9.344  15.003  0.1278 -0.1078 -0.1560
 9261W        W25735  16.859   5.221   2.553  0.2010 -0.0645 -0.1519
 9262W        W25736   4.990   2.661  14.655 -0.0036  0.0195 -0.0795
 9263W        W25737  13.736  12.175  15.401 -0.0332 -0.1035  0.1160
 9264W        W25738   8.437  14.776   1.601  0.1476  0.2381 -0.0014
 9265W        W25739   6.661  15.890  13.993  0.1432  0.2725 -0.0857
 9266W        W25740  14.378   1.719  13.637 -0.0709  0.1067 -0.0878
 9267W        W25741  13.921  12.031  15.830  0.2161  0.1508 -0.1285
 9268W        W25742   0.199   2.206  13.615 -0.2335  0.2115 -0.1438
 9269W        W25743   7.957   5.290   0.968 -0.0466  0.1228 -0.1053
 9270W        W25744   2.892   6.307   0.286  0.0046  0.0740  0.1197
 9271W        W25745  16.765   2.636  10.782 -0.1730 -0.1029  0.0479
 9272W        W25746  12.604  11.000   1.671 -0.0927 -0.1504 -0.2056
 9273W        W25747   7.642   6.032   3.282  0.2094  0.4633 -0.2296
 9274W        W25748  15.946  11.787   0.772  0.0346 -0.0412 -0.3375
 9275W        W25749   7.137   2.006  12.642  0.3979 -0.0460  0.0091
 9276W        W25750   7.587   7.268   1.444  0.0151  0.0888 -0.1730
 9277W        W25751  10.801  11.917   4.942  0.0793  0.0792  0.0591
 9278W        W25752  10.392   9.052   0.497 -0.2707 -0.0273  0.0539
 9279W        W25753  15.947   5.159   3.149  0.1275 -0.0063 -0.0101
 9280W        W25754   2.359   1.035  12.693 -0.1405  0.3629  0.2592
 9281W        W25755   3.487   5.353   3.496  0.1477 -0.0795  0.0148
 9282W        W25756  14.671  13.956   1.561 -0.1336  0.3019  0.2892
 9283W        W25757   2.940   7.801   4.580  0.2307 -0.3625  0.2001
 9284W        W25758  17.235   6.824   2.192 -0.0026  0.0264 -0.0583
 9285W        W25759  10.879   8.958   1.722  0.0237  0.0451  0.2288
 9286W        W25760  17.868   7.567  12.559 -0.1262 -0.0329 -0.0060
 9287W        W25761  10.700  12.221   3.330  0.1072 -0.0815  0.0043
 9288W        W25762  13.593  15.846   1.314  0.0726 -0.1827 -0.1753
 9289W        W25763   6.098   5.900   3.857 -0.1619 -0.1491  0.0426
 9290W        W25764   4.863   3.945   3.752 -0.2157  0.1476 -0.3628
 9291W        W25765   8.150  14.801  12.500  0.0269  0.0714  0.1626
 9292W        W25766   4.493  14.696   0.806  0.0841 -0.0618 -0.5008
 9293W        W25767  17.170   0.654  13.392  0.2156  0.1206 -0.3452
 9294W        W25768  16.337   9.399   5.693  0.2392  0.1004  0.1635
 9295W        W25769  17.874   7.874  13.629 -0.1556 -0.1205  0.0459
 9296W        W25770   1.010   8.336   0.129  0.1660  0.0496 -0.0562
 9297W        W25771  10.246  12.421  15.374  0.2409 -0.0493  0.4205
 9298W        W25772   1.176   8.649  11.771  0.4537 -0.1692  0.0556
 9299W        W25773   9.930  14.914  11.822  0.0331  0.1361  0.3477
 9300W        W25774  10.228   2.425  13.375 -0.2609  0.0537 -0.0567
 9301W        W25775  10.908  17.567   2.498 -0.0114  0.0822 -0.1349
 9302W        W25776   6.756  12.801  13.612 -0.1676  0.0037  0.0345
 9303W        W25777   2.063  15.793   3.993  0.2154 -0.0037  0.0510
 9304W        W25778  17.080   6.617  15.808  0.2140 -0.0817 -0.3097
 9305W        W25779   1.254   0.965   0.497 -0.0960 -0.1122  0.2978
 9306W        W25780  18.289   9.831  12.114  0.0977  0.2776  0.1920
 9307W        W25781  15.873  14.386  10.465 -0.0144  0.3794 -0.1767
 9308W        W25782   1.931   6.617   4.331 -0.2709  0.0401  0.1178
 9309W        W25783  11.709   6.000  14.537 -0.0317 -0.1213 -0.3302
 9310W        W25784  15.549  13.130   2.762  0.0632 -0.0844 -0.2262
 9311W        W25785   3.205  17.080  14.369 -0.2672 -0.2968  0.0988
 9312W        W25786  12.978  10.989  10.535 -0.3391  0.3408  0.0658
 9313W        W25787  11.801  11.217  12.093 -0.0432 -0.1031 -0.0921
 9314W        W25788   9.250   2.404  15.734 -0.0866  0.3759 -0.0780
 9315W        W25789   2.103  16.141   3.136 -0.1351  0.2798 -0.0791
 9316W        W25790   5.259   2.800   1.655  0.2168  0.0771 -0.1443
 9317W        W25791  12.384   6.828   3.695 -0.3373  0.1467  0.2623
 9318W        W25792   7.147  15.457   0.005  0.0252 -0.0089 -0.1014
 9319W        W25793  16.457   6.985  15.521  0.1891 -0.0540  0.1833
 9320W        W25794   2.446   4.561  12.437 -0.2612  0.1365 -0.1512
 9321W        W25795   8.484   0.469   0.314  0.0348  0.3127  0.3085
 9322W        W25796  15.444   4.677  11.114  0.0138 -0.3012  0.3100
 9323W        W25797   6.167  11.661  14.561 -0.2077  0.1366  0.1825
 9324W        W25798  17.010  17.186   3.855 -0.1204  0.2166  0.2059
 9325W        W25799   8.121  12.303   0.945 -0.1784 -0.1720 -0.2591
 9326W        W25800   0.662   5.602  11.484 -0.2067  0.0437 -0.1140
 9327W        W25801  15.302  15.937   1.612  0.0203  0.1931 -0.0470
 9328W        W25802   2.624  15.433   3.313  0.2672  0.1989  0.0044
 9329W        W25803   2.526  16.149  14.094 -0.0363 -0.1686  0.0263
 9330W        W25804   9.129   4.500   5.607  0.1504  0.2404  0.2441
 9331W        W25805   3.234   7.271  10.852 -0.1297 -0.1928 -0.1000
 9332W        W25806  16.548  16.341   5.129  0.2108 -0.0783 -0.2486
 9333W        W25807  13.349  14.534  13.514  0.1952 -0.0452  0.0367
 9334W        W25808   7.307   9.229   0.403  0.2213 -0.2783  0.1302
 9335W        W25809  10.461  11.863  12.722  0.2368 -0.0251  0.1385
 9336W        W25810   9.586  15.828   3.303  0.1530 -0.0469  0.1879
 9337W        W25811  16.511   1.974   3.306  0.0649  0.0959 -0.0748
 9338W        W25812   7.404   7.979   3.842  0.0894 -0.2572 -0.0413
 9339W        W25813   8.795  15.283   0.304 -0.3623  0.0124 -0.0905
 9340W        W25814   0.681   7.290   3.126 -0.0010  0.0616  0.2533
 9341W        W25815  16.740  13.009  13.240  0.0654  0.0952 -0.2069
 9342W        W25816   0.979   2.805  12.169  0.2502 -0.2168  0.4193
 9343W        W25817  18.362   2.280   1.039 -0.4241 -0.1415 -0.0184
 9344W        W25818   3.933   0.114  14.777 -0.1392 -0.2391 -0.1685
 9345W        W25819  15.730  13.163  12.219  0.0667  0.3235 -0.2048
 9346W        W25820   4.515  13.596   3.364 -0.0136 -0.1274 -0.0729
 9347W        W25821   4.395   4.535   2.115  0.2440  0.2078  0.1891
 9348W        W25822   7.916   9.735  13.748  0.0424 -0.2290 -0.0780
 9349W        W25823   3.975   4.115  15.735 -0.2719 -0.0786 -0.0685
 9350W        W25824   7.359   3.965   2.151 -0.3881  0.1031  0.2958
 9351W        W25825  10.251  18.462   1.566 -0.0436  0.0602  0.2529
 9352W        W25826   0.871   2.719  15.442 -0.4450  0.0862 -0.1977
 9353W        W25827   8.774  12.982   1.321  0.2042  0.4053 -0.1402
 9354W        W25828   8.409   8.926   3.286  0.3475 -0.0216 -0.0373
 9355W        W25829  16.738  15.872   3.989  0.0885 -0.1853  0.0944
 9356W        W25830   2.229   0.726  15.711  0.1233 -0.0703  0.1368
 9357W        W25831  12.585  14.064  14.014 -0.1081  0.0595 -0.1853
 9358W        W25832   5.041  16.575   4.233  0.0104 -0.0622 -0.0391
 9359W        W25833   3.429  16.530   2.597 -0.2040  0.4929  0.1833
 9360W        W25834  13.023   4.300   4.615 -0.0066 -0.1193 -0.0192
 9361W        W25835   4.666   5.273  11.953  0.1353 -0.0583  0.0163
 9362W        W25836   1.618  11.812   3.159 -0.2001  0.2615 -0.1645
 9363W        W25837   1.749  16.245   0.426 -0.1207  0.1327  0.1263
 9364W        W25838   2.988  14.851  10.356 -0.2001 -0.1183 -0.0872
 9365W        W25839  12.081   1.251   3.441 -0.3957  0.0852  0.1109
 9366W        W25840   8.045  16.019   3.551 -0.3081 -0.0624  0.0802
 9367W        W25841   8.436  12.041  10.850  0.0009  0.2456 -0.3228
 9368W        W25842  13.314  11.982   5.769 -0.1479 -0.2003  0.3033
 9369W        W25843  17.769   0.070  13.175 -0.0124  0.0855 -0.1285
 9370W        W25844  18.437   6.606   3.148 -0.1343 -0.1730 -0.3406
 9371W        W25845  11.053  15.760   2.693  0.0052  0.0930  0.0286
 9372W        W25846  10.442   8.230  15.869 -0.1668  0.4379  0.1789
 9373W        W25847   9.314  15.114  11.558  0.1336  0.3026 -0.0056
 9374W        W25848  12.110   4.366   4.449  0.2253 -0.3834 -0.4363
 9375W        W25849   7.309   4.752   5.279 -0.1673 -0.0506  0.0940
 9376W        W25850  11.079   7.487   0.964  0.2897  0.0764  0.2638
 9377W        W25851   8.924   2.263   5.022  0.3362 -0.1717 -0.1957
 9378W        W25852   0.618  18.401   3.083 -0.2467  0.0643 -0.1373
 9379W        W25853  12.739   8.697   5.066  0.0121 -0.1260  0.0467
 9380W        W25854   4.633   8.823   1.307 -0.0465 -0.3491 -0.0114
 9381W        W25855   7.913   5.067  14.319  0.0166 -0.3432  0.0883
 9382W        W25856  10.053  13.697  15.910 -0.0938 -0.0602  0.3233
 9383W        W25857   6.425   5.259   1.848 -0.4643 -0.2419 -0.0487
 9384W        W25858   9.633   3.624   1.196  0.0017 -0.1747  0.1894
 9385W        W25859   2.577  10.517  12.069 -0.0324 -0.2632 -0.0614
 9386W        W25860   1.228   5.974  15.892 -0.3153  0.0572 -0.1166
 9387W        W25861   1.689  12.585   1.924  0.2046  0.1426 -0.0423
 9388W        W25862   0.386  12.606   3.461  0.3625 -0.1879  0.1952
 9389W        W25863  17.534   5.086   4.306 -0.0517  0.0453  0.1904
 9390W        W25864  14.312   0.732   5.017 -0.0705 -0.3421  0.0074
 9391W        W25865   1.504   0.856  12.965  0.2633 -0.0251 -0.1880
 9392W        W25866  13.351  13.385  11.972 -0.1054 -0.1075 -0.0269
 9393W        W25867  12.985   2.444  14.801  0.3528 -0.3485  0.1588
 9394W        W25868   8.300  14.507   0.287 -0.3269  0.2979  0.3501
 9395W        W25869   6.559   5.881   3.947 -0.0017  0.0008 -0.1149
 9396W        W25870   7.299   0.111   3.272  0.3009  0.0901 -0.0957
 9397W        W25871   6.900  15.720  15.153  0.1050 -0.3100  0.1806
 9398W        W25872  17.903  14.350  13.515  0.0521 -0.1753 -0.2556
 9399W        W25873  13.712   1.641   4.167  0.0686  0.0435 -0.0821
 9400W        W25874  17.808  11.594   1.447 -0.3136  0.1368 -0.2759
 9401W        W25875   5.849   6.305  15.394  0.2142  0.0004 -0.0185
 9402W        W25876  15.758  10.381  12.916 -0.1215 -0.0359 -0.3549
 9403W        W25877  17.634  12.970  14.021  0.1384  0.1380 -0.1976
 9404W        W25878   0.012  17.694  12.537 -0.3747 -0.1794  0.1784
 9405W        W25879   5.281   2.763  14.265 -0.0831  0.0779  0.2513
 9406W        W25880  15.175  12.982   3.286  0.2797 -0.0194  0.2482
 9407W        W25881  14.763   3.881   2.913 -0.0526  0.2857  0.0982
 9408W        W25882   8.566   1.833   2.904 -0.1022  0.1691 -0.2083
 9409W        W25883   4.635  17.826  15.448 -0.1030  0.0888 -0.3302
 9410W        W25884  14.701  12.209   3.555 -0.1036 -0.1648 -0.3713
 9411W        W25885  16.268  10.701   0.210  0.0453 -0.1215  0.1763
 9412W        W25886   1.497  10.360   0.373  0.2869 -0.0138 -0.0379
 9413W        W25887  11.836  17.306  13.751 -0.0732 -0.2011 -0.0266
 9414W        W25888  17.498  17.435   3.128 -0.2654  0.2300 -0.0419
 9415W        W25889   2.829   3.549  15.616 -0.0731  0.4130  0.0716
 9416W        W25890  12.893   2.776   3.843  0.1741 -0.1487  0.0752
 9417W        W25891  13.420  15.680   2.179 -0.1778 -0.0330  0.1243
 9418W        W25892   4.640   9.694   5.443  0.1269  0.0285  0.0051
 9419W        W25893   3.150   2.175  11.405 -0.0548 -0.0172  0.1666
 9420W        W25894  14.387   2.550  12.844  0.3259 -0.0884 -0.1107
 9421W        W25895  12.982  18.360  15.855  0.1579  0.4480 -0.1230
 9422W        W25896   9.496   8.845  11.476 -0.2589  0.3982 -0.3164
 9423W        W25897  15.133   8.819  13.728 -0.0733 -0.2827  0.0390
 9424W        W25898   1.422   9.248  14.126 -0.0240  0.2127  0.0519
 9425W        W25899   2.726  10.756   4.584  0.0469  0.3089  0.1938
 9426W        W25900   7.073  11.399   0.659  0.3711 -0.0902 -0.1118
 9427W        W25901  16.845  10.883   2.069 -0.0984 -0.1676 -0.0969
 9428W        W25902   9.321   1.744  11.431  0.1792 -0.0594 -0.0038
 9429W        W25903   7.412   1.130   4.614  0.0117  0.3000 -0.1155
 9430W        W25904  17.102  11.833   2.089 -0.1647  0.2557 -0.1305
 9431W        W25905  11.467   8.102   1.696  0.4734 -0.2137  0.1454
 9432W        W25906   1.455   3.135   5.313  0.1098 -0.1501 -0.1471
 9433W        W25907  17.603   2.905  15.645 -0.0158  0.0115  0.0860
 9434W        W25908   4.455   5.813   0.378 -0.2435  0.1191  0.2278
 9435W        W25909  14.392   1.453  11.335 -0.1030 -0.0574  0.0081
 9436W        W25910   4.029  13.308   1.490 -0.2291  0.2630  0.1648
 9437W        W25911   6.189   1.066  14.843 -0.1057 -0.0744 -0.0278
 9438W        W25912   5.164  13.615  14.855 -0.3644  0.1493  0.0631
 9439W        W25913  12.257   6.568  12.550  0.0120  0.2166 -0.2408
 9440W        W25914   0.967  18.116  11.369  0.0996  0.1117  0.3538
 9441W        W25915   2.145  11.394   4.933 -0.0546 -0.0101 -0.2452
 9442W        W25916  15.910  10.241   0.882  0.3068 -0.1614 -0.2012
 9443W        W25917   2.470   7.652  15.513 -0.2370 -0.0368  0.1208
 9444W        W25918  16.965  12.233   3.230  0.0481  0.2062  0.2822
 9445W        W25919  13.515  12.639   4.706  0.0734  0.0176 -0.2528
 9446W        W25920   9.018  16.990  11.817  0.2403 -0.3024 -0.0988
 9447W        W25921  12.137   6.940   3.280  0.0230 -0.0436  0.1724
 9448W        W25922  15.411   7.421   3.411 -0.0119 -0.2026 -0.1106
 9449W        W25923   1.590   3.109  12.786 -0.0279 -0.2915 -0.0243
 9450W        W25924   8.617   9.179   1.714 -0.0715  0.0368  0.0603
 9451W        W25925   5.046   3.038  11.489 -0.1458  0.2583  0.0907
 9452W        W25926  14.232  11.576  12.223  0.0887  0.2759  0.0864
 9453W        W25927  14.198   3.575   3.418 -0.2051  0.2994 -0.1382
 9454W        W25928  11.572   6.804   1.316  0.0144  0.2826  0.3894
 9455W        W25929   6.303  13.555   2.327 -0.1644  0.1522  0.0806
 9456W        W25930   2.306  11.012  14.776 -0.2757 -0.2298  0.1773
 9457W        W25931   0.928   9.359   0.169  0.2001  0.0692  0.2854
 9458W        W25932   8.918  15.387  14.574  0.0610 -0.1700 -0.1255
 9459W        W25933  12.904  15.301   4.456  0.1750 -0.0442 -0.2051
 9460W        W25934  11.517   4.713   3.861  0.2709 -0.0001 -0.0013
 9461W        W25935   0.439   7.006   0.501  0.0888  0.0390 -0.1613
 9462W        W25936  16.121   2.889   0.482 -0.1891  0.1363  0.3260
 9463W        W25937   1.467  17.756   1.651 -0.1315 -0.0999 -0.0540
 9464W        W25938   7.799   9.317   1.382 -0.2020 -0.0912  0.0717
 9465W        W25939  17.951   7.141  12.929  0.0771  0.0212  0.3049
 9466W        W25940   2.139  13.358   2.146  0.2577  0.1539  0.1441
 9467W        W25941  15.636   8.352  12.496 -0.2430 -0.1630 -0.0384
 9468W        W25942   2.415  10.256   3.746  0.2152 -0.0351 -0.0147
 9469W        W25943   4.253  18.132   1.984  0.1813 -0.1255  0.0210
 9470W        W25944   1.237  12.762  12.063  0.1786 -0.0224  0.4110
 9471W        W25945   9.630  17.457   1.204  0.0004 -0.1964 -0.3757
 9472W        W25946   7.805   1.247   2.784 -0.2353  0.1152 -0.1487
 9473W        W25947  11.470  14.360   1.316 -0.4406 -0.1055  0.0255
 9474W        W25948  17.434   6.582   4.511  0.0010 -0.0110 -0.4226
 9475W        W25949   4.472  11.259   2.918  0.3779  0.0055  0.1747
 9476W        W25950  12.799   3.280  11.413 -0.0943  0.1240  0.0195
 9477W        W25951  12.476  15.668  11.004  0.2040  0.2890 -0.0996
 9478W        W25952   1.307  13.377  11.498 -0.1027  0.0887  0.1445
 9479W        W25953   7.920  14.093  15.298 -0.2015  0.2310 -0.0655
 9480W        W25954   5.956  17.732  15.250  0.0478 -0.1464 -0.0852
 9481W        W25955   0.365  10.737   1.227  0.3345  0.0759 -0.2767
 9482W        W25956   6.799  13.226  11.398 -0.1232  0.0603 -0.0018
 9483W        W25957   1.359  14.329   1.289  0.1537 -0.1294 -0.1567
 9484W        W25958   6.782  17.929   4.725  0.0457  0.1005  0.2551
 9485W        W25959  12.123  14.345   2.812 -0.0881  0.0255 -0.0085
 9486W        W25960   6.220   6.493  14.154 -0.2094 -0.1249 -0.0487
 9487W        W25961  10.656  11.398  14.427  0.0329  0.0221  0.1905
 9488W        W25962  18.187   3.609   3.497 -0.4030  0.2738  0.0053
 9489W        W25963  17.873   3.643   1.260 -0.1473  0.0842  0.0345
 9490W        W25964   2.140   2.072   3.418 -0.1443 -0.0147 -0.1435
 9491W        W25965  13.658  15.175   5.444 -0.0736  0.0246  0.0028
 9492W        W25966  16.036   0.959  13.840 -0.0847  0.0412 -0.0585
 9493W        W25967  11.402   4.270  15.780  0.3547  0.0910 -0.0294
 9494W        W25968   3.284  14.880   3.565  0.1985 -0.0264 -0.1611
 9495W        W25969   9.334   2.111   0.224 -0.0208 -0.1484  0.1400
 9496W        W25970   6.551  15.084   1.290  0.0461  0.1211 -0.1297
 9497W        W25971   7.084  14.409   3.405 -0.1027  0.2486 -0.1786
 9498W        W25972  16.147   0.678   2.117  0.0365  0.1340 -0.0836
 9499W        W25973   7.248   2.648  15.756  0.1118  0.1515 -0.1403
 9500W        W25974   9.518   3.579   0.148  0.0824  0.0500 -0.0979
 9501W        W25975   4.308   5.475   4.536  0.1181 -0.1051  0.4942
 9502W        W25976  16.807   5.305  14.843  0.3206 -0.1255  0.1277
 9503W        W25977  14.706  14.303   4.100 -0.2767  0.1948  0.0115
 9504W        W25978   8.885  15.537  14.104  0.0077  0.1142 -0.0687
 9505W        W25979  17.237  13.917   5.567 -0.0221 -0.0946 -0.2525
 9506W        W25980  11.870   7.140  13.183 -0.0289 -0.0584  0.0924
 9507W        W25981   7.023   2.758   1.586 -0.1393 -0.2307 -0.2522
 9508W        W25982   2.148  11.583  11.779 -0.0968 -0.2491 -0.2501
 9509W        W25983  11.614   5.066  10.113 -0.0544  0.0154 -0.0147
 9510W        W25984  10.517   5.270  11.743 -0.1953 -0.2070 -0.0777
 9511W        W25985   6.556  11.866   4.475 -0.2068 -0.0115  0.0236
 9512W        W25986  10.350  11.158   5.117 -0.0554  0.1532  0.1857
 9513W        W25987   0.759   2.343   5.195  0.0712 -0.1272 -0.0003
 9514W        W25988   5.439  15.027  12.004 -0.2994 -0.4398 -0.1767
 9515W        W25989  12.642   8.960  13.423 -0.0247 -0.0100 -0.1809
 9516W        W25990  15.746   6.976  11.589 -0.0323 -0.0896 -0.1490
 9517W        W25991  12.893   9.489  14.104  0.1092 -0.1621  0.0213
 9518W        W25992  14.404  16.619  11.069 -0.0118  0.1904  0.1594
 9519W        W25993  12.358   3.896   0.930  0.2821  0.1179 -0.0909
 9520W        W25994   5.652   0.737   6.003 -0.3952 -0.0367 -0.0638
 9521W        W25995   6.085  12.474  11.281  0.1381 -0.2216 -0.1359
 9522W        W25996   3.860   7.213   4.576 -0.0560  0.2510 -0.1763
 9523W        W25997   4.463  16.581  13.191 -0.0934 -0.1374  0.1369
 9524W        W25998   2.417   2.345   5.084  0.2893 -0.0709  0.0203
 9525W        W25999   4.690   7.508   2.842  0.0828  0.2880 -0.0909
 9526W        W26000   0.946  10.221   4.054  0.1400 -0.0186  0.1796
 9527W        W26001   2.704   7.271   0.372 -0.1686 -0.1324 -0.1293
 9528W        W26002   5.895  14.977  15.496 -0.1938  0.0700 -0.2793
 9529W        W26003  13.214  16.442   5.247 -0.1979  0.0266  0.0078
 9530W        W26004   1.305  17.625   3.715  0.1133 -0.1340  0.1649
 9531W        W26005  13.260  16.605   1.956 -0.2263 -0.3055 -0.2652
 9532W        W26006  15.217  12.035   4.469  0.0735 -0.1444  0.0398
 9533W        W26007  16.931   5.894   4.329  0.3346 -0.2505 -0.1493
 9534W        W26008  12.334   7.287  14.671  0.0042 -0.0249  0.0850
 9535W        W26009  17.642   4.904   3.847 -0.0045  0.3498  0.4522
 9536W        W26010   9.091   3.625  15.799 -0.2659  0.1478 -0.0268
 9537W        W26011   9.030   1.219  11.049 -0.1124  0.0711  0.1128
 9538W        W26012   6.005  10.337   3.378 -0.2636  0.1009 -0.0788
 9539W        W26013   0.402  17.715   5.058 -0.1105  0.0595  0.0511
 9540W        W26014  10.783   2.946  14.081  0.1630  0.1700 -0.0479
 9541W        W26015   9.434  14.445   1.641 -0.1953  0.0612 -0.2130
 9542W        W26016   1.195  13.544  14.229 -0.0724 -0.0022 -0.0646
 9543W        W26017   6.940  14.292  13.583  0.1841  0.1740 -0.2284
 9544W        W26018   6.486   4.601  15.611  0.0983  0.0588 -0.0323
 9545W        W26019   2.924   6.915   3.280  0.1175  0.0399  0.1102
 9546W        W26020   0.462  16.658   2.390 -0.0333 -0.2269  0.0803
 9547W        W26021  17.082  18.002  11.788 -0.1406  0.1609  0.0363
 9548W        W26022   3.027   4.836   5.472 -0.1695  0.0921  0.2240
 9549W        W26023  17.644  18.439  10.637 -0.2106  0.1165 -0.3353
 9550W        W26024  12.481  13.720   3.605 -0.1681  0.2343  0.1172
 9551W        W26025   6.839  10.716  11.167 -0.3349 -0.0581  0.1257
 9552W        W26026  10.054  18.465  11.129 -0.4025  0.0987  0.1733
 9553W        W26027   8.522   8.893  15.825 -0.1860  0.0086 -0.0577
 9554W        W26028  15.709   8.274  14.671 -0.2779  0.1398  0.0894
 9555W        W26029  14.305  13.956  13.985  0.1018 -0.0681 -0.0584
 9556W        W26030  12.778   9.676   5.667 -0.3193 -0.0346  0.1608
 9557W        W26031  17.416  18.122   2.491  0.1076 -0.0601 -0.0126
 9558W        W26032   5.405  17.746   3.826 -0.1394 -0.4354 -0.0394
 9559W        W26033   0.587  10.404   1.503 -0.5675 -0.1619  0.3323
 9560W        W26034  13.593   3.882  13.691  0.3752 -0.1240 -0.0696
 9561W        W26035   2.973   6.573   1.149  0.0365 -0.2427 -0.2643
 9562W        W26036   8.321  12.759   3.331  0.0617  0.3458 -0.0084
 9563W        W26037  11.925  13.468   6.263 -0.2421  0.0132 -0.1266
 9564W        W26038  11.642   7.985  15.181  0.3742 -0.0864  0.0243
 9565W        W26039   2.437   0.889   3.437  0.1346  0.1465 -0.1566
 9566W        W26040   2.713   3.626  12.108 -0.2355 -0.0029  0.0804
 9567W        W26041   4.681   9.454  12.133 -0.1186  0.0292 -0.0839
 9568W        W26042   3.350   8.787  15.823  0.1681  0.0894 -0.2060
 9569W        W26043  16.954  15.835   3.544 -0.1023 -0.1322  0.0065
 9570W        W26044   9.332   1.086   0.525  0.1173 -0.0210 -0.2607
 9571W        W26045   6.533   3.968   5.149  0.0979 -0.2339  0.1193
 9572W        W26046  12.471   7.786  10.597  0.3054 -0.1885 -0.0670
 9573W        W26047  10.744   1.544   3.766  0.2585  0.1717 -0.1324
 9574W        W26048  13.934  11.282  15.220 -0.3135 -0.1395 -0.0150
 9575W        W26049  16.444   5.218   3.540 -0.1378  0.0861 -0.0646
 9576W        W26050   7.021   5.507   4.852 -0.2896 -0.3723  0.2591
 9577W        W26051  18.428  13.720  12.037 -0.0380 -0.0696  0.2414
 9578W        W26052   9.181  15.972   1.963  0.0677  0.2124  0.0445
 9579W        W26053   1.456   3.462  15.021  0.2333  0.1118 -0.1386
 9580W        W26054  11.411  15.848   0.904  0.1525  0.5624 -0.0800
 9581W        W26055   5.408   1.390   1.106  0.0658 -0.1636  0.0156
 9582W        W26056  13.245  17.130  13.918 -0.2343  0.1389 -0.0924
 9583W        W26057   9.095  15.818  15.046 -0.0901  0.0047  0.1393
 9584W        W26058   6.791   3.696   3.629  0.1494 -0.1448 -0.4198
 9585W        W26059   1.916   7.990   0.848 -0.2136 -0.2545  0.0129
 9586W        W26060   7.974   3.917  11.858 -0.0104 -0.1856 -0.2208
 9587W        W26061  14.117   1.957   0.687 -0.2248 -0.2399 -0.1158
 9588W        W26062  13.896   2.772   3.587 -0.0686 -0.0035 -0.1297
 9589W        W26063   1.527  13.957  14.195 -0.2703  0.0608  0.1174
 9590W        W26064   4.276   3.230   0.074 -0.1867 -0.1998  0.1760
 9591W        W26065   0.075  10.233  13.112  0.0047  0.3169 -0.2904
 9592W        W26066  10.301  12.698  11.733  0.1193 -0.0808 -0.2560
 9593W        W26067  15.919  12.495  14.041 -0.3707 -0.3202 -0.3116
 9594W        W26068   8.826  13.266   2.182 -0.2038 -0.3853  0.0518
 9595W        W26069  13.880   2.649  12.750  0.0265 -0.1687  0.0283
 9596W        W26070  15.360  13.631   3.984 -0.1723 -0.0553 -0.2908
 9597W        W26071  18.002  11.531   0.935  0.0976 -0.2749 -0.2449
 9598W        W26072   6.008   6.842   4.989 -0.0027 -0.0968  0.2721
 9599W        W26073   4.628   9.876   2.128 -0.0684  0.0299 -0.0098
 9600W        W26074  18.111   9.259   3.962 -0.0786 -0.1172 -0.1399
 9601W        W26075  13.834   6.067   0.467  0.0847  0.0858  0.2486
 9602W        W26076  17.173  10.336  12.262  0.0834 -0.1958 -0.0572
 9603W        W26077   0.967  15.187  13.015  0.2404 -0.2175 -0.4220
 9604W        W26078   5.385   9.609   3.096  0.0881 -0.0962  0.0532
 9605W        W26079  10.094  12.701   2.815  0.1512 -0.0959 -0.1670
 9606W        W26080   7.616   4.665   1.782 -0.2520 -0.0260 -0.0730
 9607W        W26081   9.798  16.554   5.369 -0.0301 -0.5099  0.1546
 9608W        W26082  16.153  18.085   2.077  0.0407 -0.0747  0.1891
 9609W        W26083  10.189  15.382  12.728 -0.2034  0.0914 -0.1433
 9610W        W26084  14.932   9.680  11.383 -0.0808 -0.0480  0.2338
 9611W        W26085  10.452   9.073  12.264  0.0646  0.0809 -0.0099
 9612W        W26086  13.129  10.427  13.013 -0.3894  0.3467  0.1491
 9613W        W26087   4.740  16.674  14.504  0.1753  0.0835 -0.2360
 9614W        W26088   4.033  11.639  13.091 -0.2796  0.0540  0.2419
 9615W        W26089   0.951   3.153  13.953  0.0321  0.2087 -0.3225
 9616W        W26090  14.517  14.863   1.265 -0.0927  0.1155  0.2707
 9617W        W26091  17.802   3.984   4.581  0.1984 -0.1627  0.3288
 9618W        W26092   8.376   5.697  14.677 -0.2964  0.1995 -0.3051
 9619W        W26093   6.341   3.360   5.414  0.1983 -0.2095 -0.0631
 9620W        W26094  14.455  16.727   1.736  0.0175 -0.2545 -0.2244
 9621W        W26095   6.899  14.395  12.828 -0.1309 -0.1738 -0.2973
 9622W        W26096  14.179   8.140   3.193 -0.1344 -0.0181 -0.2957
 9623W        W26097  15.359   6.859  11.187  0.0758  0.1721  0.3031
 9624W        W26098   8.245   0.591   2.143 -0.1452 -0.1680  0.1069
 9625W        W26099   4.815  15.111  14.157 -0.0473 -0.2467 -0.1239
 9626W        W26100  11.725  16.112  12.600  0.1062  0.0129 -0.0226
 9627W        W26101   6.698  11.969  15.856 -0.2006 -0.1092  0.1206
 9628W        W26102  18.478   4.497   0.258 -0.0459 -0.0247 -0.1220
 9629W        W26103  17.674   2.591   4.254 -0.1557  0.0171 -0.1169
 9630W        W26104   4.727   3.432   1.138  0.2231 -0.2662  0.5245
 9631W        W26105  11.374  11.002   0.577  0.2574  0.2317  0.0539
 9632W        W26106   6.835   4.028   2.736 -0.1560  0.3083  0.1201
 9633W        W26107   0.318  18.278  14.836  0.1252 -0.0330 -0.2849
 9634W        W26108  13.146  17.512   0.117  0.1889  0.5113  0.3020
 9635W        W26109  11.902   5.066  11.914  0.1971  0.2386  0.1985
 9636W        W26110   5.230   8.817   4.276  0.2392  0.0790  0.0723
 9637W        W26111  13.660   3.390  15.535  0.2852  0.0166 -0.0993
 9638W        W26112  12.945   2.765  11.445 -0.1123 -0.1653  0.1229
 9639W        W26113   2.181  13.363   0.546 -0.2699  0.0916  0.0134
 9640W        W26114   0.022  11.341   3.139 -0.0795  0.2141  0.0312
 9641W        W26115   0.934   3.151  15.775  0.0958  0.1228 -0.0850
 9642W        W26116  16.991  18.048   3.517  0.2397 -0.1998  0.1738
 9643W        W26117   5.657   2.677  15.644 -0.0327  0.3216  0.3472
 9644W        W26118  13.770  11.959  14.906  0.0426 -0.1865  0.2358
 9645W        W26119   7.555   9.696  12.576  0.0876  0.1883  0.0330
 9646W        W26120   6.526   8.011  15.323  0.2090 -0.1022 -0.0026
 9647W        W26121   3.934  13.397   4.943  0.5354  0.0805 -0.0905
 9648W        W26122  16.432  11.535   0.069  0.0865  0.2735 -0.1084
 9649W        W26123  16.987   1.355  12.766 -0.1399 -0.0299  0.2372
 9650W        W26124   7.029   5.892   3.387 -0.0578 -0.0738 -0.0173
 9651W        W26125   1.006  15.059  15.705  0.3448 -0.2807 -0.0569
 9652W        W26126   3.223  13.545   1.438 -0.0358  0.0314 -0.1991
 9653W        W26127  11.832   5.605   5.319 -0.2887 -0.0453  0.0083
 9654W        W26128   6.073   5.848   4.814 -0.2807 -0.3868  0.2787
 9655W        W26129   9.674  14.251   4.940  0.0832 -0.1271 -0.0280
 9656W        W26130   8.941  11.533  13.973 -0.0420  0.1538  0.2635
 9657W        W26131   9.043   5.880   1.295  0.2408 -0.1217 -0.0734
 9658W        W26132  17.767  12.322  12.268 -0.1443  0.0568 -0.1973
 9659W        W26133   2.603   7.048  13.204  0.0657  0.0161  0.1472
 9660W        W26134   9.661   2.331  14.724  0.0036 -0.3616  0.2806
 9661W        W26135   1.626  18.430   0.819  0.3106 -0.3461 -0.0066
 9662W        W26136  17.051  17.237  14.502 -0.0039 -0.1563 -0.1390
 9663W        W26137  10.644  16.191  12.983 -0.0276  0.6216 -0.1733
 9664W        W26138   5.535   4.365  11.548  0.1059  0.0512 -0.4014
 9665W        W26139   5.978   9.081  11.387  0.0533  0.0678  0.1137
 9666W        W26140  16.659   1.753  12.909 -0.0903  0.0206 -0.2228
 9667W        W26141   0.553  13.121  11.340 -0.3040 -0.1391  0.1680
 9668W        W26142   9.561  17.689  11.566  0.0155  0.0356  0.1342
 9669W        W26143  16.833  15.893   4.513  0.2132  0.1249  0.1238
 9670W        W26144   6.451  13.973   3.039 -0.2230  0.1162  0.1575
 9671W        W26145   3.574  12.845   1.358 -0.1161 -0.0557 -0.0929
 9672W        W26146  15.345  17.473  14.783  0.0116 -0.1506  0.0094
 9673W        W26147   8.265  17.536  11.892  0.0082  0.1086 -0.1710
 9674W        W26148  12.497  11.322   3.656 -0.1179 -0.1218  0.0980
 9675W        W26149  10.131  17.649   0.480 -0.1126 -0.0043  0.1808
 9676W        W26150   4.673   4.084   1.738 -0.0114  0.1321 -0.0932
 9677W        W26151  15.480   9.393  13.129 -0.0110 -0.1750 -0.2503
 9678W        W26152   2.085  13.749   4.824  0.1025 -0.0555  0.0085
 9679W        W26153  14.244  14.865  13.108 -0.0548 -0.1578  0.3041
 9680W        W26154  16.329  10.308  12.150 -0.0167 -0.1156  0.1386
 9681W        W26155   9.346  16.134   4.294 -0.0206  0.3464  0.3618
 9682W        W26156   2.353  11.184  15.237 -0.1679  0.0065  0.0524
 9683W        W26157   9.283  16.165   2.987 -0.1104 -0.1287  0.0585
 9684W        W26158   5.080   6.325   5.338 -0.2700 -0.0783  0.0994
 9685W        W26159   1.766   0.555  11.708  0.1256  0.0755  0.1598
 9686W        W26160   2.737   7.962  13.432 -0.0704  0.0111 -0.3198
 9687W        W26161   5.109   5.523   4.166  0.0562  0.1485 -0.3344
 9688W        W26162  13.120  17.063   4.661  0.1298 -0.1786 -0.0170
 9689W        W26163   3.535   2.535   4.542  0.1876 -0.1049  0.1336
 9690W        W26164   1.872  10.911  15.100 -0.0596  0.3186  0.2121
 9691W        W26165  14.781  13.715   2.559 -0.0091  0.1252 -0.1276
 9692W        W26166   4.635   2.225  11.346 -0.2140 -0.3201 -0.1108
 9693W        W26167  10.549   9.056  13.367  0.1362  0.0512  0.0877
 9694W        W26168   8.290   8.414  14.848  0.1402 -0.2230 -0.1031
 9695W        W26169   3.872  15.580   3.943 -0.0268 -0.1298  0.1521
 9696W        W26170   3.835   2.119   4.795  0.2782 -0.0657  0.0421
 9697W        W26171  14.998  16.031   2.401 -0.0223 -0.0843  0.0285
 9698W        W26172   6.951   0.954  14.011  0.2841  0.1019  0.1643
 9699W        W26173   5.599   3.827   4.330 -0.0730 -0.0276  0.1663
 9700W        W26174  10.045   1.686  14.957  0.1794 -0.0799 -0.3366
 9701W        W26175   0.796  12.710   1.113 -0.1106 -0.4010  0.0143
 9702W        W26176  16.444  17.438  13.823  0.2563 -0.1338 -0.1109
 9703W        W26177   6.012   4.453   0.582 -0.2267 -0.1141  0.1260
 9704W        W26178   4.996   8.934  11.447  0.5460 -0.3515  0.0386
 9705W        W26179   1.670   6.978   5.247  0.0176  0.2922 -0.0813
 9706W        W26180  13.284  11.541  13.519  0.0562 -0.1651  0.1298
 9707W        W26181  17.552  15.371  13.244 -0.0458 -0.1646  0.1891
 9708W        W26182   1.516  12.545  12.402  0.1677 -0.2811  0.0663
 9709W        W26183  17.901  10.341  14.334  0.0011 -0.1687  0.2314
 9710W        W26184   1.942  11.484  13.492 -0.0851  0.3195  0.2911
 9711W        W26185  11.745   7.247  15.758  0.1442 -0.1850 -0.1814
 9712W        W26186   0.662  15.661  12.929 -0.1039 -0.0386  0.0930
 9713W        W26187   5.583   9.065  13.188  0.2038  0.2664 -0.2126
 9714W        W26188   1.508  15.151   1.038  0.0190  0.4405 -0.0182
 9715W        W26189   4.514   3.493  14.259 -0.0298  0.0867  0.0385
 9716W        W26190  14.965  17.991   3.256  0.0043  0.1336  0.3409
 9717W        W26191  10.051   8.550   1.062 -0.0779  0.2691  0.5487
 9718W        W26192   0.571   9.192   3.225 -0.0710 -0.0005 -0.0488
 9719W        W26193   1.885   9.566  11.893 -0.0166 -0.3018 -0.1748
 9720W        W26194   4.096  15.570   4.669 -0.0914 -0.2636 -0.0067
 9721W        W26195   1.014   1.152  14.142 -0.0443 -0.0685 -0.1628
 9722W        W26196  10.654   4.583   4.232  0.1608  0.1719  0.0544
 9723W        W26197   3.002  18.020  15.315 -0.1377 -0.0947 -0.0420
 9724W        W26198  11.395  16.235   1.649  0.2197  0.3395  0.0074
 9725W        W26199  15.569   6.036  13.280 -0.0704 -0.2965  0.0323
 9726W        W26200   5.491   0.301  15.237  0.0355  0.1101 -0.4764
 9727W        W26201   7.064  12.891   2.050 -0.0014 -0.0463  0.2519
 9728W        W26202  17.950   8.037  12.737  0.4383 -0.0572  0.0327
 9729W        W26203   9.097  12.141   5.875  0.1522  0.3139 -0.0323
 9730W        W26204  17.178  10.483   0.043  0.0830  0.0036 -0.0442
 9731W        W26205  14.341  10.385   3.853 -0.0324  0.3434  0.1228
 9732W        W26206   2.569   2.582  15.091 -0.2663  0.0881 -0.2378
 9733W        W26207  14.409   3.140  12.032 -0.1316  0.2289  0.0267
 9734W        W26208  17.840   0.634  12.704 -0.0604 -0.0351  0.2481
 9735W        W26209  16.660  17.306  15.876  0.0014  0.2471 -0.2461
 9736W        W26210  10.340  13.585  14.860 -0.1170 -0.0008 -0.0056
 9737W        W26211  17.786  10.726  13.998 -0.0833  0.0207 -0.3228
 9738W        W26212  17.766   6.086   4.661 -0.3599 -0.0042 -0.3482
 9739W        W26213   8.237  18.331   4.628 -0.1849  0.0649 -0.0595
 9740W        W26214  14.854   3.629   1.008 -0.0673 -0.2213 -0.0962
 9741W        W26215   5.949  12.445   4.149  0.1697 -0.0155 -0.0519
 9742W        W26216  14.309   0.968  11.530 -0.0074  0.1170 -0.0435
 9743W        W26217   3.172   8.629   4.083 -0.0345 -0.1116 -0.1788
 9744W        W26218   5.826   5.284   2.466 -0.1587  0.0863 -0.2443
 9745W        W26219  11.409   4.834  12.914  0.3025  0.2013  0.2876
 9746W        W26220  16.186   0.063  11.966 -0.0695  0.0372  0.1745
 9747W        W26221  17.493  14.675   3.180  0.3842  0.0653 -0.0870
 9748W        W26222  10.010   9.802  15.214  0.1036 -0.1841 -0.2343
 9749W        W26223   9.045  11.557  10.944 -0.0988  0.2657 -0.2754
 9750W        W26224  13.700  11.236  13.560 -0.0183  0.0972  0.1149
 9751W        W26225  18.214  16.868   2.834 -0.0532  0.0569 -0.1768
 9752W        W26226   5.596   3.211   1.836  0.0331 -0.0850  0.1835
 9753W        W26227   7.850   4.260  12.361  0.4645  0.0949 -0.0183
 9754W        W26228  16.882  16.743   1.131 -0.2297 -0.1896 -0.2496
 9755W        W26229  17.284  17.636  13.529 -0.0287 -0.1581  0.2673
 9756W        W26230  12.528   5.555   3.902  0.0786  0.2431  0.2930
 9757W        W26231  14.838  11.721   3.684 -0.1240 -0.3450 -0.1586
 9758W        W26232  18.316  18.120  12.799 -0.1723 -0.3712 -0.4232
 9759W        W26233   1.806   0.444   1.605  0.2289  0.1848  0.0982
 9760W        W26234   2.775   9.007   0.735  0.2377 -0.1264  0.0242
 9761W        W26235  15.098   1.492   0.297  0.0032 -0.2893  0.0379
 9762W        W26236  12.986  12.054   2.453  0.0548  0.2193  0.2326
 9763W        W26237  13.275   0.641  14.801  0.0920  0.0377  0.0972
 9764W        W26238   3.631  13.018  15.433 -0.1375 -0.2832  0.2740
 9765W        W26239   5.439  12.565  14.907  0.0062 -0.0289  0.1686
 9766W        W26240   4.359   0.258  13.226  0.0632  0.1650 -0.2159
 9767W        W26241  13.260   5.086  15.782  0.0537 -0.1084  0.0233
 9768W        W26242   4.650  18.189  11.866 -0.3254  0.1180 -0.1388
 9769W        W26243  11.617   7.356   0.346 -0.1255 -0.0206  0.1723
 9770W        W26244   1.423   0.505   1.189  0.2365  0.0682  0.3090
 9771W        W26245   3.603   0.067  13.647 -0.1740 -0.0404 -0.1373
 9772W        W26246  11.439  15.187   3.330 -0.1581  0.2416 -0.1638
 9773W        W26247   4.139   2.403  14.977 -0.2523 -0.1981  0.0938
 9774W        W26248   0.090   2.778   0.832 -0.1438  0.3781  0.0553
 9775W        W26249   4.642   8.835  10.906 -0.0817  0.0532 -0.0989
 9776W        W26250  16.778  17.083  14.104 -0.2240  0.1762 -0.1804
 9777W        W26251  11.939   4.594   0.435 -0.1642  0.0667 -0.0896
 9778W        W26252  11.689   9.243  13.477 -0.1041  0.0163 -0.1832
 9779W        W26253  13.051   8.813   3.608 -0.1105 -0.0369 -0.2392
 9780W        W26254   0.292  11.203   2.186 -0.0500 -0.1463  0.0915
 9781W        W26255   3.832   2.361  15.373 -0.1448  0.1461  0.0317
 9782W        W26256   5.079   9.414   0.918 -0.0261  0.0115 -0.1305
 9783W        W26257   8.972  15.022  13.992  0.0884  0.0209  0.1397
 9784W        W26258  11.969   0.103  13.622  0.0008  0.3590  0.0209
 9785W        W26259  11.252  11.776  14.861 -0.1966  0.1280 -0.0172
 9786W        W26260   8.825  17.705   2.556 -0.3752  0.0940  0.0080
 9787W        W26261  16.882  10.969  13.611 -0.1306  0.1982  0.0994
 9788W        W26262  17.405   0.558  15.842  0.3095  0.1844  0.0077
 9789W        W26263   3.408   2.260   5.510  0.2993 -0.1737 -0.0261
 9790W        W26264   8.378   1.576   4.668  0.1472  0.1887 -0.1008
 9791W        W26265   2.598   1.912   5.220 -0.1527 -0.1473  0.1537
 9792W        W26266   0.710   5.122  14.742  0.4495  0.0207  0.4117
 9793W        W26267   3.089   7.454   1.043  0.2158 -0.0212  0.1008
 9794W        W26268   0.480  12.608   2.978  0.1629 -0.0824 -0.0121
 9795W        W26269   3.095   1.924   5.287  0.1661 -0.0288  0.0012
 9796W        W26270  13.136   2.975  14.929  0.1895 -0.0304 -0.0175
 9797W        W26271  12.663  10.249  15.921 -0.1547  0.0120 -0.0903
 9798W        W26272  15.285   9.666   1.989  0.0317  0.2570  0.0200
 9799W        W26273   6.041  17.129  14.570 -0.0513  0.1100  0.1804
 9800W        W26274  12.085  12.516   4.168 -0.0060 -0.1423 -0.1441
 9801W        W26275   8.818   2.619  14.495  0.1094 -0.0045  0.0280
 9802W        W26276  12.970   5.556  11.119 -0.0559  0.1876 -0.1227
 9803W        W26277   9.323   1.569   0.645 -0.2692  0.1497  0.0146
 9804W        W26278  15.926  14.090   1.950 -0.1282 -0.1173  0.1868
 9805W        W26279   6.766  15.454   1.532  0.1311 -0.1927  0.2248
 9806W        W26280   0.688  11.811  10.493  0.2038  0.0284  0.1331
 9807W        W26281  11.339  15.205  11.561  0.1078  0.1886  0.1528
 9808W        W26282  12.619   9.258   4.980  0.1616  0.2182  0.0623
 9809W        W26283  15.568   0.755   3.844 -0.0357 -0.1373  0.2642
 9810W        W26284   5.107   1.299   5.307  0.1336  0.3165  0.2101
 9811W        W26285   1.551   3.741  12.182  0.2117 -0.2424 -0.1301
 9812W        W26286  10.855  10.212  13.177 -0.0907  0.1300 -0.1302
 9813W        W26287  15.813   5.990   1.473 -0.4932 -0.3766 -0.1839
 9814W        W26288  13.312  13.299   2.836 -0.1905  0.1116 -0.0849
 9815W        W26289   4.713  14.196   0.880 -0.1494  0.2136 -0.0423
 9816W        W26290   9.405   3.129   2.472  0.0145  0.2140  0.2084
 9817W        W26291  14.846   6.657  14.663 -0.2344 -0.0411 -0.1160
 9818W        W26292   8.106  13.128  13.277 -0.2126  0.2636  0.1795
 9819W        W26293   9.945  16.559   3.498  0.2143  0.2089 -0.1296
 9820W        W26294   8.937   9.164  15.586  0.0690 -0.0944 -0.1564
 9821W        W26295   7.998   8.271  11.957 -0.1491 -0.0132  0.0541
 9822W        W26296  17.356   7.726   2.780 -0.1387  0.3891 -0.1036
 9823W        W26297  18.138   3.891   0.433  0.0843  0.2619 -0.0812
 9824W        W26298   3.484  14.333   0.764  0.2824  0.1228 -0.2592
 9825W        W26299   0.953   7.175  14.290  0.5182  0.0789 -0.0566
 9826W        W26300  12.774   6.338   3.879 -0.1073 -0.0220  0.1559
 9827W        W26301   6.715  10.771  15.948  0.1235 -0.3525  0.0520
 9828W        W26302  17.044  11.403   3.761 -0.2531  0.4503 -0.2409
 9829W        W26303  18.453   9.400   4.840  0.1617 -0.0911  0.1379
 9830W        W26304   4.502  16.579   0.948 -0.3073  0.0313 -0.2149
 9831W        W26305   6.032   7.373  12.320 -0.0050  0.0750 -0.2514
 9832W        W26306   2.454   9.876   4.688  0.1305  0.0586  0.0905
 9833W        W26307   7.524  11.926  13.138  0.2628 -0.4659  0.0251
 9834W        W26308  16.324  11.939  15.188  0.1153  0.2491 -0.3697
 9835W        W26309  14.136   8.800  15.863 -0.0816 -0.1274 -0.0679
 9836W        W26310  16.368   1.298  13.086  0.0606 -0.1889 -0.0136
 9837W        W26311   4.678  16.061   3.466  0.1740  0.2497  0.4184
 9838W        W26312   4.952  17.719   4.115 -0.1572 -0.2276  0.0787
 9839W        W26313  13.279  11.856   4.277  0.0469 -0.0209  0.1044
 9840W        W26314   4.692   5.592   0.736  0.1159  0.1756 -0.2390
 9841W        W26315   0.052   6.711  15.356 -0.2569 -0.2795  0.1482
 9842W        W26316   0.027  13.809   0.162  0.1824  0.0886  0.1606
 9843W        W26317   0.583   7.317   1.872 -0.6075  0.2451  0.0060
 9844W        W26318   9.024   5.576  15.861  0.2339  0.0060 -0.1597
 9845W        W26319  12.783   2.359  15.598 -0.2318 -0.0568 -0.1558
 9846W        W26320   3.657   6.891   0.494  0.0078  0.0575 -0.3347
 9847W        W26321  17.793   7.474  15.407  0.2324  0.2467  0.1753
 9848W        W26322   0.286   2.551  11.358 -0.1252 -0.0126 -0.0146
 9849W        W26323   1.749   9.144   4.778 -0.2698  0.0343  0.1347
 9850W        W26324   3.894  15.127   4.841  0.2259 -0.1036  0.0411
 9851W        W26325  17.343   2.704   1.007  0.2679  0.1516  0.1104
 9852W        W26326  10.604   2.733  15.946 -0.0583  0.1858 -0.0726
 9853W        W26327  13.182  16.654  11.995  0.0300  0.2180 -0.2964
 9854W        W26328  10.689  13.751   2.358 -0.0500 -0.1678  0.2290
 9855W        W26329  18.349  15.687  11.614  0.1672 -0.0251 -0.1656
 9856W        W26330  13.516  15.892  14.360  0.0650  0.1260 -0.3190
 9857W        W26331  15.115  11.664  14.513  0.2941 -0.3269 -0.1898
 9858W        W26332  15.729  11.985  15.011 -0.1195 -0.0319 -0.0904
 9859W        W26333   9.238  16.812   1.420 -0.2150  0.3165 -0.2214
 9860W        W26334   8.883  10.607  13.572  0.0120 -0.0367  0.1670
 9861W        W26335  14.449   1.720  15.195 -0.0712 -0.0090 -0.0667
 9862W        W26336  16.726   4.247  13.318  0.0578  0.2149 -0.0422
 9863W        W26337   7.620   3.467   2.199  0.1845  0.0438  0.0679
 9864W        W26338  10.087   6.007  14.263 -0.0242  0.1084  0.2343
 9865W        W26339   9.661  13.033   0.333 -0.4436 -0.1199  0.1475
 9866W        W26340  11.412   5.734  11.911  0.1707 -0.3930 -0.2142
 9867W        W26341  16.043   5.866  13.054 -0.0352  0.1302  0.1322
 9868W        W26342  10.077   1.044  14.136 -0.0724 -0.1062  0.0603
 9869W        W26343   7.921  14.107   3.325  0.1604  0.2422  0.2085
 9870W        W26344  16.732  17.476  10.989  0.1884 -0.2485  0.0953
 9871W        W26345   4.377  17.420   0.746  0.0517 -0.3881  0.2067
 9872W        W26346  12.191  12.492   1.984  0.0431 -0.3785 -0.0257
 9873W        W26347  14.773  12.922  11.841  0.1526 -0.1519  0.2805
 9874W        W26348  18.059   2.228  11.974  0.0024 -0.0943 -0.0467
 9875W        W26349   4.596  14.973  12.442 -0.0992  0.2791 -0.1799
 9876W        W26350  11.141   1.584  13.006 -0.2104 -0.2392 -0.1686
 9877W        W26351   1.041   9.480   1.208  0.0477 -0.2020  0.2416
 9878W        W26352   6.087   6.693   0.594  0.0352  0.0227 -0.1586
 9879W        W26353  16.381  10.074   5.361  0.0262  0.2453 -0.0340
 9880W        W26354  15.850   0.774  14.377  0.0429  0.2109  0.2666
 9881W        W26355  10.282  13.497  13.998 -0.1070 -0.1441 -0.2522
 9882W        W26356   6.488  11.545   1.898  0.2840 -0.1227  0.2125
 9883W        W26357  16.683   3.829  15.515 -0.0717  0.1239 -0.5372
 9884W        W26358  12.146   6.802  15.924  0.0723  0.0011 -0.0739
 9885W        W26359   0.222  14.741   3.320 -0.0205 -0.2646 -0.1736
 9886W        W26360  11.683   2.434   0.144  0.0289  0.2080  0.2492
 9887W        W26361   6.112  12.298   1.255  0.1951  0.1829 -0.1602
 9888W        W26362   3.918   4.196  13.670  0.1726  0.1936 -0.0029
 9889W        W26363  14.489   9.106  15.686 -0.0830  0.2715  0.1139
 9890W        W26364   6.122  10.568   5.074 -0.0189  0.0823 -0.1285
 9891W        W26365   0.211   5.729  13.947 -0.0317 -0.0672 -0.1588
 9892W        W26366   4.464   1.397   2.705 -0.0134  0.1315 -0.1044
 9893W        W26367  12.686  17.944   0.613 -0.1076 -0.3210 -0.2361
 9894W        W26368   1.731   7.237   2.642 -0.2582  0.1271  0.0587
 9895W        W26369   6.548  18.319   1.288 -0.0780 -0.0246  0.0513
 9896W        W26370  10.249   4.273   3.220 -0.0553 -0.4139  0.0344
 9897W        W26371  11.633   0.340   3.846  0.0192 -0.1764 -0.0354
 9898W        W26372  12.415  10.066   5.552  0.0883  0.1284  0.2064
 9899W        W26373   5.493  16.668   1.096 -0.1742  0.1007 -0.2409
 9900W        W26374   2.337  18.118   4.395 -0.2018  0.0322  0.2217
 9901W        W26375   6.349   3.990  13.199 -0.0873 -0.0535 -0.0747
 9902W        W26376   4.887   4.842  12.784  0.1468  0.1352 -0.0609
 9903W        W26377  18.400  10.360   2.938 -0.0421 -0.0655 -0.1823
 9904W        W26378   2.693  17.356   4.565 -0.0834 -0.1898  0.1235
 9905W        W26379   2.456   5.417   1.604 -0.0737  0.1553 -0.0094
 9906W        W26380  15.937  12.766   4.898  0.2321 -0.0792  0.2864
 9907W        W26381  10.977  17.963   0.848  0.0291  0.0642 -0.0502
 9908W        W26382   0.561   6.197  10.943  0.0605 -0.3839  0.0213
 9909W        W26383   9.923   5.440   0.383 -0.1568  0.2461  0.0315
 9910W        W26384   4.142   8.364  14.767  0.1932 -0.5528 -0.1088
 9911W        W26385  11.566  11.827   5.636  0.2415  0.0994  0.2288
 9912W        W26386   1.794   3.966  14.860  0.0658 -0.0270 -0.0477
 9913W        W26387  12.539  10.294  14.760 -0.0069  0.0533 -0.2303
 9914W        W26388   7.792  12.786  12.053 -0.0323 -0.0403 -0.1671
 9915W        W26389  15.555   5.261   5.248  0.0198  0.0006 -0.1143
 9916W        W26390   4.274  17.582   4.945 -0.3502 -0.0571  0.0120
 9917W        W26391  18.359   0.986  12.924  0.2825 -0.0374  0.2330
 9918W        W26392  13.940   7.692  13.423  0.3265  0.1024  0.1015
 9919W        W26393  16.398   0.062  12.859  0.1065 -0.1148 -0.1684
 9920W        W26394  13.120   7.997  13.940  0.0458  0.1214 -0.0703
 9921W        W26395   4.684  10.505  15.169  0.2773  0.2539 -0.0265
 9922W        W26396  16.474   5.877   0.693 -0.3478 -0.0786  0.1654
 9923W        W26397  13.316   8.551   1.560 -0.1266 -0.6072  0.1937
 9924W        W26398  16.723  15.857   1.090  0.0460 -0.0461  0.2098
 9925W        W26399   4.903   3.050   4.779  0.2520  0.1530  0.1268
 9926W        W26400  15.510  12.535  14.409 -0.0276  0.2368  0.2825
 9927W        W26401   4.537  12.308   5.162  0.0764 -0.3528 -0.0047
 9928W        W26402   5.807  18.202   2.360  0.0470  0.1594  0.0623
 9929W        W26403   1.939  16.921  12.944 -0.3155 -0.1842  0.1786
 9930W        W26404   5.055   2.672   2.158  0.0960  0.3473  0.4583
 9931W        W26405   9.180   4.747  12.158 -0.0184  0.0789  0.0990
 9932W        W26406   7.221  10.004  15.883 -0.0559 -0.1172 -0.0852
 9933W        W26407   6.301  12.576   0.107  0.0997 -0.1843 -0.2031
 9934W        W26408   3.957  16.902   5.498 -0.1427  0.0397 -0.0887
 9935W        W26409   0.633   4.682  12.590  0.3740  0.0686  0.1783
 9936W        W26410   8.786   7.816   1.996 -0.1392  0.3206  0.0615
 9937W        W26411  13.594   6.027  12.879 -0.1995 -0.1664 -0.1549
 9938W        W26412  18.100  14.545  11.659 -0.3307 -0.0631  0.0538
 9939W        W26413   8.135  12.707   0.614 -0.0013  0.1357 -0.1660
 9940W        W26414  17.918   9.224  11.819 -0.1809 -0.3045 -0.1702
 9941W        W26415   7.811  10.117  14.249 -0.1236 -0.0900 -0.0438
 9942W        W26416  17.023   7.133  11.994  0.1337  0.1856 -0.1854
 9943W        W26417   6.192   4.384   3.288  0.1269  0.2319  0.0268
 9944W        W26418   1.961   8.197  10.789  0.0628  0.3926 -0.1482
 9945W        W26419   3.936  11.328  10.736  0.0190  0.2466  0.2468
 9946W        W26420  17.485   2.398   1.797 -0.0106 -0.4882  0.1329
 9947W        W26421  17.153   8.739  12.916  0.2551 -0.0922 -0.0970
 9948W        W26422   0.727   1.564   0.742  0.0642  0.2877 -0.3015
 9949W        W26423  11.961  13.969   3.493 -0.1112 -0.2288 -0.1834
 9950W        W26424   9.153  15.254   5.379 -0.0040  0.0841 -0.2989
 9951W        W26425   3.904  10.696  13.422 -0.1319 -0.1994  0.2287
 9952W        W26426  12.171  14.201   1.522 -0.0840 -0.2589  0.0526
 9953W        W26427   6.302  17.691  15.689  0.3430  0.0401 -0.2460
 9954W        W26428   3.208   6.590   0.593 -0.1418  0.1025  0.1756
 9955W        W26429   3.067   2.295  13.142 -0.1606 -0.1044 -0.2832
 9956W        W26430  17.521  14.165   0.142 -0.1768  0.0725 -0.2691
 9957W        W26431   7.258  12.351   0.497 -0.0524  0.0250  0.1221
 9958W        W26432  14.525   2.251  15.905  0.1086  0.1174  0.0613
 9959W        W26433  13.684  14.937   4.308 -0.1502 -0.0983  0.1720
 9960W        W26434   2.998  13.699   1.017 -0.0077  0.2197  0.0709
 9961W        W26435   4.924  10.398   2.840  0.0601  0.1855 -0.0550
 9962W        W26436  10.203   8.318  12.947 -0.1272 -0.0420  0.0391
 9963W        W26437   4.710   2.604   2.889 -0.2913  0.1669  0.3364
 9964W        W26438  12.686   3.489   2.838  0.1559 -0.1408 -0.0516
 9965W        W26439  18.138   3.031   1.534  0.1273  0.2453  0.2112
 9966W        W26440  10.158   7.883  14.201 -0.0616  0.2090 -0.0423
 9967W        W26441   1.174  17.595   2.637  0.1104 -0.2704  0.0549
 9968W        W26442   2.387   7.826   2.894  0.0246 -0.0568 -0.0159
 9969W        W26443   8.909   5.270  11.020  0.1383  0.0484 -0.1262
 9970W        W26444   3.220   8.904   1.157 -0.0877 -0.0862 -0.0153
 9971W        W26445  15.230   7.776  14.099 -0.1385 -0.0430 -0.0944
 9972W        W26446  10.333   9.371  11.761  0.0367 -0.0545 -0.1706
 9973W        W26447  13.191   5.400   2.512 -0.1124  0.3483 -0.1255
 9974W        W26448   4.442  12.512  12.099  0.2115 -0.0025 -0.1366
 9975W        W26449   5.223   9.244   2.715 -0.0606  0.2031  0.2100
 9976W        W26450   9.228  14.545   5.097  0.0074 -0.1007  0.2417
 9977W        W26451  15.365   5.998   1.313  0.1967  0.1301  0.0610
 9978W        W26452   9.889  12.745  13.544  0.1833 -0.0513 -0.1131
 9979W        W26453   4.166  14.315   0.089 -0.2290  0.1662 -0.0109
 9980W        W26454   6.592   6.355  13.821 -0.2461 -0.1670  0.1334
 9981W        W26455   9.582   1.588  10.414 -0.1117  0.1375 -0.2179
 9982W        W26456   2.126   6.052  13.050  0.2814 -0.0117  0.1469
 9983W        W26457   6.971  14.755   3.843  0.0988 -0.1033 -0.1753
 9984W        W26458   9.478   8.171   4.313  0.0385 -0.0514 -0.1923
 9985W        W26459  13.468  12.773   3.749  0.4179 -0.1097  0.3088
 9986W        W26460   8.692  14.268   0.955 -0.1078  0.0744 -0.0676
 9987W        W26461  12.327  11.056   4.666 -0.1932  0.1099  0.2246
 9988W        W26462  16.306   6.655  11.022  0.0116  0.1581  0.2254
 9989W        W26463   3.151  10.906  12.708  0.2505  0.2066 -0.3125
 9990W        W26464   5.531   9.773  11.947 -0.1298  0.0906 -0.0393
 9991W        W26465   7.434   8.839   5.047  0.2648 -0.3828 -0.1162
 9992W        W26466   8.955  15.911   1.409 -0.0862 -0.1626  0.1097
 9993W        W26467   6.587   3.359   5.839  0.0409  0.0306  0.1079
 9994W        W26468   6.746   2.915   5.567  0.3547  0.0834  0.1386
 9995W        W26469   7.793  16.897   2.837 -0.2740  0.0622 -0.1640
 9996W        W26470   3.066  16.429   2.187  0.1087  0.0680  0.0711
 9997W        W26471  11.427   9.182   2.627  0.1648 -0.1674  0.0599
 9998W        W26472  15.259   1.744   5.458 -0.2828 -0.0051 -0.2319
 9999W        W26473   0.024   6.359  10.169  0.1133 -0.0147  0.2468
10000W        W26474   4.821   2.178   3.691  0.1975 -0.1130  0.1000
10001W        W26475   5.591   3.379  14.949  0.0921 -0.0925  0.0704
10002W        W26476  11.713   3.787   3.586 -0.2132 -0.1760 -0.0565
10003W        W26477  12.906   4.824   1.670  0.0229  0.2413  0.2504
10004W        W26478  13.092   3.340   0.739 -0.0017 -0.0758 -0.8452
10005W        W26479   8.602   6.577   0.091  0.0533  0.2294  0.0400
10006W        W26480  16.053   9.656   3.366  0.0698 -0.0608  0.1319
10007W        W26481  10.533  10.246  15.733  0.2506  0.3396  0.2690
10008W        W26482   3.927   9.401   4.213 -0.4482  0.0694 -0.6178
10009W        W26483   5.386   6.719  12.483  0.0853 -0.0670  0.4393
10010W        W26484  14.294  15.340  13.265 -0.1206  0.1196 -0.1057
10011W        W26485   4.059   3.852  14.937  0.0816 -0.0257  0.0418
10012W        W26486   8.409   3.323   5.153  0.2826 -0.0868 -0.1349
10013W        W26487   3.300  15.739   3.900 -0.2816 -0.2955 -0.0699
10014W        W26488   9.096   4.360  13.774 -0.0115  0.0793 -0.1103
10015W        W26489  10.581   6.186  12.262 -0.0597  0.0462  0.2229
10016W        W26490   1.943   2.440   5.278  0.1450  0.1673  0.0278
10017W        W26491  14.421  12.765   3.562  0.1329  0.1517  0.0390
10018W        W26492  17.696   7.299  14.372 -0.2396  0.1465  0.2404
10019W        W26493  17.792   0.649  11.809  0.0970 -0.1979 -0.1448
10020W        W26494  12.301  11.339  12.032 -0.0970 -0.3015  0.2805
10021W        W26495   7.884   2.921  14.459  0.2383 -0.5211  0.3300
10022W        W26496   2.428  14.113  11.470 -0.2323  0.1544 -0.2605
10023W        W26497  13.329  10.284   1.362 -0.0797  0.0210 -0.0439
10024W        W26498  18.074   5.778  12.205 -0.3220  0.0982  0.0733
10025W        W26499   0.021   5.853   3.994 -0.1806 -0.1938  0.0510
10026W        W26500  16.382   9.120   5.302 -0.2221  0.0731 -0.0301
10027W        W26501   7.599  10.387  14.704  0.1174 -0.1212 -0.1445
10028W        W26502   3.805   5.022  11.122  0.0258 -0.1939 -0.1251
10029W        W26503  14.288   4.928  15.724  0.2973 -0.1312 -0.0856
10030W        W26504   1.794   9.069  15.577 -0.0469  0.4610  0.0237
10031W        W26505   2.381   8.073   0.583 -0.2288  0.3113 -0.1468
10032W        W26506  11.228  10.898  15.886 -0.3366  0.2054  0.0331
10033W        W26507  17.498   7.112   4.140 -0.3358  0.0588 -0.1733
10034W        W26508  18.192  12.969   0.429 -0.0555  0.3882 -0.0595
10035W        W26509   1.036   4.480   3.119 -0.5166 -0.1731 -0.2637
10036W        W26510   6.671   6.927   4.112  0.1999 -0.0651  0.4224
10037W        W26511   2.766   1.620  13.886  0.5448 -0.0712  0.2896
10038W        W26512   9.046  17.631  10.880 -0.0933  0.1542  0.0259
10039W        W26513   5.544  13.449  13.168 -0.0923 -0.1876 -0.0598
10040W        W26514   7.051   3.640  11.047  0.1064  0.1433 -0.0859
10041W        W26515  11.436   0.477   3.383 -0.2420  0.1410 -0.2529
10042W        W26516  14.566   8.481   0.822 -0.0545  0.1179  0.1402
10043W        W26517  16.129   7.561   2.251 -0.0137  0.0972  0.0591
10044W        W26518   3.680  10.477   0.181 -0.0842 -0.1582 -0.0723
10045W        W26519   2.436   8.836   3.659 -0.0248 -0.0231 -0.3193
10046W        W26520  15.652   2.682   0.578 -0.0748 -0.1236 -0.0771
10047W        W26521  13.514   6.544   0.537  0.0469  0.4243  0.2269
10048W        W26522   7.374   8.491  11.209  0.1622 -0.0701 -0.0525
10049W        W26523   3.167   4.909   0.179 -0.2515 -0.0057 -0.1298
10050W        W26524  13.681  13.269   0.372  0.2557  0.0869 -0.0050
10051W        W26525   8.195   4.051  13.902  0.2483  0.3022 -0.0770
10052W        W26526  10.923  16.527  11.299 -0.0195  0.0640  0.1829
10053W        W26527  12.197  12.894   5.108  0.1070 -0.0315  0.1541
10054W        W26528  13.688   2.080  14.116  0.1064  0.0058 -0.0601
10055W        W26529   0.114  15.086  15.565 -0.1046 -0.0697  0.0872
10056W        W26530  13.859   2.215  14.990 -0.0199 -0.4568 -0.0976
10057W        W26531   2.903  15.554   0.206 -0.2384  0.2531  0.0742
10058W        W26532   1.617  16.045   5.416  0.0763  0.1203  0.1647
10059W        W26533   9.110  16.664   0.679  0.2484 -0.1025  0.1905
10060W        W26534   8.412  16.203   3.170  0.4255 -0.3867 -0.1832
10061W        W26535  17.371   8.039   1.049  0.1319 -0.3673  0.1293
10062W        W26536  13.539   6.687   5.003 -0.0938  0.1783 -0.0024
10063W        W26537   0.131  15.737  12.109 -0.3716 -0.0708 -0.1804
10064W        W26538  16.605  12.101   2.872  0.2151  0.1798  0.2243
10065W        W26539   5.244   0.877   2.782  0.1928  0.0120  0.0661
10066W        W26540  12.488   0.570   5.274  0.1655 -0.2058  0.5263
10067W        W26541  16.957   1.592  13.960 -0.1023  0.1146  0.0745
10068W        W26542   1.294   7.698   3.746 -0.1676 -0.0124  0.0944
10069W        W26543  17.129   3.625   5.123  0.0025 -0.2139 -0.2583
10070W        W26544   3.970  11.684  11.437  0.1781 -0.2001 -0.0091
10071W        W26545  12.011   2.509  14.701 -0.2292 -0.1711 -0.1721
10072W        W26546   7.508   7.604   0.078 -0.0203  0.0638  0.0289
10073W        W26547   6.046   1.314   2.938  0.0249 -0.0149 -0.3078
10074W        W26548   9.148   4.074   0.077 -0.2174 -0.3188  0.0803
10075W        W26549   2.769   5.920   3.850 -0.0733 -0.0472  0.1345
10076W        W26550  10.721  17.384  15.287 -0.1709  0.3147  0.2046
10077W        W26551  11.680   9.394   5.355  0.0811 -0.0471 -0.2162
10078W        W26552   6.539   5.380   2.999 -0.0018 -0.0547 -0.0230
10079W        W26553   3.166  10.026  11.980  0.0397 -0.2157  0.0121
10080W        W26554  13.996   3.978  14.895 -0.0459 -0.1305 -0.2512
10081W        W26555   7.513  12.424   2.498 -0.0438 -0.1821  0.1554
10082W        W26556  10.694  15.439  15.203 -0.1773 -0.1831  0.2453
10083W        W26557   2.020   8.533  15.968 -0.1709  0.0471  0.0707
10084W        W26558  17.438   6.282   5.057  0.2175 -0.1096 -0.0354
10085W        W26559   4.679   1.443   4.960  0.0838  0.1486 -0.0416
10086W        W26560  12.355   7.913   5.120  0.0789  0.3563  0.2276
10087W        W26561   0.339  12.786  11.037 -0.0139 -0.2333  0.3126
10088W        W26562  12.661   7.744   4.160 -0.0539  0.2656  0.0089
10089W        W26563  15.379   5.938   5.794 -0.1562 -0.0938 -0.1310
10090W        W26564   1.369   2.219  14.700 -0.0097  0.0165 -0.2335
10091W        W26565   4.993   7.162  14.174 -0.2039  0.3708  0.1087
10092W        W26566  16.167   1.692  14.249  0.0268  0.0333  0.0298
10093W        W26567   6.164  11.582   4.657  0.0157 -0.0417 -0.3588
10094W        W26568   0.809   4.045   0.319  0.2339 -0.3668  0.2089
10095W        W26569  11.486  17.680  11.362  0.0226  0.1333  0.4824
10096W        W26570  18.379   2.759   1.927 -0.0082 -0.0205 -0.1475
10097W        W26571  13.398   8.525   3.670 -0.0343  0.0069 -0.2650
10098W        W26572   5.957   2.036   4.041  0.0716 -0.2589  0.1354
10099W        W26573  17.894   8.104  14.662 -0.3598  0.2534  0.1229
10100W        W26574  16.425  13.343  13.444  0.0411  0.0389 -0.3086
10101W        W26575  10.440   2.969   3.407 -0.0851 -0.0106  0.2966
10102W        W26576  13.312   3.983  12.069 -0.0461 -0.2920 -0.3744
10103W        W26577   4.920  13.558   2.381 -0.2603 -0.0644 -0.3893
10104W        W26578   5.149   3.242  13.007  0.0016 -0.3464 -0.0649
10105W        W26579   4.626  17.863  14.923 -0.0927 -0.2380 -0.3740
10106W        W26580   0.737  12.582  11.981 -0.0814 -0.1406  0.3410
10107W        W26581  10.152   5.360   1.774 -0.0187  0.4796 -0.0883
10108W        W26582   2.395   9.180   3.983  0.0207  0.0192  0.0239
10109W        W26583   3.991  16.985   2.815  0.0734  0.1342  0.1674
10110W        W26584  10.671   8.238   2.211 -0.3306 -0.1056  0.4994
10111W        W26585   2.111  15.352  15.198 -0.1544  0.3285 -0.1327
10112W        W26586   6.524   6.549   1.315 -0.2161 -0.1556  0.0490
10113W        W26587   6.221  11.807   4.061  0.3032  0.1221  0.1226
10114W        W26588   1.910   4.463  13.147  0.2099  0.1352 -0.2809
10115W        W26589   4.759   2.386   0.395  0.0453  0.1950  0.0590
10116W        W26590  11.541   0.033  10.419  0.4823  0.0556  0.1433
10117W        W26591  15.927  18.040   4.295  0.0761 -0.0786  0.0633
10118W        W26592   3.205  10.141   3.177  0.0611  0.0652 -0.0250
10119W        W26593  10.726   1.525  15.347  0.3547  0.3563 -0.0955
10120W        W26594   1.301  12.245   1.763 -0.4103 -0.1916  0.0796
10121W        W26595   0.041   3.899   0.006 -0.1768 -0.1758 -0.2899
10122W        W26596   8.129   4.519   3.417  0.0182  0.1235  0.1782
10123W        W26597  12.728   7.952  15.790 -0.2283 -0.2898  0.1176
10124W        W26598  13.504   7.014  12.638 -0.2108  0.2177 -0.0180
10125W        W26599   7.451  14.903   1.773 -0.0914 -0.0788  0.0894
10126W        W26600   8.998  18.290   2.697 -0.1059 -0.1162 -0.5724
10127W        W26601  17.721  18.462  14.352  0.0137 -0.1333 -0.0193
10128W        W26602   5.647   4.268  12.093 -0.2536 -0.0245  0.1714
10129W        W26603  11.535   9.702  11.096  0.0332  0.1985  0.3828
10130W        W26604   3.982  12.128   3.349 -0.0968  0.2523  0.4371
10131W        W26605  14.664   7.954   5.645 -0.1328 -0.1168  0.0471
10132W        W26606  15.886  17.901   5.506  0.0829  0.2575 -0.1555
10133W        W26607  17.576   5.413   3.849 -0.0012 -0.3338  0.0551
10134W        W26608  16.964  17.034  11.039 -0.0451  0.0324 -0.0202
10135W        W26609   9.411  15.308   4.484 -0.1094  0.0230  0.1946
10136W        W26610   6.378  17.647   3.834 -0.0333 -0.2025  0.2177
10137W        W26611   5.198  11.742   4.167 -0.0192  0.2587  0.1062
10138W        W26612   3.855  10.204   4.516 -0.2595 -0.0266  0.1443
10139W        W26613   2.993   3.673   0.159 -0.0589  0.2879  0.4365
10140W        W26614  13.880   0.251   0.351 -0.0566 -0.0904 -0.0921
10141W        W26615   7.970  10.539  15.934 -0.2309 -0.1303 -0.1904
10142W        W26616  15.133   8.466   0.216 -0.0392  0.0652  0.1034
10143W        W26617  17.783   1.208   4.236  0.3414  0.0278  0.0242
10144W        W26618   5.053   2.241   5.474  0.1390 -0.0887  0.1356
10145W        W26619   5.827  11.362  15.643 -0.3019  0.1618 -0.0223
10146W        W26620   8.448  13.506   4.485 -0.0659  0.0651  0.2664
10147W        W26621   8.224   4.558  10.099  0.0619 -0.0118  0.0548
10148W        W26622  14.677   3.514  11.808 -0.2608 -0.0234  0.2853
10149W        W26623  18.276  12.489   5.569 -0.0716 -0.0974 -0.2024
10150W        W26624   8.845  10.057   4.507 -0.0176  0.0704  0.0451
10151W        W26625   7.123  10.711  14.350  0.1703  0.2842  0.0256
10152W        W26626   3.109   0.206  13.889 -0.4379 -0.0634 -0.0922
10153W        W26627  17.329  15.394  12.742  0.0908  0.0831  0.2344
10154W        W26628  17.563  10.823  10.651  0.1919  0.2312  0.0391
10155W        W26629  14.663   2.021  12.647 -0.1723 -0.0735  0.0140
10156W        W26630  14.277  16.580   2.776  0.3855 -0.0421 -0.3032
10157W        W26631   9.468   0.987  13.347 -0.0190 -0.4326  0.2388
10158W        W26632  17.242  14.844  12.103  0.0843 -0.3668  0.2019
10159W        W26633   5.731   5.169  13.506  0.1254  0.0744 -0.1124
10160W        W26634  11.665  11.643  15.672  0.1434  0.0375 -0.0819
10161W        W26635  15.688  13.378   2.369 -0.0400  0.0296  0.0986
10162W        W26636   0.644   7.481   0.403  0.0470  0.1542 -0.0300
10163W        W26637   2.249   2.789   4.987  0.0395  0.1173 -0.2001
10164W        W26638  12.989   2.813   1.607  0.1322  0.2711 -0.1823
10165W        W26639   9.053   7.448   4.879  0.2202  0.0080  0.0821
10166W        W26640  12.806   9.533   1.606  0.2382  0.1470 -0.1476
10167W        W26641   9.373  15.616  11.783  0.4491 -0.0218 -0.1349
10168W        W26642  13.584  12.861  12.931 -0.0001  0.3476  0.2232
10169W        W26643  15.290  16.740   0.174 -0.0743 -0.0597 -0.1407
10170W        W26644  16.537   1.431  15.135 -0.0324  0.0180 -0.5183
10171W        W26645   8.522   8.226  12.011  0.3272 -0.2949 -0.0046
10172W        W26646   5.108   3.727  10.960 -0.4147 -0.0141 -0.0099
10173W        W26647   2.935   3.534   2.075  0.0167  0.0936  0.0800
10174W        W26648  15.481  15.543   3.489 -0.1688  0.2585 -0.1721
10175W        W26649   8.828  11.102  11.586  0.0155  0.2460  0.1073
10176W        W26650  13.955   5.089   0.827 -0.2339  0.1599  0.2197
10177W        W26651   8.932   6.804   4.535  0.1969  0.1520 -0.3213
10178W        W26652   5.979  14.884   4.563  0.0420 -0.1264  0.0446
10179W        W26653  14.334  14.900   2.525  0.0174 -0.2583 -0.1192
10180W        W26654  13.830  10.485   1.397  0.0895 -0.4506 -0.2108
10181W        W26655  15.221   3.503   2.396 -0.2544  0.0692 -0.0234
10182W        W26656   6.396   3.296   3.366  0.2083  0.1698 -0.0133
10183W        W26657   6.562   6.200   0.393  0.2966  0.0589 -0.2031
10184W        W26658  12.244   4.895   2.798 -0.2234  0.1066  0.2033
10185W        W26659   0.368   3.899  15.620  0.1325  0.1143  0.1207
10186W        W26660   8.689  16.123   4.465  0.1678  0.0159 -0.1507
10187W        W26661   8.597   8.433   4.576 -0.0189  0.0448 -0.1985
10188W        W26662   8.224   8.799  13.635 -0.1042  0.0553  0.2131
10189W        W26663   3.790  11.119   0.496 -0.1248 -0.1731 -0.1620
10190W        W26664  17.093  11.863  10.161  0.1733  0.1061  0.3017
10191W        W26665   2.961   2.350   5.083 -0.2385  0.1827  0.0691
10192W        W26666   2.404  17.544   4.898 -0.0137 -0.0232  0.1226
10193W        W26667   5.128   2.550  15.271  0.1348  0.0798 -0.2744
10194W        W26668  16.346   0.098  14.557 -0.1243  0.0358  0.1456
10195W        W26669  15.881  14.314   1.055  0.2395  0.2577 -0.1937
10196W        W26670   6.993  12.790  14.039 -0.2394  0.3079 -0.2259
10197W        W26671  11.434  16.327   3.570  0.1553 -0.0063  0.1487
10198W        W26672  12.149   6.763  12.035  0.2112  0.4051  0.0192
10199W        W26673  16.645  13.126   3.296 -0.1052  0.3455 -0.2375
10200W        W26674   6.933  13.303   2.676 -0.0192 -0.0894  0.0779
10201W        W26675  14.566   1.900  14.210  0.2666  0.1407 -0.0024
10202W        W26676   4.288  17.031   4.921  0.2187  0.0357 -0.0142
10203W        W26677  11.018  17.026   0.578  0.0939 -0.1046 -0.1524
10204W        W26678   4.890   9.639  12.943 -0.0775  0.0180  0.1169
10205W        W26679   7.984   8.433  14.373  0.0563 -0.1533  0.0308
10206W        W26680   8.950  12.840  15.369 -0.0632 -0.2786  0.0456
10207W        W26681  11.112  11.897  13.354  0.2523  0.1828 -0.0689
10208W        W26682   8.984   5.439  13.001  0.2718  0.0022  0.2880
10209W        W26683  13.209   1.459   2.263  0.0387 -0.0137 -0.0523
10210W        W26684  16.306  16.444   3.788 -0.0351  0.1805  0.2818
10211W        W26685   1.171   9.180  11.824 -0.2479 -0.0092  0.0988
10212W        W26686   2.072   7.676  11.614  0.0462  0.1325  0.0849
10213W        W26687   7.460   2.537   0.663 -0.0488 -0.1002 -0.2284
10214W        W26688   2.602  12.070  14.716 -0.2647 -0.2249  0.2707
10215W        W26689  17.829   3.344  14.641  0.0675  0.0602  0.2211
10216W        W26690   5.503   7.351   1.585 -0.2162  0.3718  0.2355
10217W        W26691   5.117   7.098  12.214 -0.0332  0.0593  0.0963
10218W        W26692  15.834   4.952  13.329 -0.1433 -0.4362 -0.0235
10219W        W26693  11.565  15.785   3.362 -0.2492 -0.2928  0.0831
10220W        W26694   9.440  10.632  11.758 -0.2878 -0.0319  0.2305
10221W        W26695   4.375   1.578  11.076  0.4488 -0.0351 -0.0071
10222W        W26696  14.067   0.233   1.371 -0.0391 -0.0403 -0.0165
10223W        W26697   4.738   6.268   1.457  0.1949 -0.1120  0.0178
10224W        W26698   2.163   0.577  10.281 -0.0163 -0.1257 -0.0598
10225W        W26699  14.534   5.217  12.093  0.1432 -0.1511 -0.0360
10226W        W26700   1.467   8.767   9.862  0.2189  0.1868  0.1658
10227W        W26701  11.924   9.794  13.368 -0.1340  0.0513 -0.1549
10228W        W26702   3.528  16.488  13.711 -0.2649  0.2046  0.2130
10229W        W26703   1.579  11.825  14.809  0.0264 -0.0158 -0.1201
10230W        W26704   5.725   9.445  11.176 -0.3742 -0.3738  0.2462
10231W        W26705  12.615   7.225   3.476 -0.2165  0.3949 -0.1082
10232W        W26706   1.739   5.536   5.159  0.1308  0.0623 -0.1111
10233W        W26707   0.755  15.332  12.533  0.0310  0.0336 -0.0927
10234W        W26708   7.675   1.546   1.240  0.0131 -0.1637  0.0675
10235W        W26709   9.036   3.211   3.778 -0.1955 -0.1804  0.0457
10236W        W26710   7.463   5.397   2.396  0.2331  0.0579  0.1585
10237W        W26711  15.207  14.726  12.114  0.1380  0.0910  0.1590
10238W        W26712   2.996  12.779  11.986 -0.0530 -0.1286 -0.4188
10239W        W26713   4.328   8.938   0.508 -0.1033  0.3222  0.0730
10240W        W26714  14.359   6.849   0.017 -0.0232 -0.0819  0.0433
10241W        W26715   5.776  11.349  14.144  0.0225  0.2347 -0.2691
10242W        W26716  11.425   6.959   5.043 -0.1012  0.1709 -0.0069
10243W        W26717  18.336   8.555   5.780  0.0975 -0.2316 -0.1010
10244W        W26718  11.918   0.597   5.536  0.1068 -0.0752  0.0574
10245W        W26719  17.379   8.207  10.719  0.0842 -0.0688 -0.1574
10246W        W26720   4.993  10.654  11.216  0.2602 -0.2339  0.1094
10247W        W26721   9.205  15.575  12.774  0.4844  0.1255  0.3607
10248W        W26722   7.685   0.441  13.676  0.0039 -0.3749 -0.2429
10249W        W26723  11.772   1.177  15.231 -0.3199  0.0558  0.1608
10250W        W26724   9.394   9.895   2.617 -0.2305 -0.5702  0.0590
10251W        W26725  18.335   8.993   1.326 -0.1251  0.0392 -0.2132
10252W        W26726   4.400   2.073   1.273 -0.0067 -0.1032  0.0217
10253W        W26727  14.879  17.973   0.267 -0.0935  0.4565 -0.1047
10254W        W26728   3.975   2.838  11.725  0.0515 -0.0734  0.2196
10255W        W26729   3.471  17.371   5.024  0.1791  0.4079  0.0298
10256W        W26730  17.506  11.958  11.168 -0.0463 -0.5232 -0.1795
10257W        W26731  13.279   9.813   3.165  0.1374  0.1887 -0.1391
10258W        W26732   3.678   1.917  13.673 -0.2509 -0.0092  0.0810
10259W        W26733   4.211   2.135   5.989  0.1686  0.1128 -0.1039
10260W        W26734   0.157   8.964   2.334 -0.0982 -0.3639  0.1134
10261W        W26735   2.880  12.572  14.935  0.0637  0.0238 -0.1015
10262W        W26736  17.006   0.719   2.283  0.0576  0.1143 -0.0052
10263W        W26737   1.867   2.969  11.694  0.2426 -0.0289 -0.0488
10264W        W26738   4.757   1.781  12.829 -0.2780 -0.1094  0.1633
10265W        W26739  16.990   5.103  15.710 -0.3370 -0.1489  0.3096
10266W        W26740   0.658  11.228   5.230  0.1064 -0.0811  0.0199
10267W        W26741   8.747   7.748   4.238 -0.3168 -0.0390 -0.0847
10268W        W26742  13.468  10.718   1.112  0.0707  0.0760 -0.2070
10269W        W26743  15.739  13.045   3.238 -0.2686  0.2176 -0.0580
10270W        W26744   9.547   7.609  14.001 -0.0294 -0.0371  0.0736
10271W        W26745  10.355   0.195   0.559  0.0540  0.1087 -0.0766
10272W        W26746   6.021   6.126   2.445  0.2050  0.2435  0.0557
10273W        W26747   4.179  17.701  15.749 -0.0169  0.2091  0.0064
10274W        W26748  12.996  10.482  14.103 -0.3316  0.1489 -0.0250
10275W        W26749   3.296  16.182   3.662 -0.2506  0.1046  0.1629
10276W        W26750   8.138  10.990   3.928  0.1990  0.1715 -0.3671
10277W        W26751   9.947  13.204   0.931  0.0369  0.2360 -0.3051
10278W        W26752  12.819   9.256  15.236 -0.0153  0.0167 -0.0430
10279W        W26753  15.532   9.277  10.786 -0.0252 -0.2754 -0.1809
10280W        W26754  16.272  13.178  12.427 -0.1615  0.1274 -0.1964
10281W        W26755   6.669   3.456   4.631 -0.0254 -0.1299 -0.1519
10282W        W26756   4.209   2.044  11.209  0.1368  0.2230  0.0267
10283W        W26757   3.618   4.619   1.756  0.1973  0.0137 -0.2757
10284W        W26758  11.332   2.190   2.899  0.0439  0.1166  0.1763
10285W        W26759   8.335   7.437   0.507 -0.3796 -0.3880  0.0354
10286W        W26760   3.107   8.328   3.165 -0.2130  0.0551 -0.1438
10287W        W26761   7.846  15.422   1.694 -0.0744  0.2258 -0.3175
10288W        W26762   6.738   4.239  13.459  0.0950 -0.1110  0.1067
10289W        W26763   5.148   4.458  12.548  0.0044 -0.1979 -0.0366
10290W        W26764   3.127   8.676   9.674  0.0791  0.2202 -0.0770
10291W        W26765   6.626  16.381   4.355  0.0724  0.1652  0.0201
10292W        W26766  12.653   0.401   4.503  0.0535  0.3616  0.1173
10293W        W26767   1.083  10.524  10.997 -0.1974 -0.0184  0.0989
10294W        W26768  11.387  14.213   3.456  0.0699  0.1238 -0.1436
10295W        W26769   3.399   0.595   3.234  0.0139 -0.1568 -0.0202
10296W        W26770  17.887   3.402   0.684 -0.0615  0.1082  0.0338
10297W        W26771   6.049  13.140   2.426 -0.2168 -0.1224  0.3117
10298W        W26772   1.774  17.203  11.928 -0.1387 -0.2069  0.1372
10299W        W26773  17.501  11.560  12.275 -0.0227  0.1778  0.2361
10300W        W26774  14.841   5.325  13.323  0.1526 -0.3963  0.0736
10301W        W26775   2.613  16.261   2.865  0.0635 -0.3155 -0.0572
10302W        W26776   9.208   4.979   1.814  0.1157 -0.1221  0.0699
10303W        W26777  11.903   3.062  15.743  0.0248  0.1209  0.0345
10304W        W26778  10.696   8.676  14.574 -0.0307 -0.0557  0.0766
10305W        W26779   7.578   2.226   1.970  0.2549 -0.0090  0.0961
10306W        W26780   1.551   0.735  15.907 -0.2504  0.0911 -0.1597
10307W        W26781  17.275   1.217  10.929 -0.2502  0.3507 -0.0365
10308W        W26782   7.120  16.276  11.074  0.3660  0.0870 -0.0941
10309W        W26783   3.302  14.138  12.025 -0.0360 -0.3481 -0.1602
10310W        W26784  16.676   6.350   1.626  0.1281 -0.5340  0.3370
10311W        W26785  17.758   3.759   3.316  0.0507 -0.0883  0.2029
10312W        W26786  11.119  17.990   4.895 -0.1380  0.1937 -0.0332
10313W        W26787  12.698  17.369   3.582  0.1288 -0.2921  0.1793
10314W        W26788   1.338   5.314   5.288  0.0586  0.0081  0.2321
10315W        W26789  17.796   2.540   2.691  0.1588  0.1655 -0.3076
10316W        W26790   7.776   7.327   5.367 -0.1489  0.1814 -0.0646
10317W        W26791   5.736   0.545  13.483  0.2032  0.2054 -0.0877
10318W        W26792  14.849   2.764  12.937 -0.2866  0.0437 -0.1369
10319W        W26793   1.541   6.959  14.483 -0.0220 -0.0386 -0.1105
10320W        W26794   7.380   1.955  10.780  0.3092  0.3280 -0.0341
10321W        W26795  14.917   7.826  10.918  0.0875  0.2925 -0.0480
10322W        W26796  15.793   7.261  12.617  0.0912  0.3419  0.0611
10323W        W26797  15.383   1.203   1.919  0.0230 -0.0305  0.2545
10324W        W26798  14.974  18.423  11.265 -0.0786  0.1092  0.0681
10325W        W26799   2.165   5.980  12.182  0.2652 -0.1641  0.0344
10326W        W26800  14.352   4.679   0.254  0.0575  0.0268  0.0717
10327W        W26801   6.512  16.878  12.948 -0.1192  0.0585  0.1497
10328W        W26802  14.400   3.992  15.795 -0.1137 -0.2176 -0.2507
10329W        W26803   6.133   2.880  13.191  0.2141 -0.0872  0.2052
10330W        W26804   4.900   7.474  12.484 -0.0284  0.2430 -0.1059
10331W        W26805  15.534   1.415   3.894  0.1501  0.0389 -0.3919
10332W        W26806  17.898  10.975   2.618  0.0734  0.1861  0.0234
10333W        W26807  14.495   2.194   5.182  0.1366 -0.2713 -0.1889
10334W        W26808  11.295  16.775   0.965  0.0961 -0.1495 -0.0887
10335W        W26809  11.961  16.853   2.893  0.2261 -0.3710 -0.0366
10336W        W26810  16.998   2.208  11.148  0.1192 -0.1886 -0.2541
10337W        W26811   1.866   1.594   0.040 -0.0800  0.0073 -0.1678
10338W        W26812  11.636  14.267  15.710  0.0396 -0.1864  0.1281
10339W        W26813   7.901   5.926  15.714 -0.0207 -0.1902  0.1975
10340W        W26814   2.054   9.027   1.814 -0.1989 -0.2068  0.2260
10341W        W26815   3.123  16.177  14.972  0.0431 -0.0773 -0.1599
10342W        W26816  10.413  11.405  13.525 -0.2213  0.0415 -0.0369
10343W        W26817  16.848   7.293  14.636  0.0643  0.0178  0.0008
10344W        W26818  12.195   3.941   2.235  0.0600  0.1340  0.2636
10345W        W26819  17.326  10.298  13.176  0.0180 -0.0399 -0.0644
10346W        W26820   5.152   2.406   4.146 -0.0574  0.0938  0.0100
10347W        W26821   7.676   2.487   0.157 -0.1818 -0.2180 -0.0244
10348W        W26822   7.966   7.475   2.246 -0.4465 -0.0779 -0.0089
10349W        W26823   2.847  10.623   6.171 -0.0341 -0.0635 -0.2460
10350W        W26824   3.646  14.344  13.809  0.1923  0.0229  0.0379
10351W        W26825   3.641   6.281  13.462  0.0542 -0.0910  0.1137
10352W        W26826  16.090   7.286  10.693  0.3713 -0.0603 -0.1104
10353W        W26827   6.080   5.349   0.209 -0.0520 -0.1471 -0.2853
10354W        W26828  14.988   2.368   3.664 -0.3135  0.0607  0.1593
10355W        W26829   8.906  12.093   1.882  0.2031 -0.2765 -0.0305
10356W        W26830   3.408  11.010  15.000  0.0654 -0.0108 -0.3396
10357W        W26831   4.815  14.105   5.021  0.0251 -0.1652  0.1090
10358W        W26832  16.744   8.587   2.879 -0.3139 -0.4535  0.1944
10359W        W26833  14.091   1.634  11.718  0.0522 -0.0415 -0.3899
10360W        W26834   9.701   3.499   2.995  0.1796  0.0245  0.1433
10361W        W26835   4.031   2.740   1.908  0.0455 -0.2597 -0.0053
10362W        W26836  10.413   8.369  14.855 -0.1407  0.0068  0.0770
10363W        W26837   3.033   5.699  15.471 -0.0007  0.0925 -0.0552
10364W        W26838  12.262  17.960  14.134 -0.0065  0.0147  0.2377
10365W        W26839  14.058   0.668  13.381 -0.2792 -0.1591  0.0135
10366W        W26840   1.751  17.954   3.844  0.0775  0.1564 -0.2414
10367W        W26841   6.140   2.027  13.469 -0.3426  0.0348  0.3137
10368W        W26842   1.880  14.033   2.227  0.1509  0.4127 -0.2622
10369W        W26843  17.469   1.529  15.402 -0.3041 -0.1252  0.0033
10370W        W26844   5.489   2.883   4.889  0.0542 -0.1304  0.1341
10371W        W26845  17.180   3.518  11.428  0.1524  0.1526 -0.1505
10372W        W26846  10.895   1.483  14.821 -0.0146 -0.3844 -0.2709
10373W        W26847   9.927   2.599   2.107 -0.1385 -0.0124  0.0496
10374W        W26848  16.556  16.479  12.599 -0.0855  0.3301  0.3106
10375W        W26849  16.834   1.479   5.913 -0.0095  0.0263 -0.0457
10376W        W26850  13.549   5.105   4.639  0.2714 -0.2029  0.0460
10377W        W26851   0.591   3.718  15.167  0.0260  0.0656 -0.3013
10378W        W26852   4.915   2.129  12.341 -0.1033  0.1689  0.0515
10379W        W26853   7.968  17.850   3.388  0.0150 -0.1525  0.1832
10380W        W26854   2.421  14.797  12.951  0.1187  0.4530  0.0869
10381W        W26855   7.734   9.683   1.024 -0.1146  0.0498  0.1547
10382W        W26856  17.783  12.846  14.592  0.1335 -0.0682  0.0090
10383W        W26857  14.575  13.177  15.580 -0.0072  0.1492 -0.2061
10384W        W26858   9.831  17.138  14.963 -0.0642 -0.3044  0.1830
10385W        W26859   0.633  14.446  11.785  0.2932 -0.0661 -0.1786
10386W        W26860  14.482   4.103  13.145  0.2999 -0.3830  0.1173
10387W        W26861  16.387  15.559   2.931 -0.0345  0.0155 -0.2538
10388W        W26862   0.016   4.757   2.135  0.1441  0.2190 -0.0286
10389W        W26863  16.117  17.809   1.160 -0.0641  0.1892  0.0462
10390W        W26864   1.769   9.537  14.668  0.2450  0.0423  0.0471
10391W        W26865  13.469  12.951  13.386  0.0410 -0.0070 -0.1107
10392W        W26866   0.882  16.728  11.793  0.1331  0.1297  0.0750
10393W        W26867   0.568  10.483  13.812  0.2538 -0.2064 -0.2192
10394W        W26868  14.462  11.998   3.990 -0.1388 -0.3279  0.0736
10395W        W26869  17.449   3.487   0.894 -0.0535 -0.0660  0.0435
10396W        W26870  14.582   9.128  15.052 -0.1011 -0.1404  0.2290
10397W        W26871   7.294  13.580  15.028 -0.3885 -0.0051  0.1231
10398W        W26872  13.484   2.929  15.339  0.1145  0.4060 -0.0182
10399W        W26873  13.302  10.626   2.813 -0.3275 -0.1122 -0.0714
10400W        W26874  11.912   0.806  11.915  0.0456 -0.1110 -0.1482
10401W        W26875  16.312   7.455   5.334 -0.0513  0.0334  0.0184
10402W        W26876  12.917  10.013  12.734  0.2140 -0.0967 -0.2386
10403W        W26877  17.119   2.803   4.721 -0.1339 -0.2642  0.4936
10404W        W26878  11.157  13.776  12.066 -0.2432 -0.0039 -0.1797
10405W        W26879  17.545  14.816  15.484 -0.3289 -0.1529  0.1637
10406W        W26880   3.155  11.875   3.015 -0.0588  0.3793 -0.3273
10407W        W26881  15.057  14.969  13.458 -0.0567  0.2717  0.3953
10408W        W26882  10.107   8.248  11.101 -0.0726  0.0513  0.2389
10409W        W26883  13.090  12.439   1.461  0.1797  0.1395  0.2772
10410W        W26884  14.898   3.566   1.548 -0.2961 -0.1287 -0.3174
10411W        W26885   9.503   3.015   2.938 -0.1074 -0.0313 -0.0011
10412W        W26886  16.421   3.386  14.765 -0.0233  0.1148  0.2013
10413W        W26887   0.816   3.044  14.492  0.1844 -0.1639 -0.2966
10414W        W26888   3.698  14.141  11.697 -0.3376  0.1425 -0.0955
10415W        W26889   2.626  14.823   3.027  0.0820 -0.2626  0.2587
10416W        W26890   7.688   1.088   1.446  0.0239 -0.2044  0.0753
10417W        W26891  15.530  11.188   2.253  0.1527 -0.0744 -0.0817
10418W        W26892   1.018  17.511   5.224 -0.1306 -0.0939 -0.0231
10419W        W26893  11.470   9.785  12.446  0.2380 -0.0936 -0.1849
10420W        W26894   3.032   2.373   4.571  0.0278  0.0398  0.1130
10421W        W26895   6.588   9.571  12.299  0.1379 -0.1151  0.0742
10422W        W26896   5.347   0.490   4.227 -0.0778 -0.2410 -0.1884
10423W        W26897   4.005  10.344  12.190  0.1078 -0.0487  0.1427
10424W        W26898  17.298   2.748  13.431 -0.2227 -0.0724  0.0966
10425W        W26899   1.613  11.070  13.404  0.1263  0.0016  0.2863
10426W        W26900   0.594  17.416  15.685 -0.0451 -0.0519 -0.1224
10427W        W26901   2.653   4.966   2.770 -0.2563  0.0465 -0.1935
10428W        W26902   0.135  12.508  11.828  0.3097  0.1639 -0.0796
10429W        W26903   9.776   9.659  15.965  0.3125  0.2409 -0.0459
10430W        W26904  17.134   7.184  13.523 -0.0850 -0.1422 -0.4171
10431W        W26905   0.983  10.738   1.705  0.0302 -0.2815  0.1189
10432W        W26906  10.893  11.356  11.523 -0.2106  0.2295  0.0045
10433W        W26907   9.580  16.351   2.023  0.2566  0.0619 -0.0165
10434W        W26908  16.000  17.062  13.676  0.0308 -0.1421  0.0748
10435W        W26909  14.376   3.423   5.010 -0.0157  0.2918  0.0335
10436W        W26910   9.143   6.213  14.773  0.3090 -0.0534 -0.1496
10437W        W26911   4.744   1.800   3.285 -0.4141 -0.3183  0.2136
10438W        W26912  17.678   3.121   4.431  0.0866 -0.1878 -0.3193
10439W        W26913   3.999   0.433   2.584  0.1214  0.3960  0.0870
10440W        W26914   3.469   6.975   2.986  0.2889  0.2651 -0.0493
10441W        W26915  11.732  11.129  13.726 -0.0361 -0.0263 -0.1218
10442W        W26916  15.093   3.860   0.156  0.0562 -0.0421  0.0241
10443W        W26917   9.633  15.701   4.205  0.2101 -0.0491 -0.6208
10444W        W26918   3.239   2.349   4.118 -0.1684 -0.1922  0.2409
10445W        W26919   6.146   6.333   3.535 -0.1323 -0.1925  0.0257
10446W        W26920  12.610  14.085   5.160 -0.2495  0.1134 -0.1041
10447W        W26921  15.742  12.701  12.978  0.0703 -0.1129 -0.0448
10448W        W26922  13.074   3.546  10.165  0.0355  0.3470 -0.2849
10449W        W26923   3.496   6.881   2.497  0.2296  0.2144  0.0358
10450W        W26924   3.560  16.033   2.448 -0.0088 -0.2684  0.0873
10451W        W26925   5.080   4.553  11.442 -0.0866  0.0312  0.0846
10452W        W26926  12.590   2.603   2.954 -0.0377  0.2017  0.0008
10453W        W26927   9.532  16.868   3.773  0.0607 -0.0739 -0.0468
10454W        W26928  11.473  13.686   3.632 -0.1101 -0.0838  0.2401
10455W        W26929   6.156  15.382  12.649  0.0738  0.2463 -0.2282
10456W        W26930   9.928  13.893  14.673 -0.3852 -0.0247 -0.1395
10457W        W26931  17.120  10.658   0.778 -0.2320  0.0287  0.0580
10458W        W26932  14.536  17.061  15.080 -0.0608  0.1127  0.2611
10459W        W26933   9.750   8.636   3.929  0.0055  0.1782 -0.1486
10460W        W26934   6.882   9.583   2.414 -0.3375  0.1358 -0.0717
10461W        W26935   3.529  14.705  14.597  0.1027 -0.3438  0.0568
10462W        W26936   8.670   2.632  10.993 -0.0731 -0.0256 -0.0899
10463W        W26937   4.887   3.061   0.742  0.1096  0.1056  0.2165
10464W        W26938  15.742   7.286  15.520  0.3515 -0.1579 -0.0993
10465W        W26939  16.336   1.949   0.612  0.3002 -0.1745  0.1652
10466W        W26940  17.973  13.479  10.814 -0.0980 -0.2833 -0.1479
10467W        W26941   4.143  13.768   1.636 -0.0641 -0.0423  0.0896
10468W        W26942  13.716  13.277   5.963 -0.1404 -0.3023 -0.2569
10469W        W26943  12.034  10.761   5.723  0.2019 -0.3130  0.3014
10470W        W26944  14.281   5.034  13.948 -0.1156 -0.1528 -0.1937
10471W        W26945   0.272  17.868   1.116  0.2018  0.2931  0.0782
10472W        W26946  17.816  11.227  13.986 -0.0955  0.0088  0.0950
10473W        W26947  12.699   1.349   1.427 -0.1350  0.1418  0.1492
10474W        W26948  18.035   4.060   3.748 -0.0219 -0.1364 -0.1761
10475W        W26949   1.834  10.166   4.406 -0.1168 -0.4305 -0.0152
10476W        W26950   8.380   2.268   1.485  0.0936  0.3843  0.0478
10477W        W26951   2.657   8.646  11.124 -0.0576  0.0478  0.5129
10478W        W26952  13.173  14.577   0.055 -0.0214  0.3214  0.0369
10479W        W26953  12.884   6.953  11.673  0.2362  0.2431  0.0425
10480W        W26954  15.163   8.216  13.473 -0.0861 -0.0438 -0.0167
10481W        W26955  17.841   7.641   9.902  0.2659 -0.1158  0.2468
10482W        W26956   7.534  14.352   1.417  0.1036 -0.1256 -0.0140
10483W        W26957  10.660  18.392   3.143  0.0170 -0.1940  0.1363
10484W        W26958   6.956   6.877   3.682 -0.0156  0.0830 -0.0885
10485W        W26959  16.265  15.468   1.728 -0.1821 -0.2601 -0.3054
10486W        W26960   0.886  14.315  14.712 -0.2424  0.0689  0.2720
10487W        W26961   8.255  11.331   3.588 -0.2705  0.0778  0.0315
10488W        W26962   4.562   2.580   0.900  0.1152 -0.0562  0.0175
10489W        W26963   0.232  11.444  15.306 -0.0735  0.1811 -0.0527
10490W        W26964  13.384  13.699   3.127 -0.0560  0.1569 -0.0573
10491W        W26965  12.396   1.671   3.323 -0.2364 -0.0026 -0.2593
10492W        W26966  12.318   9.010   2.203 -0.0780  0.1924  0.3010
10493W        W26967  12.120   3.631   1.807 -0.0152  0.3121 -0.1939
10494W        W26968  12.149  14.882  15.032 -0.2311  0.0740 -0.0445
10495W        W26969  11.002   3.889   1.374  0.5011  0.1508  0.1560
10496W        W26970  16.756   1.016  15.492  0.4140 -0.2056 -0.0958
10497W        W26971  17.356  14.431  10.866  0.1465 -0.4038  0.0011
10498W        W26972  17.924  15.199   4.848 -0.0606  0.1983  0.0024
10499W        W26973  15.799  13.324   1.093 -0.1445  0.0466 -0.0760
10500W        W26974   4.284  17.760  11.948 -0.1868 -0.4108 -0.0411
10501W        W26975  10.351  13.284  11.871 -0.0932 -0.0307  0.0803
10502W        W26976  17.121  16.822  12.455  0.0989 -0.0138  0.2101
10503W        W26977   5.546   6.187  13.499 -0.1456  0.0157  0.2949
10504W        W26978   1.423   8.581   0.618  0.0259  0.0870  0.0891
10505W        W26979   6.866   2.055  14.244 -0.2695 -0.3846 -0.0127
10506W        W26980   7.375  12.482   1.223 -0.0498 -0.0832  0.0126
10507W        W26981   9.838   7.517  13.597 -0.0265 -0.1210 -0.1709
10508W        W26982   6.305   1.778  14.905  0.0056 -0.0009  0.0231
10509W        W26983   6.144   3.014   4.176 -0.2501 -0.2571 -0.1315
10510W        W26984   1.831   8.852  11.795  0.3532  0.0835  0.1591
10511W        W26985  10.827   1.306  15.864 -0.0112 -0.1735  0.1133
10512W        W26986   1.841  18.473   1.806 -0.0325  0.0671  0.2035
10513W        W26987   3.918   5.081   1.395 -0.0108  0.1513 -0.2675
10514W        W26988  13.371   9.883   4.954 -0.0940  0.0030  0.1259
10515W        W26989   4.929  10.909  15.808 -0.2089 -0.1472 -0.0829
10516W        W26990  14.374   0.189   4.923 -0.1073  0.0245  0.2188
10517W        W26991   6.573   3.106  13.126 -0.3488 -0.1279 -0.0448
10518W        W26992  17.263  11.156  10.848  0.1268 -0.0878 -0.1335
10519W        W26993  12.687  10.017   1.764 -0.0526  0.4488 -0.5372
10520W        W26994   5.281  17.000   0.806 -0.2379  0.2479  0.0833
10521W        W26995   7.136  10.855   3.953 -0.0154 -0.1222  0.4362
10522W        W26996  17.659  15.114  12.457 -0.0205 -0.1534  0.1673
10523W        W26997   7.610  14.516   5.305  0.1468  0.0523 -0.5351
10524W        W26998   9.132  13.936   2.118  0.0102 -0.1768  0.2569
10525W        W26999  16.957   8.585  12.011 -0.1995  0.3613 -0.1809
10526W        W27000  17.115   3.984  13.212  0.0702 -0.0006 -0.1515
10527W        W27001   2.665  10.541  14.046 -0.1267 -0.1006  0.3190
10528W        W27002  13.132   7.330  15.163  0.2005 -0.0411 -0.1002
10529W        W27003  15.268   9.406  14.051 -0.2512  0.2434 -0.1284
10530W        W27004   4.913  15.951   2.474  0.1214  0.0676 -0.0240
10531W        W27005   9.088   8.359  10.201  0.0119  0.1620  0.2356
10532W        W27006   0.857   2.896   4.519  0.0159 -0.0829 -0.0133
10533W        W27007   7.777   8.691  13.442 -0.0663  0.1852  0.3069
10534W        W27008   9.693  17.562  15.284 -0.0975  0.2249  0.1333
10535W        W27009   7.681   5.977   0.272 -0.1679  0.0521  0.1320
10536W        W27010  13.398   2.112   0.581  0.1957 -0.0883 -0.1328
10537W        W27011  10.049   8.986   4.031 -0.1911  0.2568 -0.0222
10538W        W27012   7.322  12.036   4.118  0.0199 -0.0969  0.3141
10539W        W27013   8.839  10.963   4.303  0.0117  0.1554 -0.4394
10540W        W27014   0.870  13.378  15.206  0.0429 -0.1731  0.0593
10541W        W27015  13.947  11.937   3.926  0.0563 -0.2277  0.2612
10542W        W27016  11.536   2.450   3.828 -0.1085 -0.1595 -0.2377
10543W        W27017  13.361   5.968   2.357 -0.2743  0.0965  0.0391
10544W        W27018  11.752  15.072   1.701  0.1576  0.2969 -0.0274
10545W        W27019  15.352   1.926   1.073  0.1248 -0.1361  0.2125
10546W        W27020  10.447   6.158   1.236 -0.0047 -0.1699 -0.0535
10547W        W27021   1.150   7.962  15.172 -0.0730 -0.0137 -0.2091
10548W        W27022  14.791  16.110  12.896 -0.4127 -0.2060 -0.2852
10549W        W27023   3.393  14.860   0.092 -0.2837  0.0763  0.3522
10550W        W27024  10.012  10.626   2.318 -0.3726  0.2956 -0.1138
10551W        W27025   8.801   3.582   3.465  0.1147  0.1358 -0.4813
10552W        W27026   2.981   6.806   4.145 -0.1609 -0.0378  0.0078
10553W        W27027   4.144   1.855   5.543  0.1735  0.0478 -0.0902
10554W        W27028   4.544   9.206  15.918  0.3290  0.2748 -0.1449
10555W        W27029  12.182   5.859  14.679  0.0312  0.0733 -0.1353
10556W        W27030   2.552   3.218   1.568  0.2718  0.0599  0.1438
10557W        W27031  17.458   7.698  14.042  0.1400  0.1190 -0.2158
10558W        W27032   2.236   8.827   1.022  0.1103  0.0258 -0.1908
10559W        W27033  12.236  12.983   3.085 -0.1517 -0.1861 -0.1251
10560W        W27034   1.880  12.763   2.359 -0.1308  0.1810 -0.0199
10561W        W27035   3.786  13.943  10.923  0.0041  0.0194  0.3531
10562W        W27036  17.500   4.383  14.532 -0.2163  0.0861  0.0673
10563W        W27037   7.298  12.493  12.858 -0.3087 -0.0494  0.1350
10564W        W27038   0.618   9.911  11.513  0.0918 -0.1832  0.0875
10565W        W27039   1.810  14.289   1.719 -0.1018 -0.0163 -0.1281
10566W        W27040   3.559   6.669   0.983 -0.3657  0.1088  0.2032
10567W        W27041   9.062  11.794  13.036  0.0092  0.0872 -0.1376
10568W        W27042  14.501  13.880  10.998 -0.1306 -0.4520  0.0562
10569W        W27043   6.952   9.929  11.699 -0.0467  0.2828 -0.2016
10570W        W27044  14.268   8.678  12.638 -0.2236 -0.1645 -0.0058
10571W        W27045   7.027  14.616  11.903  0.0644 -0.0295 -0.0708
10572W        W27046   0.948   5.473   2.575  0.0575  0.3593 -0.1003
10573W        W27047   4.996   5.160   2.392 -0.3592  0.2576 -0.0945
10574W        W27048   7.567  11.525   0.691 -0.0856 -0.2865 -0.2204
10575W        W27049   1.674   2.056   5.450 -0.1190  0.2338  0.2358
10576W        W27050   4.088   7.995  12.873 -0.0509 -0.3456 -0.3586
10577W        W27051   5.521   7.337   3.200 -0.1049 -0.4677  0.0317
10578W        W27052  12.682   1.683   1.037  0.2331 -0.1793 -0.3413
10579W        W27053   8.712   8.804  12.188  0.2038 -0.2300 -0.0596
10580W        W27054  15.019   5.355   1.892 -0.1061  0.1699 -0.1553
10581W        W27055  18.467  16.085  13.675  0.0722  0.1208 -0.1290
10582W        W27056  18.121  16.642  12.512 -0.0960  0.1708 -0.2771
10583W        W27057  14.926   3.931  11.650  0.1731 -0.0563  0.1272
10584W        W27058  10.862   3.303   3.292 -0.0208 -0.1818 -0.0988
10585W        W27059   4.829  10.975   1.151  0.2163 -0.2828 -0.2205
10586W        W27060  16.249   7.686  12.810 -0.1371 -0.2466  0.0629
10587W        W27061   1.976   8.404   5.474  0.0621  0.1286 -0.0266
10588W        W27062   8.102   2.673   2.554 -0.0004 -0.1578  0.3105
10589W        W27063   6.864   0.744   2.078 -0.0971  0.1465  0.0955
10590W        W27064   5.661   0.578   2.790  0.0118  0.1739 -0.1073
10591W        W27065   1.975   5.865  13.517 -0.1166 -0.0972 -0.0754
10592W        W27066  16.939   1.260  12.235  0.2144  0.1815 -0.1782
10593W        W27067   7.231  12.294  11.031  0.5056  0.1895  0.2086
10594W        W27068   3.429   8.254   9.594 -0.1309 -0.0669  0.0736
10595W        W27069   5.069   5.275   4.949  0.2208 -0.1570  0.3143
10596W        W27070  17.974  11.636   4.574 -0.0569  0.2392  0.1707
10597W        W27071   3.556   8.583   2.323 -0.3558  0.1108 -0.0406
10598W        W27072  14.832  10.275   5.539 -0.1603 -0.2257  0.3497
10599W        W27073   3.541  12.233   3.620 -0.2913  0.0970  0.2940
10600W        W27074  15.527  15.319  14.186  0.0318 -0.1070  0.2591
10601W        W27075  13.546  17.001   4.985  0.1056 -0.1059 -0.2941
10602W        W27076  12.011  10.731   3.867 -0.0294  0.0092  0.2168
10603W        W27077  12.638   4.473  13.333 -0.1635  0.0271  0.2625
10604W        W27078   4.023   9.041  11.114  0.1113  0.0329  0.1459
10605W        W27079  11.618   0.134  10.891 -0.0460 -0.0061 -0.1403
10606W        W27080   9.584   4.074  10.579 -0.1349 -0.2143 -0.0893
10607W        W27081  18.274  14.894   5.612 -0.0864 -0.1879 -0.1346
10608W        W27082  11.006   3.400  11.292  0.0869 -0.1442 -0.2528
10609W        W27083   9.092   2.048  11.018  0.1478  0.1848  0.1290
10610W        W27084  15.076   7.895   0.440 -0.1115  0.2439  0.2214
10611W        W27085   0.319  11.846   3.104 -0.3473  0.2452 -0.0681
10612W        W27086   3.754   0.071  10.722  0.1992  0.0054 -0.1650
10613W        W27087  10.975   5.067   5.063 -0.4058 -0.2669 -0.2487
10614W        W27088   4.677   6.761   0.009  0.2084  0.3221  0.1595
10615W        W27089   1.801   2.202  14.375  0.1310 -0.0087 -0.1195
10616W        W27090   0.911  10.772  15.678 -0.0506 -0.1540  0.3651
10617W        W27091  11.349   7.215  13.205  0.0535 -0.0284 -0.1944
10618W        W27092  11.347   6.159   2.400  0.2588  0.2304 -0.1212
10619W        W27093  15.148  14.462   4.199 -0.1920  0.0173  0.2356
10620W        W27094   5.012   8.535   3.847  0.0143  0.1623 -0.0243
10621W        W27095   3.973   9.472   1.839  0.0825 -0.2074  0.1889
10622W        W27096   5.955  10.024   0.819  0.1487 -0.0430  0.1070
10623W        W27097   2.495   6.477  14.025  0.0117  0.3655 -0.0867
10624W        W27098   4.453  11.833   1.276  0.1216  0.1149 -0.1240
10625W        W27099   9.269  11.283  11.506  0.3355  0.0932  0.0864
10626W        W27100  17.274   2.203  13.203  0.1332 -0.1681  0.1262
10627W        W27101  10.170   9.740  13.807 -0.1395  0.2148 -0.0226
10628W        W27102  10.636   8.223   1.389  0.2255 -0.2881 -0.0093
10629W        W27103  13.494  13.992  13.415 -0.2083  0.1242  0.0756
10630W        W27104   6.311   3.475   3.851  0.1535 -0.2819 -0.1838
10631W        W27105   1.616   4.609  14.042 -0.0795 -0.2109  0.3459
10632W        W27106  14.600  16.259   2.552  0.1475  0.0861  0.0906
10633W        W27107   6.074   8.718   5.916 -0.0792  0.1456 -0.2569
10634W        W27108   8.337   5.221   5.364  0.2674  0.0740 -0.1337
10635W        W27109  16.617   2.412   0.575 -0.1481 -0.0136  0.0881
10636W        W27110  14.659   4.234   5.731  0.0274  0.2208  0.0974
10637W        W27111  12.509   1.867  12.781 -0.1146  0.3654 -0.1429
10638W        W27112  11.408   1.074  11.275  0.4555 -0.0766 -0.0686
10639W        W27113   1.349  13.425   0.801  0.3752 -0.0530 -0.0279
10640W        W27114   5.965   2.069   4.589 -0.0096  0.1717 -0.0137
10641W        W27115   4.462  10.537  13.573 -0.0246 -0.0418 -0.2659
10642W        W27116   0.081  12.798  13.488  0.1276  0.1883 -0.0604
10643W        W27117  13.951   4.032   3.500 -0.0679 -0.1030 -0.2159
10644W        W27118  13.407   5.909   1.817 -0.2898 -0.1934 -0.0475
10645W        W27119   1.479   3.703  11.499 -0.4007 -0.0025 -0.1610
10646W        W27120  16.129  14.766   2.327  0.1638  0.0878 -0.0139
10647W        W27121   3.009   5.004   4.091  0.0783 -0.0246 -0.3098
10648W        W27122  15.833   0.658   1.322 -0.0192  0.1977 -0.0083
10649W        W27123  17.241  13.119  12.337  0.1454  0.2249 -0.0246
10650W        W27124   6.230  16.042  11.871 -0.2332 -0.1150  0.1180
10651W        W27125  14.911  12.767   5.050  0.1023 -0.2155  0.0847
10652W        W27126   5.394  15.349  15.736  0.0358 -0.2443  0.2721
10653W        W27127   5.860   6.053   1.925  0.0378  0.0167  0.5493
10654W        W27128   9.331  18.116  14.293 -0.1091  0.3146  0.1492
10655W        W27129  15.657   4.611   4.862 -0.2980  0.1042  0.2938
10656W        W27130   4.449   0.319   4.235 -0.2753 -0.0097  0.1563
10657W        W27131   2.314   6.393  14.466 -0.2272 -0.1128 -0.1817
10658W        W27132   0.841   8.461  13.699 -0.0118 -0.1419 -0.0518
10659W        W27133  15.308  13.130  14.454 -0.0030 -0.2722 -0.0268
10660W        W27134   2.079  10.022   1.539 -0.2186  0.0907 -0.2315
10661W        W27135   5.416   9.718   2.424 -0.2810  0.2132  0.0579
10662W        W27136   0.393   4.343   2.514  0.0235 -0.0775  0.1795
10663W        W27137  10.435   5.854  15.931 -0.4357 -0.1685  0.2596
10664W        W27138  17.600   7.859  15.675  0.3271  0.2455  0.0974
10665W        W27139   1.147  17.552  12.703 -0.0691  0.2334  0.0064
10666W        W27140   1.933  14.089  14.565  0.2790  0.0780 -0.2262
10667W        W27141   9.414  10.412   1.430  0.0156  0.2450  0.0919
10668W        W27142  12.117   1.087   4.238  0.1304 -0.0417  0.1269
10669W        W27143   3.185  16.847  13.836 -0.0325 -0.0473 -0.0556
10670W        W27144  14.389   0.712   1.607 -0.1129  0.1705  0.0429
10671W        W27145  11.390   7.135   0.959  0.0332 -0.2758  0.2938
10672W        W27146  13.481   3.086  12.000  0.1256  0.0543 -0.0422
10673W        W27147   5.437  11.179  10.639  0.0269 -0.0114 -0.0879
10674W        W27148   3.781  12.768  11.476  0.1620 -0.2901  0.0147
10675W        W27149  10.618   1.338  11.177 -0.1949  0.0427  0.1526
10676W        W27150  10.428   2.321  15.556  0.1145  0.0101 -0.1551
10677W        W27151   8.850   9.655   4.953 -0.0264  0.2835  0.1297
10678W        W27152   8.111   0.583   2.649 -0.1063 -0.0080  0.3055
10679W        W27153  10.619   6.758  12.935  0.0778  0.0917 -0.2209
10680W        W27154   2.055   4.497   4.406 -0.1970 -0.1245 -0.1803
10681W        W27155  11.772  13.118   5.822 -0.1724 -0.3439  0.2748
10682W        W27156   1.060   2.486   4.787  0.0547  0.1896 -0.2168
10683W        W27157  15.941  14.469   2.844  0.3277 -0.1911  0.1947
10684W        W27158   6.161  16.390   3.037 -0.2122 -0.0423  0.2182
10685W        W27159  16.785   8.717  13.792  0.0337  0.1653  0.3577
10686W        W27160  10.912   9.593   4.267 -0.1425 -0.2446 -0.2270
10687W        W27161   1.024  11.168  12.659  0.1396 -0.2878  0.3176
10688W        W27162  15.974   7.331   1.577 -0.1838 -0.0080 -0.3211
10689W        W27163   1.415   1.390   0.110  0.0834 -0.0888  0.2297
10690W        W27164  11.301  17.212   3.987 -0.0071  0.2597  0.0800
10691W        W27165  16.782  17.333  13.001 -0.1409  0.0172 -0.0314
10692W        W27166   0.012   3.993  14.330  0.0226  0.4750  0.1926
10693W        W27167   3.361   7.800   1.294  0.0937 -0.2272 -0.1103
10694W        W27168   3.271   4.495   5.893 -0.2182 -0.2480 -0.3516
10695W        W27169  10.689   4.704   2.371  0.0005 -0.0254  0.0473
10696W        W27170   2.117   6.615   1.000 -0.2325  0.1179 -0.2254
10697W        W27171   0.257   3.850  13.577  0.0784 -0.1080  0.2992
10698W        W27172  17.956  13.234  14.868 -0.0477  0.2804 -0.2368
10699W        W27173  15.891   0.140  11.048  0.3008 -0.0740 -0.0440
10700W        W27174  12.886  14.415  15.017 -0.2266 -0.2471 -0.1649
10701W        W27175  10.520  10.629   3.295  0.0571  0.1327 -0.0534
10702W        W27176   6.405   2.518   3.857 -0.1186 -0.3239  0.3134
10703W        W27177  17.226   3.057   4.173 -0.1526  0.1060 -0.0113
10704W        W27178   2.845  17.496  14.576  0.1155  0.0126  0.4232
10705W        W27179  14.876   9.590   4.834  0.2625  0.3519 -0.1812
10706W        W27180   9.485  15.982  12.070 -0.2531 -0.0510 -0.0819
10707W        W27181   5.801   0.454  12.857 -0.1677 -0.0159  0.0944
10708W        W27182   0.183   0.549  14.435 -0.1521  0.2315  0.1993
10709W        W27183   3.670   3.220  11.749 -0.2095 -0.5044  0.0769
10710W        W27184   0.231  16.392   5.003  0.0660 -0.1819  0.2096
10711W        W27185  13.972   2.509   4.512 -0.0721 -0.1507  0.1954
10712W        W27186  17.391  14.225   2.440 -0.2386  0.2538 -0.2377
10713W        W27187  14.611  14.776  11.783  0.0157  0.0707 -0.2546
10714W        W27188   9.725   4.934   2.249 -0.0592  0.0231 -0.1684
10715W        W27189   9.607  10.440   4.242 -0.0198 -0.0140 -0.1187
10716W        W27190  14.331  16.218  14.556 -0.0781  0.1207 -0.0273
10717W        W27191   6.804  15.940  11.380  0.0813  0.2120  0.0073
10718W        W27192  11.801  14.113  14.409 -0.1757 -0.0654 -0.0659
10719W        W27193   6.802  12.487  14.749  0.0007 -0.0584  0.2494
10720W        W27194  14.577  12.543  15.825  0.0103  0.2490 -0.0447
10721W        W27195  13.563   3.587   0.753  0.1377  0.0059  0.0318
10722W        W27196  17.472   9.666   2.917  0.1022 -0.1424  0.0132
10723W        W27197  12.575  13.843   5.649 -0.1066 -0.1095  0.0137
10724W        W27198   8.685  15.177  12.883  0.0357  0.0203 -0.0398
10725W        W27199   7.382  13.730   3.946 -0.0970 -0.1272 -0.1717
10726W        W27200  11.179   7.716   3.875  0.2545  0.1230  0.0913
10727W        W27201  11.382   4.679   1.701 -0.1075  0.0062 -0.0585
10728W        W27202   9.407   0.212   3.574 -0.1487 -0.0217  0.1748
10729W        W27203   2.049   8.101  12.420 -0.1449 -0.0593 -0.1646
10730W        W27204  14.127   1.082   1.378 -0.0940 -0.4387 -0.0499
10731W        W27205   1.797   1.455   5.408 -0.1495 -0.1263 -0.1305
10732W        W27206   3.791  10.307   3.994  0.0955  0.0598  0.2555
10733W        W27207   6.262  10.345   3.862 -0.1812 -0.0549 -0.2917
10734W        W27208  15.198  10.408  13.013  0.3979 -0.4216  0.1268
10735W        W27209   3.729   1.453   4.324  0.0932 -0.1910  0.1769
10736W        W27210  16.717   7.704   2.111 -0.2313  0.1528  0.2939
10737W        W27211   7.485  15.460  14.277  0.2984 -0.0995  0.0176
10738W        W27212  14.745  13.147   3.410  0.0026  0.1171 -0.0675
10739W        W27213   7.752   0.778  11.205 -0.2652  0.1530 -0.2726
10740W        W27214   8.655  14.373  12.346  0.0124 -0.1326  0.1769
10741W        W27215  14.439  11.425  14.174  0.1344  0.0526 -0.1128
10742W        W27216  11.374  13.648   5.680  0.2277 -0.1873  0.1186
10743W        W27217   3.785   8.617   3.278 -0.2235  0.1656 -0.0076
10744W        W27218  16.386   6.499  13.774  0.0536 -0.0158  0.2385
10745W        W27219  11.089   7.168   4.721 -0.2471 -0.1583  0.1535
10746W        W27220   0.232  15.651   3.299  0.0040 -0.0681 -0.1162
10747W        W27221   8.037  15.742   1.358  0.2489  0.1547  0.2954
10748W        W27222   3.440   4.528  15.074 -0.1581 -0.0762 -0.0940
10749W        W27223   5.180   8.754   3.393 -0.2384  0.1343 -0.0681
10750W        W27224   3.455   3.438   1.965 -0.1287 -0.0926  0.0470
10751W        W27225  16.903   3.379   2.369  0.2923 -0.3598 -0.0066
10752W        W27226   4.473  14.044  14.507  0.1748 -0.1343  0.0865
10753W        W27227  12.928   0.724   1.168  0.0984  0.1207 -0.0072
10754W        W27228  11.567   1.291   0.523  0.2148  0.0185 -0.1051
10755W        W27229  15.704  18.100   0.581  0.3065  0.0807  0.0752
10756W        W27230   6.697   2.601  15.424 -0.0832 -0.0529  0.0463
10757W        W27231  10.481  17.835   1.609  0.0686  0.0641 -0.0379
10758W        W27232   0.216   2.951  11.694 -0.1447 -0.0141  0.1267
10759W        W27233   8.092   6.703  13.073  0.0546  0.1582  0.1943
10760W        W27234  10.490   9.843   5.485  0.0269  0.0910  0.2374
10761W        W27235   0.859   8.473   2.730  0.0118 -0.4684 -0.0977
10762W        W27236   4.279  11.580   3.585 -0.0342  0.1463 -0.1025
10763W        W27237  18.263   7.632   5.282  0.0734 -0.1559 -0.1400
10764W        W27238   2.497   2.436   0.844 -0.1048 -0.0227 -0.0743
10765W        W27239   8.250   6.991   0.752 -0.1359 -0.0600  0.0607
10766W        W27240   3.842   5.034   0.883  0.2464 -0.0668 -0.0008
10767W        W27241   0.013   8.366   3.968  0.1383  0.1703 -0.0290
10768W        W27242  10.574  17.560   1.126  0.2224  0.0419 -0.0761
10769W        W27243   3.312   5.355  13.490 -0.0897 -0.2869 -0.0682
10770W        W27244  14.409   8.972   3.025  0.1966 -0.1532 -0.3073
10771W        W27245  10.303  18.046   2.057  0.2104 -0.1494 -0.0234
10772W        W27246  18.479   4.509  13.391  0.3558  0.1978 -0.3690
10773W        W27247  14.104   0.174   4.196  0.1390  0.0358 -0.0986
10774W        W27248  17.260   5.968   4.717 -0.0693 -0.0492  0.2781
10775W        W27249   1.881   9.774  12.862  0.1874  0.0641  0.2065
10776W        W27250  15.364   7.090   2.915 -0.1792  0.1495 -0.1029
10777W        W27251  12.448  12.456   5.611  0.0953  0.2460  0.0048
10778W        W27252   7.166  16.936   4.026 -0.1977 -0.0281 -0.1750
10779W        W27253  13.973   7.811   4.213  0.0099 -0.0072 -0.0381
10780W        W27254   8.074  13.486  13.667 -0.2255  0.2394 -0.0034
10781W        W27255  12.554  13.172  14.458  0.0289 -0.0881  0.1701
10782W        W27256  13.282  11.739  14.911  0.1173 -0.1991 -0.1130
10783W        W27257  17.530  15.007  14.625 -0.2685 -0.1836  0.2566
10784W        W27258  17.434   3.535  12.774 -0.0288  0.1406 -0.1169
10785W        W27259  15.071  14.410   0.647 -0.0378 -0.2960 -0.1636
10786W        W27260   8.880  13.227  14.111 -0.3907  0.3002 -0.1403
10787W        W27261   4.923   7.234  15.250 -0.0846 -0.2975 -0.2001
10788W        W27262  11.712   6.108   5.333 -0.0544 -0.2394 -0.0706
10789W        W27263  16.042   9.541   0.593 -0.2358 -0.1909  0.3232
10790W        W27264  13.511   8.296   3.127  0.0984  0.0340 -0.2690
10791W        W27265   1.695   5.145   3.415 -0.2983  0.0350 -0.1858
10792W        W27266  11.054  11.927   3.120  0.0293  0.0480  0.2052
10793W        W27267   1.780   2.637   0.297  0.1278 -0.2093 -0.1569
10794W        W27268  17.999  14.727   2.599  0.3005 -0.3034  0.0545
10795W        W27269   7.720  14.225  12.461 -0.4059 -0.2027  0.2423
10796W        W27270   5.796   1.858  11.085 -0.1421 -0.1493  0.2097
10797W        W27271  15.349  11.335  14.246  0.0913 -0.3726  0.0133
10798W        W27272  10.456   9.700   1.121  0.3305 -0.0785  0.0090
10799W        W27273  17.644   8.610  14.844  0.4969 -0.2554 -0.2205
10800W        W27274  13.366  13.613  12.422 -0.3134 -0.1376  0.0537
10801W        W27275  15.572   1.026  14.022 -0.1439  0.4503 -0.2134
10802W        W27276  12.800   3.479  13.781  0.2166  0.2157  0.2337
10803W        W27277   4.212   5.358  14.440 -0.0409 -0.3296 -0.0666
10804W        W27278  10.320   8.137   2.805  0.0956 -0.0837 -0.1488
10805W        W27279   0.296   9.941   1.588 -0.3373 -0.1546 -0.0773
10806W        W27280   1.180   2.522   1.598 -0.3399  0.0532 -0.2640
10807W        W27281   6.832   2.363   4.670  0.3813  0.0729  0.1694
10808W        W27282  15.167  10.230  12.151  0.0637 -0.0410 -0.0584
10809W        W27283  11.871  17.813   1.942  0.1144 -0.3540 -0.0653
10810W        W27284  13.552   9.096  12.956  0.1757 -0.3657 -0.2839
10811W        W27285   2.416  11.628  15.033  0.0747 -0.1895  0.0734
10812W        W27286  18.381   8.796  13.004 -0.0628  0.5507  0.0423
10813W        W27287   8.509  12.244   5.962 -0.2671 -0.0483  0.1068
10814W        W27288   3.905   3.750   2.753 -0.0624 -0.1594 -0.0700
10815W        W27289  12.012   0.551   2.760 -0.1519 -0.1840  0.2726
10816W        W27290   5.353   1.890   0.136 -0.1718 -0.3665  0.0667
10817W        W27291   3.791   4.017   4.147 -0.1417  0.1132 -0.0483
10818W        W27292  15.111  16.803   4.797  0.0038  0.0410 -0.0927
10819W        W27293  15.152   3.517   2.872  0.1030 -0.0679  0.0609
10820W        W27294   6.971   9.240  14.980 -0.1185 -0.2018 -0.1999
10821W        W27295  16.402   5.500   4.688  0.0005 -0.2024  0.1436
10822W        W27296  17.592  17.171   1.427 -0.1896  0.0840 -0.1773
10823W        W27297   4.659   1.650   3.781  0.2016  0.2026 -0.1257
10824W        W27298   3.838   7.274  14.807  0.0210  0.0146  0.2328
10825W        W27299  16.500  15.772  11.708  0.2486  0.4229 -0.1977
10826W        W27300   1.200  14.842   1.306  0.0934  0.0233  0.1012
10827W        W27301  15.397   9.198   2.328 -0.3942 -0.0154  0.1350
10828W        W27302  15.455  18.064   3.028 -0.1037  0.1827 -0.0395
10829W        W27303   1.356  13.251   5.231 -0.0705  0.0901  0.1353
10830W        W27304   8.728   2.854   0.257 -0.2767  0.1345  0.0686
10831W        W27305   2.681   7.304  14.097 -0.1465 -0.1112 -0.0150
10832W        W27306   5.815  16.989   0.223 -0.4251 -0.1943  0.2821
10833W        W27307   2.337  12.434  14.908 -0.3975 -0.2040 -0.0273
10834W        W27308   1.694  13.886  11.645  0.0597 -0.0239  0.2663
10835W        W27309  14.709  11.151   4.453 -0.0733  0.0145 -0.1175
10836W        W27310   1.082  17.304  15.850  0.2271  0.0550 -0.0700
10837W        W27311  18.251  13.585  15.068  0.1129  0.1472  0.0838
10838W        W27312  13.433   8.531  15.311 -0.1404 -0.2965  0.0680
10839W        W27313  18.102   2.043   2.727  0.0630 -0.0755 -0.1570
10840W        W27314   8.463   1.062   2.014 -0.1952  0.0953  0.0671
10841W        W27315   7.525   1.785  13.729 -0.0226 -0.1755  0.0383
10842W        W27316  17.322   9.050   4.500  0.1320 -0.0625 -0.1217
10843W        W27317  12.274  13.869   2.649  0.1636 -0.0524 -0.1010
10844W        W27318   1.503   5.122   0.972  0.1181 -0.2763  0.0372
10845W        W27319  14.014   3.938   5.907 -0.1362 -0.3785 -0.0542
10846W        W27320   5.602   6.502   2.580 -0.1835  0.0381 -0.0733
10847W        W27321   4.005   2.957   3.285 -0.0387 -0.1411  0.1121
10848W        W27322  14.854  18.121  15.197 -0.0061  0.2503 -0.2434
10849W        W27323   6.894   7.827  14.972  0.4669 -0.1945 -0.1205
10850W        W27324  11.502   1.653   2.591  0.0825  0.2451 -0.0100
10851W        W27325  15.680  12.221  13.140 -0.1163  0.1245 -0.1757
10852W        W27326   6.363   9.615   3.051  0.2673 -0.1637  0.1847
10853W        W27327   4.171   2.139  12.205 -0.2178 -0.1924 -0.1953
10854W        W27328  10.810  14.765   1.307 -0.1287  0.0741 -0.1021
10855W        W27329   3.644   9.774   4.837 -0.0922  0.1101 -0.1162
10856W        W27330   1.101   9.514   3.431 -0.1625  0.1297  0.1003
10857W        W27331  14.396  10.053  13.939 -0.0789  0.3745  0.0508
10858W        W27332  18.388  12.754   3.346 -0.4126 -0.3246  0.1115
10859W        W27333  12.550   5.691  11.344  0.2860  0.0339  0.1772
10860W        W27334   9.044  17.882  10.405  0.0332  0.0709  0.1044
10861W        W27335   4.907   6.057  12.950 -0.1719  0.2182  0.1315
10862W        W27336   1.774   8.094  15.731  0.0385 -0.0786 -0.4491
10863W        W27337  13.162   0.485   4.576  0.0294  0.2235  0.1493
10864W        W27338  16.723  16.966  12.637  0.3375  0.1352  0.3366
10865W        W27339   2.965   1.366  14.797  0.0496 -0.1180 -0.1980
10866W        W27340   3.142  13.457   2.296 -0.1962  0.3937  0.0811
10867W        W27341   7.114  16.643   1.281  0.1431 -0.2255  0.1839
10868W        W27342   5.420  14.367   1.355 -0.0024  0.0827  0.0708
10869W        W27343   8.233  13.936  13.492  0.0452  0.1997  0.0971
10870W        W27344   7.447   5.364   1.015 -0.3530 -0.0144 -0.0071
10871W        W27345  13.005   0.397   2.579 -0.0335  0.0702  0.1829
10872W        W27346   1.740  13.636  14.630  0.2723 -0.0866 -0.1122
10873W        W27347   9.559   0.112  13.615  0.2392 -0.2651 -0.0195
10874W        W27348   1.986   8.718  14.464  0.2871  0.1833  0.1521
10875W        W27349   9.637   0.447   2.338  0.1663  0.0728  0.2446
10876W        W27350   3.376  12.342   2.298  0.1270  0.2058 -0.1593
10877W        W27351  14.375   7.394   1.053 -0.0273  0.0583  0.0691
10878W        W27352   7.450  11.111   0.971 -0.0268  0.0771 -0.2037
10879W        W27353  12.009  12.123   1.129  0.1142 -0.0208 -0.1082
10880W        W27354   2.352   3.107   4.592  0.0494 -0.2608 -0.1010
10881W        W27355   9.805  18.058  11.250  0.2260  0.2276 -0.0462
10882W        W27356   8.756   4.201   5.332  0.2705 -0.5049  0.0604
10883W        W27357   1.058  11.162   1.119 -0.0060 -0.2055 -0.1896
10884W        W27358   2.297  18.207  11.499  0.1142 -0.0811  0.0299
10885W        W27359   5.515   9.197  13.928 -0.0694  0.2027 -0.0388
10886W        W27360   9.675   5.248  12.312 -0.1254  0.0264 -0.1480
10887W        W27361   9.426   7.974  11.795  0.1219 -0.0595 -0.0531
10888W        W27362  12.490   1.025   1.149 -0.0268  0.1067 -0.2708
10889W        W27363   5.476   3.051  15.371 -0.0933 -0.1579  0.0161
10890W        W27364  13.177  16.741  13.007 -0.3175 -0.0362 -0.2812
10891W        W27365  13.113   5.971   4.993 -0.1203 -0.3251 -0.2608
10892W        W27366   7.802   4.298   0.150  0.1837  0.1875 -0.0723
10893W        W27367   1.014   8.179  10.981 -0.0454  0.1082 -0.0229
10894W        W27368   4.449  13.968   1.272  0.1690 -0.0622  0.1610
10895W        W27369   8.902  13.155  11.626  0.1419  0.0666  0.0812
10896W        W27370  15.911   2.450  11.585 -0.2205  0.0535 -0.1397
10897W        W27371  15.791   5.154  11.382 -0.0248 -0.2405 -0.0900
10898W        W27372   2.014  12.434   1.588 -0.3720  0.1164  0.1242
10899W        W27373   9.577  15.038  15.939 -0.0119 -0.1398 -0.0035
10900W        W27374  18.477  10.770  13.165 -0.1551 -0.3627  0.1266
10901W        W27375   6.784   9.608  11.379 -0.0153 -0.1726  0.3881
10902W        W27376   6.907   1.381   4.766  0.0640  0.1027 -0.1028
10903W        W27377   7.197  11.467  12.495  0.1046  0.1312  0.0392
10904W        W27378  15.104  16.559  12.988  0.0539 -0.0251 -0.1871
10905W        W27379  16.030  12.974  13.767  0.0647 -0.3211 -0.1032
10906W        W27380   2.914   5.723   4.512  0.1689 -0.2258 -0.1914
10907W        W27381   1.337   3.511   5.021  0.2214  0.1065 -0.1633
10908W        W27382   0.792  13.976  11.724 -0.2177 -0.0540  0.1426
10909W        W27383   6.344  17.131   3.896 -0.1195  0.0800  0.0134
10910W        W27384  16.264   8.302  13.212  0.2546 -0.1402 -0.2034
10911W        W27385  15.382   6.419  10.925 -0.0745 -0.0900 -0.2575
10912W        W27386   5.831  14.600   2.270 -0.0085  0.1704  0.1635
10913W        W27387  17.307   7.258   3.056  0.0475  0.0118  0.2209
10914W        W27388  16.213   0.033  13.327 -0.0427  0.0752  0.2622
10915W        W27389  10.630   6.929  13.366 -0.1220  0.2017 -0.0198
10916W        W27390   7.504   2.618   1.632  0.0741  0.1332 -0.0626
10917W        W27391   5.856  15.955   1.433 -0.0049  0.0920  0.0067
10918W        W27392  14.607   9.730   0.207 -0.1992 -0.0015 -0.3650
10919W        W27393   6.082  10.607  13.957 -0.0676  0.0234  0.0288
10920W        W27394  10.127   7.840   3.758 -0.1939 -0.1236  0.1043
10921W        W27395   2.625  13.953  13.256 -0.0227 -0.1947  0.0142
10922W        W27396  17.128   2.081  14.011  0.3294 -0.1204 -0.1867
10923W        W27397  13.012  14.433   4.250 -0.0861 -0.1783  0.0013
10924W        W27398  11.366  10.827   4.006  0.0008 -0.1509 -0.2211
10925W        W27399  13.353   9.711   0.306 -0.2941 -0.1674 -0.1082
10926W        W27400  15.900   7.860  13.314  0.0467  0.0750  0.0134
10927W        W27401   8.635   6.637   0.695 -0.3982 -0.0603  0.0391
10928W        W27402   3.167  18.474  14.314 -0.2069 -0.2494  0.0469
10929W        W27403   2.170  17.071   3.722 -0.2162  0.3532  0.1978
10930W        W27404  13.995   6.808   3.777 -0.1497  0.1084 -0.1636
10931W        W27405   0.484   3.217   2.582  0.2576  0.0340  0.2668
10932W        W27406   7.972  17.252   4.540  0.1241 -0.0147 -0.3050
10933W        W27407  18.148  15.321   1.341  0.1465  0.2335 -0.1458
10934W        W27408   9.595  12.666  14.338  0.1648  0.0001 -0.0192
10935W        W27409  12.322   7.254   2.869 -0.0132  0.1333  0.0803
10936W        W27410  14.842  14.312  12.816  0.0119  0.3202 -0.0063
10937W        W27411   5.465   3.654   1.556  0.2122 -0.0314  0.0940
10938W        W27412  11.005   4.401   2.677  0.0402  0.2948 -0.2045
10939W        W27413  13.220   2.876  11.014 -0.0370  0.1004  0.3543
10940W        W27414  15.220   1.524   1.360  0.0277 -0.3170 -0.4377
10941W        W27415  14.841   5.276  14.293  0.0988  0.0114 -0.0373
10942W        W27416  18.318   4.179   5.888  0.0790 -0.0698  0.0446
10943W        W27417  12.796   3.283   3.837  0.1546 -0.0231  0.1768
10944W        W27418   6.011   4.677  14.090  0.1495  0.2895 -0.0267
10945W        W27419  12.350   5.995   2.744 -0.1431  0.2623  0.2237
10946W        W27420   0.357   4.066   4.331  0.2685  0.2010  0.1397
10947W        W27421   2.603  11.337   2.428  0.0791  0.0414  0.0134
10948W        W27422   9.421   3.114  12.187  0.2478  0.0226 -0.1814
10949W        W27423   4.610  18.040   3.214 -0.0729 -0.0894  0.2291
10950W        W27424  10.929   8.695   2.276  0.1233 -0.1873  0.0376
10951W        W27425  12.617  12.107  12.391  0.1147 -0.0899 -0.0528
10952W        W27426  16.483  15.652   3.421  0.0520  0.0130  0.0543
10953W        W27427   8.120  13.868  12.455  0.2068  0.2299  0.0953
10954W        W27428   9.817   3.586   1.677  0.2014  0.3267  0.0206
10955W        W27429   2.095  12.308   2.096  0.1830 -0.0372 -0.0799
10956W        W27430   1.007   2.425  11.795  0.2719  0.1069  0.2190
10957W        W27431   3.976  16.663  14.416  0.0798 -0.3306  0.0601
10958W        W27432   6.508   9.138   0.056  0.2792 -0.2115  0.1927
10959W        W27433  16.561   5.969  15.628 -0.0529  0.1468 -0.0213
10960W        W27434  10.294  10.922   3.639 -0.1272 -0.0267 -0.1316
10961W        W27435  16.342   3.803  11.474  0.0753  0.3333 -0.1561
10962W        W27436   2.690   6.689   2.034 -0.2664 -0.3156  0.0854
10963W        W27437  16.661  17.102  12.145  0.1530  0.1509  0.1904
10964W        W27438   8.040   0.577   0.620 -0.2193  0.1925 -0.1197
10965W        W27439  17.130  15.845  12.092 -0.1661  0.0957 -0.0026
10966W        W27440   6.878  17.925   5.208 -0.0990  0.1348  0.0945
10967W        W27441  11.205  18.439   0.612 -0.2598  0.1183 -0.0292
10968W        W27442   7.764   4.148  14.191 -0.0013 -0.1864 -0.0267
10969W        W27443  14.262  16.717  15.858  0.1585 -0.1971  0.2821
10970W        W27444   8.545   1.447   5.170 -0.0287 -0.1114  0.4116
10971W        W27445   1.154   2.282  15.620  0.0598 -0.3011 -0.3673
10972W        W27446   3.922  11.222  13.374 -0.0902  0.2521 -0.0399
10973W        W27447   7.453  15.029   0.891 -0.0216 -0.0065 -0.1244
10974W        W27448  11.286   5.361  15.008  0.0558 -0.1145  0.2798
10975W        W27449   7.344   6.683  14.250 -0.0601 -0.0398 -0.0579
10976W        W27450  13.596   6.503  12.798  0.1882 -0.3478  0.0834
10977W        W27451   6.299  11.070   0.492 -0.0897  0.2099  0.1047
10978W        W27452  15.060   8.211   2.072 -0.3979 -0.0080  0.4034
10979W        W27453   4.957  10.871   0.596 -0.2641 -0.2574  0.0530
10980W        W27454  17.994  12.615  14.191  0.0003 -0.2856  0.0275
10981W        W27455  16.936  15.067   2.070  0.2483 -0.2012  0.4180
10982W        W27456   9.144  13.077  13.699  0.3729 -0.4277 -0.0897
10983W        W27457   7.199   6.169  15.549  0.0955  0.1403  0.0269
10984W        W27458   3.737  16.400   2.987  0.1712 -0.2739 -0.1421
10985W        W27459   5.358   7.616  14.215 -0.1070  0.1630 -0.3397
10986W        W27460  12.254   2.209   1.653 -0.1048 -0.1003  0.2081
10987W        W27461   6.882   5.458   2.491 -0.3588  0.1068  0.0282
10988W        W27462  16.254  16.889   0.436  0.2992  0.2099  0.0449
10989W        W27463   0.296  14.420  10.966 -0.1212 -0.0916  0.0779
10990W        W27464  16.961   2.139  12.794  0.2805  0.1567  0.0906
10991W        W27465  16.198   1.024  12.349  0.2064  0.3296 -0.0717
10992W        W27466   1.233   9.894   0.962 -0.0541  0.1333  0.0085
10993W        W27467  17.822   8.553  14.326 -0.0055 -0.1578 -0.0711
10994W        W27468  13.155   9.602  14.512  0.0140 -0.1805 -0.2217
10995W        W27469   9.964   5.794  13.723  0.0926  0.2750  0.0915
10996W        W27470  11.269  16.681  15.617  0.2708  0.1758  0.1329
10997W        W27471   3.787   8.603   5.139  0.1883  0.2004 -0.0756
10998W        W27472  11.048  16.663  14.716 -0.1947 -0.2306 -0.0489
10999W        W27473  16.142   6.903  13.688 -0.0673 -0.1153  0.1925
11000W        W27474   9.426   0.765   3.643 -0.3095  0.2113 -0.1143
11001W        W27475  15.126   4.987  15.265  0.1734 -0.2849 -0.0240
11002W        W27476   9.380   5.513  13.360 -0.0767  0.0484 -0.0887
11003W        W27477   6.013  17.386   4.729  0.0726  0.0746 -0.4661
11004W        W27478  15.349  16.751   2.067  0.1892  0.1295 -0.0466
11005W        W27479   6.256   0.985   4.174 -0.0097  0.1577 -0.0699
11006W        W27480   8.191   1.844   2.484 -0.0067  0.2526  0.2222
11007W        W27481  13.993   4.798   4.468  0.1269  0.4075  0.0872
11008W        W27482   7.343  14.556  12.496  0.0826  0.1281  0.0493
11009W        W27483  10.543  16.572  14.990  0.1157 -0.1562 -0.0070
11010W        W27484  11.920  11.155   0.491  0.1770 -0.0814 -0.1734
11011W        W27485  18.132   3.542   2.461  0.1359  0.3337  0.0245
11012W        W27486  16.300  15.611  12.249 -0.1567  0.0598 -0.1804
11013W        W27487   4.673  13.575   0.092 -0.1314 -0.3424 -0.2728
11014W        W27488  14.738   7.938  14.965 -0.4534  0.2957 -0.2857
11015W        W27489   1.480   9.288   1.370 -0.1989 -0.1877  0.0102
11016W        W27490  12.112   7.273   3.796 -0.0425  0.2634  0.0416
11017W        W27491   8.237   7.393   5.629  0.0072 -0.1329  0.1677
11018W        W27492   9.196   6.896  13.526  0.2793 -0.1827  0.4666
11019W        W27493  17.914  14.509   1.349  0.0698 -0.0523 -0.1289
11020W        W27494  15.381   3.052   1.068 -0.1846  0.2658  0.3862
11021W        W27495   6.091   3.217   6.078 -0.0080  0.1313 -0.1628
11022W        W27496  13.775   4.472   3.488  0.2742  0.1223 -0.2799
11023W        W27497  11.829   4.477   1.762  0.0584  0.2129  0.0075
11024W        W27498  14.457  14.562  15.749 -0.2747  0.1299 -0.0273
11025W        W27499   5.796   3.467  13.867 -0.0083 -0.0720  0.2158
11026W        W27500  16.735  13.061   0.772  0.0469 -0.1459 -0.0497
11027W        W27501   0.032   4.077  12.172  0.3804  0.0883  0.0167
11028W        W27502   9.149  10.688   4.629  0.1658  0.5086 -0.0289
11029W        W27503   1.171  18.103   2.501 -0.3226  0.1187  0.0598
11030W        W27504  14.042  16.795   4.105  0.1998  0.0036  0.0465
11031W        W27505  11.726   9.792   0.873 -0.1499 -0.1946 -0.0872
11032W        W27506  14.280  12.785   4.072 -0.0320 -0.0806 -0.2518
11033W        W27507   2.821  10.977  12.059 -0.0325 -0.1147  0.1657
11034W        W27508  10.128   0.751   4.690 -0.5336 -0.0420  0.3805
11035W        W27509  14.435  16.236   0.070  0.1029  0.1833  0.0531
11036W        W27510  18.477  13.218  12.099 -0.0386 -0.1017 -0.1545
11037W        W27511   6.006  11.502  11.719 -0.3218  0.1536  0.0960
11038W        W27512  10.602   3.291  15.111  0.3162 -0.0138 -0.2751
11039W        W27513   7.371  11.005   0.491  0.1095 -0.1288  0.3310
11040W        W27514   9.441   6.696  11.527 -0.1481  0.1999 -0.0697
11041W        W27515   5.453   8.323   0.223  0.0797  0.2375  0.0148
11042W        W27516  13.782  10.694  11.989  0.0796  0.1014 -0.1804
11043W        W27517  11.927  15.116   4.406  0.0359 -0.2814 -0.2669
11044W        W27518  18.418   3.928   2.506  0.0542 -0.0946 -0.0654
11045W        W27519  17.312  18.251   1.630 -0.0592  0.1042  0.2066
11046W        W27520   4.223   0.573  14.920  0.1525  0.0861 -0.0841
11047W        W27521   4.632  17.270  15.558  0.0633 -0.2093 -0.0840
11048W        W27522   8.388   0.779  11.251  0.3228  0.3148  0.2841
11049W        W27523   9.939   8.713  15.296 -0.0730  0.1835 -0.0363
11050W        W27524   6.577   5.093   0.879 -0.0240  0.3128  0.1341
11051W        W27525  16.676  14.066  11.470  0.1844 -0.0539 -0.2022
11052W        W27526   0.712   8.771   5.250 -0.4710  0.0661  0.0290
11053W        W27527  17.461  17.106   4.867  0.0955 -0.2493  0.1686
11054W        W27528  10.331  17.964   4.298  0.1849  0.2807 -0.0097
11055W        W27529  11.650   5.399   3.367 -0.0106  0.1678  0.0270
11056W        W27530   2.627  15.074   1.439 -0.6907  0.1271 -0.1023
11057W        W27531  11.335   7.976  14.648 -0.0266 -0.0781 -0.1196
11058W        W27532  18.347   7.297  12.562 -0.0820  0.2481  0.2742
11059W        W27533   8.168  14.439  13.602 -0.1843 -0.0022 -0.0793
11060W        W27534  13.842   3.967  15.708 -0.1099 -0.0200  0.1415
11061W        W27535   2.016   8.731  15.096 -0.3479  0.0635  0.0811
11062W        W27536  17.517  15.196  11.150 -0.1011  0.1904  0.0417
11063W        W27537  11.248  16.269  12.865  0.0474 -0.0994 -0.0406
11064W        W27538  17.004  16.853   4.827  0.0600 -0.0256 -0.0453
11065W        W27539   7.591  18.341  14.735 -0.0491 -0.0491 -0.4058
11066W        W27540   4.647   6.145  12.558 -0.1651  0.0047  0.0651
11067W        W27541  11.388  15.082  12.480 -0.3263 -0.1811 -0.3744
11068W        W27542   3.429   3.205   5.230 -0.2383  0.1254  0.1224
11069W        W27543  16.553   1.376  14.499 -0.0363 -0.1442 -0.0758
11070W        W27544  14.811  18.405  14.665 -0.0047 -0.2365 -0.0836
11071W        W27545  11.839  10.429   4.591 -0.2034  0.1473  0.0195
11072W        W27546  10.670   9.458  11.415  0.0796 -0.0714 -0.2119
11073W        W27547  15.658   8.232   4.914 -0.2436  0.3038  0.0701
11074W        W27548  13.640   5.947   3.365 -0.2655 -0.1522  0.1799
11075W        W27549  11.166   0.838  12.131  0.0638  0.1851  0.2748
11076W        W27550  11.118   5.578   1.520 -0.0157  0.1192  0.0438
11077W        W27551  14.757   3.140   2.158  0.2024  0.1544  0.0986
11078W        W27552   2.610   8.987  15.338  0.0233 -0.1062 -0.2185
11079W        W27553   9.173   6.213   0.548  0.0640 -0.1178 -0.2498
11080W        W27554  12.633  10.437   4.089 -0.1753  0.1512  0.1988
11081W        W27555  11.831   3.639  15.009  0.1179  0.3533  0.3474
11082W        W27556   1.183  16.850  14.114 -0.2428  0.0757 -0.0595
11083W        W27557   8.831   9.996  15.105  0.1748  0.2779  0.2376
11084W        W27558  18.109  13.209   5.376 -0.0699 -0.0737  0.2274
11085W        W27559   5.172   8.620   2.867  0.1757 -0.0737 -0.1226
11086W        W27560   5.566  12.581   2.522 -0.1679  0.0980 -0.3806
11087W        W27561  18.477  16.534   0.471 -0.2963 -0.2910  0.2939
11088W        W27562   3.160   7.169  14.296 -0.2722 -0.2882 -0.0950
11089W        W27563  11.526   6.242   3.395 -0.2959  0.0928 -0.1426
11090W        W27564   7.708   4.803   3.469 -0.0408 -0.0574  0.0615
11091W        W27565   0.639  10.549  11.958 -0.0461 -0.2684  0.2868
11092W        W27566   7.611  12.832  13.196 -0.1817  0.2058 -0.0046
11093W        W27567  14.564  15.907  11.819  0.0244  0.0727  0.0273
11094W        W27568   8.087   1.296   1.099  0.0021  0.2684  0.0798
11095W        W27569   3.174   9.357  14.081  0.0193 -0.0397 -0.2787
11096W        W27570  17.805   2.115  13.417 -0.2051  0.1423 -0.2961
11097W        W27571  14.130  10.397  15.736  0.0455 -0.2604 -0.0901
11098W        W27572  11.282   5.245   0.658  0.1234 -0.1711 -0.0260
11099W        W27573   5.094  14.702   3.927 -0.0683 -0.2437  0.2300
11100W        W27574   8.003   1.975   4.673 -0.0937 -0.0374  0.1613
11101W        W27575  15.370   4.342  10.447 -0.0516 -0.1543 -0.0030
11102W        W27576  15.876   7.992   4.494  0.0107  0.1736 -0.1320
11103W        W27577  15.308  16.195  14.097  0.1114 -0.3526  0.2441
11104W        W27578   1.773  11.410   6.253 -0.0172 -0.0039  0.1272
11105W        W27579   8.094  14.964  13.484 -0.1821 -0.1165 -0.2851
11106W        W27580   2.385  15.199   3.696  0.0541 -0.0441 -0.0390
11107W        W27581  11.971  16.815   5.143 -0.1131  0.1369  0.3720
11108W        W27582   5.632   8.594  10.803  0.1377  0.0416  0.0356
11109W        W27583   7.318  10.701  11.337 -0.0142  0.0656 -0.0080
11110W        W27584  13.321   4.177  14.065 -0.1305 -0.0408 -0.0090
11111W        W27585   0.887  14.326   4.652  0.5406  0.1635  0.1768
11112W        W27586  15.181   5.904   0.271 -0.1722 -0.3667 -0.1991
11113W        W27587  10.888  11.219   1.838 -0.1402 -0.0030 -0.3249
11114W        W27588   1.046  10.533  14.681 -0.0559  0.1339  0.0218
11115W        W27589  17.571  17.259   3.925  0.1350 -0.0647  0.0212
11116W        W27590   9.350   1.885   2.264 -0.3394 -0.0304  0.1930
11117W        W27591  10.330  17.780  15.955  0.2177 -0.2501  0.2443
11118W        W27592  15.653  16.686  13.806 -0.0318 -0.4820  0.1278
11119W        W27593   8.636   1.385   1.678  0.1262 -0.0362  0.0992
11120W        W27594   7.467   8.359   4.193 -0.0794 -0.5647 -0.1524
11121W        W27595  16.783  17.308   2.700 -0.1439  0.1123 -0.1543
11122W        W27596   4.225  14.935  13.331  0.2279  0.1267  0.0202
11123W        W27597   0.432   1.124   4.256  0.1723  0.0884 -0.1656
11124W        W27598  11.528   9.666  13.619 -0.1750 -0.1052  0.0626
11125W        W27599   1.126  15.691  11.841  0.0173 -0.0095  0.0742
11126W        W27600  17.610  16.958   0.083  0.0761 -0.0318 -0.1910
11127W        W27601  10.202   3.318  11.078 -0.0521 -0.2091  0.2471
11128W        W27602   4.707   8.821   3.561 -0.1221  0.2787 -0.0097
11129W        W27603  17.424   2.409  11.326  0.0004  0.1443  0.0514
11130W        W27604   3.504  16.415   4.916  0.2309  0.0416 -0.1542
11131W        W27605  14.239  10.626   4.921 -0.0611 -0.2158 -0.3770
11132W        W27606  15.817   0.366  15.453 -0.0187 -0.1948  0.1000
11133W        W27607   5.521   6.220  15.796 -0.1348  0.2043 -0.1021
11134W        W27608  15.545  10.360  11.699  0.1462  0.2028 -0.1137
11135W        W27609  11.774   9.163   1.022 -0.2448 -0.0705 -0.0551
11136W        W27610   5.430  10.796   4.012  0.0612  0.1582  0.2362
11137W        W27611   7.686   2.861  10.828 -0.3793  0.0539  0.1839
11138W        W27612   3.676  11.657   1.540  0.0648 -0.0554 -0.0913
11139W        W27613  16.618   8.559   1.407  0.0995 -0.3187  0.3099
11140W        W27614  16.928   9.627   0.763  0.0495 -0.1325 -0.0006
11141W        W27615   6.023  14.217  11.979  0.1654 -0.1310  0.3324
11142W        W27616  14.123  15.601   2.352 -0.1504 -0.0692 -0.3643
11143W        W27617  15.019  17.106   0.209  0.1658  0.2391 -0.0628
11144W        W27618   9.217   7.571  15.429  0.0590 -0.2107  0.1893
11145W        W27619   0.872   7.661   3.913  0.2542 -0.0844 -0.1862
11146W        W27620  10.728  13.010   1.754 -0.1297 -0.1269  0.0807
11147W        W27621   1.703   6.851  15.780 -0.0510  0.0365 -0.0134
11148W        W27622   2.764  17.511   1.433  0.0775  0.2537 -0.1061
11149W        W27623  18.030  15.070  15.683 -0.1739 -0.1257  0.1586
11150W        W27624   7.330  18.418   1.606  0.0343 -0.0957 -0.0981
11151W        W27625  15.612   6.003  14.801  0.1854  0.0639 -0.1435
11152W        W27626   2.098   3.639  12.090 -0.0464 -0.2255  0.2311
11153W        W27627  13.630   9.954  13.711 -0.2242 -0.0053 -0.0241
11154W        W27628  17.019  15.495  15.182  0.2014  0.1422  0.1835
11155W        W27629   5.949   6.371  14.895 -0.1807  0.3029  0.2571
11156W        W27630   0.616  10.254   3.204 -0.0509  0.1086 -0.0732
11157W        W27631   1.065  15.184   5.895  0.2263 -0.1490 -0.0293
11158W        W27632  12.308   1.102  11.720 -0.0332  0.2325 -0.0782
11159W        W27633   1.811  13.566   5.965  0.3135  0.0509  0.0806
11160W        W27634   4.046   2.799  13.794 -0.0825 -0.2437  0.1272
11161W        W27635  13.184   0.189  15.137 -0.2718 -0.3395 -0.1137
11162W        W27636  18.098   8.406   3.439 -0.0297 -0.1724  0.0037
11163W        W27637  17.645   5.298   1.965 -0.0188 -0.1599 -0.0926
11164W        W27638  12.644   5.027   0.343 -0.0124  0.0084  0.0203
11165W        W27639  17.356   6.873   1.192 -0.2450 -0.3564 -0.1519
11166W        W27640   9.079  10.416  12.723 -0.0429 -0.0586 -0.0773
11167W        W27641  10.638   9.989   4.420  0.1247  0.0289 -0.0736
11168W        W27642   1.309  12.755  15.598 -0.0747  0.0134 -0.0908
11169W        W27643   1.768   3.851  15.752 -0.1952  0.0629 -0.0688
11170W        W27644  17.789  15.773  15.051  0.1881  0.3063 -0.2711
11171W        W27645  11.351  17.682  12.726 -0.3753 -0.0306 -0.2177
11172W        W27646   1.511  10.800   5.337 -0.0199 -0.0735 -0.1129
11173W        W27647   3.609   0.579  12.532  0.0027 -0.0535 -0.0173
11174W        W27648  16.223  13.284  11.954 -0.1151  0.1585 -0.0238
11175W        W27649   6.311  16.517  11.990 -0.1516 -0.0307 -0.1527
11176W        W27650   7.914   8.916   4.900  0.2354 -0.0040  0.2179
11177W        W27651   2.446  10.137  14.284 -0.1618 -0.1611 -0.1237
11178W        W27652   9.269   9.428   5.621 -0.4289 -0.2432 -0.2534
11179W        W27653  17.654  15.147   2.535  0.3265 -0.1406  0.0938
11180W        W27654  14.329   8.738  14.101 -0.0901  0.0931  0.0791
11181W        W27655   8.735  17.864   1.307 -0.0373 -0.0813  0.0936
11182W        W27656  17.313   2.309   1.349  0.1511 -0.0316  0.1581
11183W        W27657   4.840  11.768  12.816  0.1159 -0.1409 -0.0700
11184W        W27658  17.131  17.702   2.740  0.1245  0.0783  0.0739
11185W        W27659  15.804  10.259  14.405 -0.0858  0.3272 -0.1601
11186W        W27660   4.374  10.027  12.098 -0.1507 -0.0677  0.1367
11187W        W27661   6.819  11.039   1.948  0.0140 -0.1993  0.1062
11188W        W27662   7.072   6.736   2.955 -0.2448  0.3206 -0.1082
11189W        W27663   5.364   2.568  12.413 -0.2376 -0.0004 -0.1832
11190W        W27664   5.209   8.047   0.934  0.0458 -0.1992  0.1913
11191W        W27665   9.997  12.166  11.461 -0.0977 -0.3204  0.1135
11192W        W27666  14.122  16.740  14.269  0.0794 -0.1084 -0.3450
11193W        W27667   9.422   6.851   1.990 -0.0979 -0.2196 -0.1571
11194W        W27668   5.221   5.648   2.420  0.3543 -0.0867  0.1526
11195W        W27669   0.705  11.573  11.096  0.0771 -0.0322  0.0613
11196W        W27670  10.503   9.884  15.407 -0.1645  0.1974 -0.2562
11197W        W27671   4.907   4.708   1.173  0.1090 -0.1225  0.0903
11198W        W27672   0.099   0.575   3.595  0.1284  0.0028 -0.1852
11199W        W27673   8.719   6.628  14.666 -0.0203  0.1160  0.0262
11200W        W27674  12.248  11.525  12.497 -0.0798  0.4848 -0.0857
11201W        W27675   1.291   4.015  15.004 -0.0717  0.0143  0.3015
11202W        W27676   9.648   1.171  12.079 -0.3557 -0.1277 -0.0162
11203W        W27677   3.753  11.882  13.445  0.1781  0.0428  0.0769
11204W        W27678  14.299  15.561  13.776  0.0876  0.3757 -0.0124
11205W        W27679   2.411  15.732  15.288 -0.0708 -0.1223  0.0906
11206W        W27680   4.178   9.334  11.582 -0.1809  0.1877  0.0725
11207W        W27681   0.621   9.869  12.083  0.1365  0.0182 -0.1838
11208W        W27682   0.950   7.099   1.574 -0.1045  0.2879  0.2076
11209W        W27683  18.023   1.768   2.212 -0.1726 -0.0274 -0.1480
11210W        W27684  13.083   4.099   2.379 -0.0408 -0.1268 -0.2306
11211W        W27685   7.793   6.133   0.791 -0.0138 -0.0202 -0.2889
11212W        W27686  13.494  12.253   0.210  0.0673 -0.2372 -0.3195
11213W        W27687   0.533   3.020  11.242 -0.4519  0.1730 -0.0106
11214W        W27688  17.792  10.593  12.351  0.0959 -0.1412 -0.2363
11215W        W27689  17.946  14.836   3.937 -0.0128  0.0268 -0.1743
11216W        W27690  16.048   4.206   4.917 -0.1092  0.0465 -0.1730
11217W        W27691  12.258  11.759  11.278 -0.0951 -0.2519  0.0956
11218W        W27692  15.372  15.416  13.506 -0.3583 -0.0488 -0.0524
11219W        W27693   1.548   9.365  11.560  0.3146 -0.0292  0.0211
11220W        W27694  10.665   5.409  13.189  0.0747 -0.0094  0.0692
11221W        W27695   8.358  11.004  12.927 -0.2173  0.2173 -0.1929
11222W        W27696   3.471  11.352  13.178 -0.2165 -0.0783  0.0805
11223W        W27697   1.115   7.763  10.723  0.0546 -0.1585  0.0376
11224W        W27698  15.371   4.972  12.605  0.0493 -0.2517  0.1072
11225W        W27699  11.791   7.936   4.139  0.0752 -0.0235  0.2243
11226W        W27700   2.108  18.292  10.572 -0.1160  0.0693  0.1137
11227W        W27701  12.542   5.215   4.707 -0.1116  0.0185  0.0386
11228W        W27702   6.119  17.147   1.765 -0.0916 -0.1808 -0.0897
11229W        W27703   5.525  15.078   0.549 -0.0392 -0.1462 -0.1010
11230W        W27704   3.624   9.400  11.876 -0.2123  0.0453 -0.0954
11231W        W27705  13.246  16.230  11.600 -0.1789  0.3499  0.2937
11232W        W27706   9.892  14.590   4.530  0.0518 -0.1865 -0.1490
11233W        W27707  13.899  14.565  10.862  0.1561  0.1623  0.1128
11234W        W27708   0.392   1.373  12.576 -0.0105  0.0943 -0.2971
11235W        W27709   9.765  13.239   4.464 -0.2254 -0.1000 -0.1964
11236W        W27710   3.892  11.292  13.955  0.0079 -0.1007  0.0355
11237W        W27711   1.031  16.151  15.187 -0.2921  0.0489 -0.2378
11238W        W27712  16.471   2.258  12.746  0.0100 -0.2395  0.0284
11239W        W27713  13.836   8.031  13.909 -0.4783 -0.0570 -0.0438
11240W        W27714   9.586   2.174  11.122 -0.0200 -0.1556  0.0287
11241W        W27715  12.541  13.396   0.124 -0.1693  0.2158  0.1793
11242W        W27716   3.254  17.767   0.580  0.2014  0.1864 -0.1951
11243W        W27717  12.258  11.263  13.090  0.0960  0.0674  0.4969
11244W        W27718   8.803   8.537  14.083 -0.1466 -0.0032  0.0228
11245W        W27719   9.073  11.697   4.650  0.0224  0.0803 -0.0662
11246W        W27720  15.039   5.229  11.849  0.0180 -0.1480 -0.0024
11247W        W27721   2.972   8.223  15.279  0.0392  0.2096 -0.1109
11248W        W27722   4.267  18.177  14.784  0.0321  0.3681 -0.2185
11249W        W27723   2.415   3.828   3.621 -0.0968 -0.1738  0.0186
11250W        W27724  17.806   8.139  15.143 -0.0097  0.2223 -0.2453
11251W        W27725   9.974  11.661  14.242  0.2366  0.0841  0.1563
11252W        W27726  17.393  16.372   0.816  0.0038  0.2750  0.0210
11253W        W27727   4.663   6.485  15.568  0.0129  0.0659 -0.0250
11254W        W27728  16.089  12.437  10.385  0.0442  0.0356 -0.1340
11255W        W27729  18.353   9.301  12.074 -0.2987  0.0166 -0.1143
11256W        W27730   2.537   3.265   2.895 -0.0489  0.1182  0.0134
11257W        W27731  15.149  13.077  15.562  0.2783 -0.3940  0.0214
11258W        W27732  14.210  14.013   3.960 -0.0748 -0.0210  0.0896
11259W        W27733  12.723   1.453  11.967 -0.1033 -0.1175 -0.1975
11260W        W27734  10.680   7.811  13.073 -0.0421 -0.0646  0.0820
11261W        W27735  16.927   9.459   2.320  0.0985  0.0646  0.1701
11262W        W27736  16.737  16.892   3.054 -0.0275 -0.0882 -0.1371
11263W        W27737   8.285   3.318  12.250 -0.0836 -0.1573 -0.2122
11264W        W27738  18.384  14.295  13.479  0.0317 -0.1087 -0.1356
11265W        W27739  14.400   7.804   5.224 -0.0346 -0.3138 -0.1657
11266W        W27740   5.129   8.375   2.474  0.0750  0.1769  0.1068
11267W        W27741   6.010   5.215   4.741  0.1430 -0.0830  0.0885
11268W        W27742  11.067   7.932   0.694 -0.1012  0.1624 -0.0557
11269W        W27743   4.153  14.156  14.971  0.1324 -0.2194 -0.0423
11270W        W27744   0.818   6.355   3.693 -0.0745  0.0971 -0.0279
11271W        W27745  18.323   4.517  11.911 -0.0058 -0.0258 -0.2594
11272W        W27746  12.677  18.361   2.527  0.0762  0.3885 -0.0423
11273W        W27747   1.158   6.089   4.548  0.1790 -0.2556  0.0729
11274W        W27748   6.848   0.496  12.561 -0.0656  0.1800 -0.0697
11275W        W27749  16.969   4.501  12.426  0.0166  0.0114 -0.1966
11276W        W27750   8.782   5.057   5.596  0.1089  0.0312  0.0549
11277W        W27751  16.768   2.359   3.574  0.1098 -0.1337 -0.2487
11278W        W27752  16.377   6.124   5.849  0.2761 -0.1932  0.1226
11279W        W27753   7.283   1.154  11.086 -0.0327 -0.0074 -0.0599
11280W        W27754   2.976   5.520  10.606  0.2615  0.0944  0.2872
11281W        W27755   5.605   4.571  12.823  0.0988 -0.0045 -0.1949
11282W        W27756   0.516   6.311   0.003  0.1267 -0.1571 -0.0978
11283W        W27757  12.237   2.579  13.070  0.0347  0.0605 -0.1166
11284W        W27758  15.434   8.298   3.578  0.0574  0.0037  0.2107
11285W        W27759  15.447  18.126  11.114 -0.0419  0.0660  0.2392
11286W        W27760  16.966   5.299   5.836 -0.0811 -0.0983 -0.2487
11287W        W27761   1.632   1.838   3.013 -0.0339 -0.0002  0.0228
11288W        W27762   6.074   1.174  11.125  0.2090 -0.1537 -0.1008
11289W        W27763  17.541   6.171   4.171 -0.1245  0.2563  0.1921
11290W        W27764   7.639   8.021  11.276 -0.2149 -0.1577 -0.5637
11291W        W27765  15.970   4.263   5.464 -0.2317  0.1277  0.0038
11292W        W27766   7.696   9.161  12.139  0.1494 -0.0965 -0.2065
11293W        W27767   6.970  11.209   3.249  0.1075  0.1090 -0.2223
11294W        W27768  14.691  10.565   1.992 -0.0950 -0.1665  0.0301
11295W        W27769  11.216   7.069   3.370  0.0770  0.2542  0.1619
11296W        W27770  13.952  13.571   4.802  0.2652  0.0744 -0.2158
11297W        W27771   0.839   5.528  15.708  0.0475 -0.0454  0.1098
11298W        W27772   7.869   0.131   5.940  0.0002 -0.0903 -0.1015
11299W        W27773  17.957   5.029   5.536  0.3191 -0.1541  0.1316
11300W        W27774   0.887  17.245   0.303 -0.1005 -0.0423 -0.2007
11301W        W27775   1.747  17.736   4.781  0.1742  0.1771 -0.0273
11302W        W27776  17.632   3.686  14.951  0.2857 -0.3724 -0.0925
11303W        W27777   9.827  18.141   6.049 -0.0243 -0.0643 -0.0004
11304W        W27778   6.768  15.125  13.311 -0.1450  0.0437 -0.1581
11305W        W27779  12.832   6.740  14.005  0.0962  0.3573  0.2740
11306W        W27780  15.235   3.253  15.916 -0.1170  0.1684 -0.0498
11307W        W27781   0.313   6.961  12.864  0.3134 -0.0787 -0.0900
11308W        W27782   4.127  10.577   4.994  0.2337 -0.0158 -0.1870
11309W        W27783  14.948   7.557   1.960  0.0978  0.2486  0.0329
11310W        W27784   1.379   6.471  14.550 -0.3030  0.0953 -0.1929
11311W        W27785   0.546   8.921  13.859  0.0607 -0.1610  0.1413
11312W        W27786  12.531   6.844   1.538  0.2135 -0.2298 -0.1209
11313W        W27787  16.819  10.386   2.279 -0.4206 -0.1421  0.1214
11314W        W27788   9.116   2.751   1.770  0.1050  0.0996 -0.0691
11315W        W27789  18.232  11.196  14.272  0.3362  0.0542  0.2010
11316W        W27790   5.096   6.866  14.667 -0.1264 -0.0203  0.1335
11317W        W27791  12.023   9.061  15.878 -0.3314  0.2019  0.0172
11318W        W27792  12.105   7.251   0.256 -0.2205  0.0107  0.1037
11319W        W27793  15.605  17.489  14.326 -0.3115  0.1738 -0.0144
11320W        W27794   1.534  12.301  14.007 -0.0951 -0.2832 -0.0308
11321W        W27795   2.983   2.850  15.185 -0.2950  0.1712  0.0329
11322W        W27796  14.960   5.143   2.668 -0.0857  0.2227 -0.2604
11323W        W27797   3.485   2.655   0.835 -0.2245  0.1740 -0.0415
11324W        W27798   2.533  17.003   1.620 -0.2072  0.0029  0.0868
11325W        W27799  11.833  15.308   3.680 -0.0075  0.0880 -0.2887
11326W        W27800   6.131  14.540  15.472  0.0323  0.4860  0.1838
11327W        W27801   6.895  12.641   1.189 -0.1304 -0.1169 -0.1582
11328W        W27802  11.578  14.800  12.886 -0.1415  0.0898 -0.2230
11329W        W27803   2.497  12.852  11.960  0.3284  0.1662 -0.1568
11330W        W27804  13.218   9.649  13.642 -0.1630  0.0533 -0.2198
11331W        W27805   1.997  13.739  14.194 -0.3037 -0.0219 -0.2226
11332W        W27806   3.443   5.161   5.749  0.2134 -0.0136 -0.1246
11333W        W27807   5.908   3.397  12.278  0.2124  0.0880  0.2541
11334W        W27808  17.724   7.758   5.198  0.2038 -0.0722  0.1373
11335W        W27809   5.063  11.994  12.048 -0.3284  0.1059 -0.1320
11336W        W27810  11.477  13.046   6.268 -0.0883 -0.1167  0.0171
11337W        W27811  10.433   8.683   1.339 -0.0483 -0.0138  0.2289
11338W        W27812  10.684  16.179   3.959 -0.0651 -0.0595  0.0433
11339W        W27813   4.875   1.200   1.208 -0.3809 -0.1291 -0.2695
11340W        W27814   4.900   8.549   5.673 -0.2733 -0.1666  0.0237
11341W        W27815   2.600  12.516   1.692  0.0265  0.0966 -0.1239
11342W        W27816   2.399   7.336   1.560 -0.0005  0.0406  0.2464
11343W        W27817   7.454   1.686  12.936 -0.0668  0.0626 -0.0142
11344W        W27818  14.126   0.963   3.258 -0.1259  0.2097  0.0566
11345W        W27819   0.460  13.542  11.992  0.1760  0.1832 -0.0177
11346W        W27820  11.584  16.394   0.062 -0.0128 -0.1461  0.1465
11347W        W27821  15.027   1.691  15.182  0.0596  0.1638 -0.1967
11348W        W27822  17.301   3.614   1.747  0.1273  0.0713  0.1301
11349W        W27823  10.923   1.719   4.274 -0.2210  0.2593  0.1646
11350W        W27824  13.126   2.501  15.272  0.2615 -0.0533 -0.0922
11351W        W27825   7.627   3.748  13.476  0.0538 -0.0233  0.0626
11352W        W27826  15.622   6.812   0.194 -0.0660 -0.0279  0.0665
11353W        W27827  13.620   7.219  14.965  0.2879 -0.1469 -0.1742
11354W        W27828  15.632   1.803  12.740 -0.0916  0.3735 -0.0111
11355W        W27829  11.875   7.671  15.479 -0.0108  0.1932 -0.2941
11356W        W27830  14.211  10.917   2.145 -0.0186 -0.0934  0.0479
11357W        W27831  10.446   7.470   3.543  0.0325 -0.1907  0.2749
11358W        W27832   9.924  14.216  15.875 -0.0956  0.0569 -0.3627
11359W        W27833  18.133  18.286   4.905  0.3521  0.0613 -0.0592
11360W        W27834  16.040   5.822  15.021 -0.1648  0.0461  0.1870
11361W        W27835   6.360   3.797  14.397  0.4700 -0.2012 -0.1923
11362W        W27836  11.318   1.919   4.460  0.0034  0.3106 -0.3467
11363W        W27837  10.306  15.001   1.972 -0.2561 -0.1536  0.1092
11364W        W27838   9.213  14.166   1.184  0.2404  0.5863 -0.0255
11365W        W27839   1.502  12.942   1.088 -0.1363 -0.0240  0.2000
11366W        W27840  18.292  17.408   6.479  0.4934  0.0585  0.0344
11367W        W27841  12.127   5.673  12.877 -0.0332  0.3025  0.1626
11368W        W27842   0.814   4.118  13.736 -0.1230  0.2279  0.0514
11369W        W27843  13.663  16.941   1.216  0.4194 -0.0753  0.0128
11370W        W27844   3.876  16.882   3.712 -0.0220 -0.1255 -0.1691
11371W        W27845  17.867   5.219  14.878  0.0141  0.2172 -0.1181
11372W        W27846   7.199  15.329   0.506 -0.3647  0.3422 -0.2570
11373W        W27847   5.437  11.100  13.831 -0.0104  0.1811  0.0424
11374W        W27848   8.173   8.914  11.098  0.2295 -0.0002 -0.1678
11375W        W27849   5.227  11.560   1.655 -0.1150 -0.0872 -0.0940
11376W        W27850   7.541   4.983   1.341  0.2586 -0.2239 -0.1316
11377W        W27851   3.186   4.948   3.218  0.2549  0.1457  0.1816
11378W        W27852  18.451   7.270  11.316 -0.1228  0.3728  0.1383
11379W        W27853   1.924   7.873  13.931  0.1771  0.2124 -0.2832
11380W        W27854  17.620  10.181  11.904 -0.1569 -0.3812  0.0671
11381W        W27855   9.191   2.776   1.299  0.0361 -0.0172 -0.0936
11382W        W27856   8.195   5.749  13.248  0.0227  0.1195 -0.5067
11383W        W27857   5.266  17.613  13.452  0.1740  0.1176  0.0398
11384W        W27858   6.459   8.313   4.345  0.2857 -0.0004  0.1715
11385W        W27859   8.758   8.652  13.481 -0.2652  0.1428  0.0929
11386W        W27860  14.069  14.162   0.673  0.3195 -0.2942  0.3749
11387W        W27861   9.753   7.634  11.699  0.2170  0.3686 -0.2457
11388W        W27862   8.567  16.494   0.664 -0.1392 -0.0121 -0.2452
11389W        W27863   5.813   5.918   3.147 -0.1093 -0.1413 -0.2868
11390W        W27864  17.639   1.586   5.178 -0.2180 -0.4165  0.2896
11391W        W27865  15.174  18.005  12.744  0.0818  0.4592 -0.0902
11392W        W27866  13.553  16.524   0.011  0.1069 -0.2935  0.1774
11393W        W27867   8.250   8.316   2.425 -0.2675  0.0202  0.0696
11394W        W27868  10.662   8.949  10.769 -0.0909 -0.1641 -0.1869
11395W        W27869   3.962  10.583  14.376 -0.1748 -0.0668  0.0451
11396W        W27870   7.321  17.608  14.210  0.3661  0.1822 -0.1284
11397W        W27871  16.599  18.243  12.044  0.4127 -0.3216  0.0477
11398W        W27872   9.761   2.869   5.284  0.2336  0.0083  0.3980
11399W        W27873  14.227  16.265   4.962 -0.3034  0.0259 -0.0297
11400W        W27874   4.341   3.032   2.447 -0.0712  0.2254 -0.0879
11401W        W27875   0.326  12.910  14.418 -0.0296 -0.1077  0.0766
11402W        W27876   3.240  10.402  12.777 -0.0031 -0.1891 -0.2710
11403W        W27877  10.163  17.334  13.428 -0.0042 -0.0039 -0.2026
11404W        W27878  16.514   0.259  13.745 -0.2029 -0.1120  0.0071
11405W        W27879  10.981  17.832  10.068  0.3968  0.1972 -0.1130
11406W        W27880   7.565   9.966   2.861 -0.1002  0.2686 -0.0757
11407W        W27881   1.984   3.061   0.175  0.0470  0.1456 -0.2276
11408W        W27882   3.887   9.813  10.363 -0.1424 -0.0107 -0.2127
11409W        W27883   2.857   2.287   1.390  0.3145 -0.0760  0.0599
11410W        W27884   1.513   2.792   3.733  0.0852  0.2265 -0.0250
11411W        W27885   4.438   1.433   3.297  0.1260 -0.1244 -0.1860
11412W        W27886   3.203  12.564   3.553  0.1075 -0.0072  0.2877
11413W        W27887  14.431  12.701   5.110 -0.1715 -0.0066 -0.0878
11414W        W27888   0.604   3.327  12.917  0.0357 -0.0833  0.0376
11415W        W27889   4.273   0.645   0.748 -0.1758  0.0461  0.1943
11416W        W27890   2.767   3.649   5.189  0.0775 -0.0544 -0.0238
11417W        W27891  11.034   2.489  15.637  0.3203 -0.0304  0.2090
11418W        W27892  11.962   1.763  13.352  0.0882  0.1749  0.3264
11419W        W27893  13.161  10.074  15.265 -0.1637 -0.3205 -0.0237
11420W        W27894   7.485  10.628   5.077  0.1523  0.2111  0.1624
11421W        W27895   1.528  13.193  15.856 -0.2908 -0.0694  0.0977
11422W        W27896  14.746  11.955  11.147 -0.4324 -0.1474 -0.1240
11423W        W27897   6.794  10.589  13.349  0.2239  0.0758  0.2099
11424W        W27898   4.006  15.987   2.760  0.3952  0.4142  0.1781
11425W        W27899  13.039  11.728   4.759  0.0177  0.2098 -0.1378
11426W        W27900   0.051   2.074  12.712  0.0506 -0.0527  0.2698
11427W        W27901  11.198   9.789   2.106 -0.1779 -0.0243  0.1792
11428W        W27902  13.043   7.400   0.481  0.1005  0.0203 -0.0899
11429W        W27903  14.721  16.422   4.831 -0.1795  0.1245  0.1081
11430W        W27904   4.357   4.336   2.582 -0.1360 -0.1817 -0.0834
11431W        W27905  12.296  11.984   6.026  0.1093  0.0268 -0.3377
11432W        W27906   2.314  17.207   0.734  0.0661 -0.0491 -0.1382
11433W        W27907   5.240   4.176  11.119  0.0951  0.0487 -0.1595
11434W        W27908  16.566   2.691   9.988 -0.1805  0.0324  0.0388
11435W        W27909  15.740   3.465  11.873  0.0175 -0.0410  0.1221
11436W        W27910   6.461   1.939   2.980 -0.1605 -0.1848 -0.2142
11437W        W27911  12.287   9.290   3.963  0.0770  0.0166  0.1107
11438W        W27912   2.660   0.888  13.140 -0.0081  0.1037 -0.2499
11439W        W27913   4.506   2.723   4.752  0.0927  0.2412  0.0958
11440W        W27914   7.368   0.953   2.706  0.1756 -0.3248 -0.1324
11441W        W27915   1.905  10.617   1.306  0.2165 -0.2243 -0.1356
11442W        W27916   5.263   2.293  11.932  0.1825  0.3821  0.2194
11443W        W27917  12.910   9.705  12.312  0.0676  0.0523 -0.0608
11444W        W27918   1.975   3.789  13.367 -0.1401  0.2323 -0.0523
11445W        W27919   2.459   2.653  13.752 -0.2043  0.1664 -0.1193
11446W        W27920   4.449   3.188   4.484  0.1556 -0.0871 -0.2375
11447W        W27921   8.802   9.626  13.212 -0.1092  0.3708  0.2350
11448W        W27922   1.796   0.872  14.926 -0.0038  0.0269  0.1687
11449W        W27923  10.165  17.343  15.873 -0.0174 -0.1306 -0.0015
11450W        W27924   4.061  15.808   1.072 -0.1736 -0.2754  0.0043
11451W        W27925   3.945  10.025  15.955  0.2268 -0.3568 -0.1864
11452W        W27926  17.881   6.499   4.317  0.2757 -0.2517 -0.2260
11453W        W27927  17.779  17.113  11.812  0.1624 -0.1344 -0.1775
11454W        W27928  11.873  17.713  10.930 -0.0622  0.0403 -0.0619
11455W        W27929  10.438   1.166   1.576  0.1164  0.2757  0.1167
11456W        W27930   0.123   5.450  15.403 -0.0723 -0.0297  0.0516
11457W        W27931   5.245   6.300  14.955  0.4809 -0.2964  0.5794
11458W        W27932   0.547   1.357  14.208 -0.0299 -0.0722 -0.1821
11459W        W27933  17.082  12.013   4.176 -0.1326 -0.0449  0.0001
11460W        W27934  14.061   1.496  12.653 -0.1309  0.0453  0.1334
11461W        W27935  14.917  11.300   5.371 -0.1391  0.2306  0.3245
11462W        W27936   0.765   7.063   0.149 -0.2965 -0.3750 -0.2316
11463W        W27937   2.175   1.178   1.313  0.0033 -0.1356  0.1146
11464W        W27938  16.234  18.025  10.388 -0.0024 -0.1737 -0.0019
11465W        W27939  18.478  15.499   0.694 -0.2240 -0.0561  0.0608
11466W        W27940  17.218   5.521  15.455 -0.1633  0.1278  0.2565
11467W        W27941  16.169   1.852  10.273  0.1419 -0.1510 -0.0789
11468W        W27942  15.595   7.147  12.051  0.2528 -0.1731  0.1948
11469W        W27943   4.643  12.040  15.571 -0.1976 -0.1533 -0.0562
11470W        W27944   5.532   7.855   3.294  0.2710 -0.1438 -0.1408
11471W        W27945  10.275   3.388   3.130  0.1903  0.1278 -0.1657
11472W        W27946  12.477  13.153   1.143  0.2067  0.0070 -0.2157
11473W        W27947  15.585  12.517   0.307 -0.1944 -0.1267  0.0286
11474W        W27948  16.238   8.267  11.708 -0.0584 -0.0220  0.0601
11475W        W27949   6.643   3.135   5.115  0.0282 -0.2121  0.1253
11476W        W27950  14.768   4.718   5.828  0.0143 -0.0338 -0.2723
11477W        W27951   2.567   9.213   1.808 -0.1008 -0.0620 -0.2372
11478W        W27952   4.072   6.303   4.881 -0.2164  0.2198  0.1843
11479W        W27953   9.633   0.007  11.447 -0.0941  0.2087  0.2845
11480W        W27954  10.232   9.752   1.636  0.1969  0.2112  0.0690
11481W        W27955   6.184  13.310   3.965 -0.2366  0.0057  0.1348
11482W        W27956   7.793  12.284   4.430  0.0803  0.0728  0.4940
11483W        W27957  14.766   1.460   2.635  0.0406 -0.1912  0.0601
11484W        W27958  10.901   4.973  12.049  0.3143  0.1679  0.0224
11485W        W27959   3.150   0.834   2.801  0.3573  0.3035 -0.1922
11486W        W27960   3.528  11.873   5.129  0.1118  0.0283  0.2282
11487W        W27961   2.850   5.651  13.625  0.2215  0.1399 -0.0239
11488W        W27962   3.110  14.058  14.425 -0.0115 -0.1205 -0.1652
11489W        W27963  16.349  16.969  14.999  0.0256 -0.2347  0.2795
11490W        W27964  10.618   5.924   2.994  0.1199 -0.0075 -0.0462
11491W        W27965  10.159  17.727   4.789 -0.3331 -0.2494  0.2935
11492W        W27966  18.098   1.547   5.382  0.0640  0.1388 -0.2574
11493W        W27967   7.885  13.450   1.905  0.0878  0.0018  0.5339
11494W        W27968  13.741   9.483   0.814  0.2644  0.1911 -0.1881
11495W        W27969  16.450   6.393  10.634 -0.0378 -0.1213  0.3192
11496W        W27970   8.056   2.355  12.922  0.0252  0.0520 -0.2481
11497W        W27971   5.665   5.602   2.126  0.0995 -0.0649  0.2937
11498W        W27972  13.715   2.679  13.200 -0.1328 -0.1551  0.1680
11499W        W27973   0.550  12.023   1.707  0.0494  0.4613  0.1305
11500W        W27974   4.213   7.056  14.521 -0.0984 -0.1485 -0.0082
11501W        W27975  17.591  11.003  11.593 -0.1434 -0.1889  0.0971
11502W        W27976  10.218  11.792  11.941  0.0026 -0.0440 -0.0127
11503W        W27977  14.902  13.587   5.222 -0.1441 -0.1507 -0.1570
11504W        W27978  14.811   5.752  14.145 -0.1432  0.0509  0.0971
11505W        W27979   8.979   2.989  13.613 -0.0724 -0.0223 -0.0495
11506W        W27980  11.788   9.367   1.672  0.0643 -0.0899  0.3709
11507W        W27981  18.129  17.572   1.852 -0.0081 -0.0729  0.0221
11508W        W27982   4.183   4.686   3.474  0.0282  0.3136  0.2140
11509W        W27983   0.041   1.358  14.019 -0.0463  0.1139 -0.0399
11510W        W27984   2.794   2.170   0.395 -0.1383  0.0309 -0.0542
11511W        W27985  14.533  13.660  15.232 -0.2250  0.0697 -0.1241
11512W        W27986   3.029  16.315  13.527 -0.0040 -0.0816 -0.0521
11513W        W27987   5.944  10.256   4.225  0.1555  0.0164  0.0240
11514W        W27988  15.683   0.093  13.437 -0.1981  0.0755 -0.0987
11515W        W27989   4.412   0.587   3.639 -0.1519  0.2458 -0.0444
11516W        W27990   1.864   1.103  15.953  0.0202  0.3052  0.1222
11517W        W27991  13.008  11.800  13.059 -0.1485  0.1356  0.0614
11518W        W27992  10.520  15.707  11.688 -0.2546 -0.3430  0.0601
11519W        W27993   3.526  14.736  13.382 -0.3573  0.0481 -0.3931
11520W        W27994  10.520  17.841  12.903  0.1702  0.0607  0.0620
11521W        W27995   7.105  18.345  14.460  0.1351  0.0985  0.1130
11522W        W27996   6.283  10.006  15.890  0.2633 -0.1651  0.3415
11523W        W27997   4.962   6.151   2.378  0.0986 -0.0102  0.2506
11524W        W27998   6.453   2.181   4.408 -0.1075  0.1932 -0.0541
11525W        W27999  10.131  15.718  15.309 -0.0847 -0.2137  0.0366
11526W        W28000  13.987  16.756  12.048  0.0543 -0.2100 -0.1307
11527W        W28001   1.533  11.417   2.783 -0.1296  0.0022 -0.1249
11528W        W28002   3.755  17.386  15.813  0.0503 -0.2428 -0.0488
11529W        W28003  10.693   8.624   4.025  0.2389  0.0909 -0.1175
11530W        W28004  11.889  13.521  13.679 -0.2792 -0.3265 -0.0108
11531W        W28005  16.111   1.349   4.037 -0.0957  0.0740 -0.0920
11532W        W28006   0.637   3.046  13.298 -0.1026  0.3371  0.1370
11533W        W28007   5.222  16.151  15.505 -0.2123  0.1219  0.1444
11534W        W28008   7.246   8.265   4.656  0.0331 -0.1767 -0.0610
11535W        W28009  15.653   9.041   0.133  0.1838 -0.0467  0.0267
11536W        W28010   5.542  10.400  13.230  0.2431  0.2795 -0.1856
11537W        W28011   8.066  12.867   0.114 -0.0716  0.4201  0.1307
11538W        W28012  14.995  11.637   2.773  0.1350  0.0025 -0.2819
11539W        W28013   5.529  14.453  14.379  0.3053 -0.0106 -0.0558
11540W        W28014   9.243   0.109  14.015 -0.2560  0.0208 -0.1879
11541W        W28015  15.067   1.088  12.260  0.0813 -0.2278 -0.1184
11542W        W28016  10.746  17.877  15.196 -0.2953 -0.5274  0.1390
11543W        W28017   3.900   7.929  15.612  0.2483  0.0150  0.2642
11544W        W28018   7.267   7.473  15.266 -0.1645 -0.0263  0.3545
11545W        W28019   1.459  16.268  13.264  0.1246 -0.1095 -0.0196
11546W        W28020   0.137   8.760  15.019  0.0011 -0.1381  0.0311
11547W        W28021   6.089   5.071  14.909  0.1712 -0.1535  0.2782
11548W        W28022   4.899   0.835  12.732  0.1195 -0.0369  0.1920
11549W        W28023   7.910   5.443  12.909 -0.0533  0.2024 -0.1431
11550W        W28024  15.099  18.380   2.027 -0.1664 -0.1887  0.1546
11551W        W28025   0.031  17.214  13.168  0.0043 -0.0646 -0.2838
11552W        W28026   5.221   4.120   2.407  0.2236  0.0381  0.0595
11553W        W28027   3.563   9.732   2.362 -0.0568 -0.2192  0.1994
11554W        W28028   1.595  10.035  14.551  0.1827 -0.1280  0.1902
11555W        W28029  14.173   8.751   0.983  0.0165 -0.1652 -0.0617
11556W        W28030   5.279   1.850   3.490  0.2102  0.1770  0.1797
11557W        W28031  17.553   3.585  13.327 -0.3660 -0.1636  0.0930
11558W        W28032   9.861   0.216  14.534  0.1904 -0.0992  0.0174
11559W        W28033   5.338   2.116  12.830 -0.0579 -0.2670 -0.2277
11560W        W28034  14.522   5.475   2.712 -0.6121 -0.0603  0.2279
11561W        W28035   6.922   5.279  13.259 -0.2302  0.1413 -0.0878
11562W        W28036  12.680   3.482   5.067  0.0201 -0.0450  0.0380
11563W        W28037  15.893  10.211   0.038 -0.1654 -0.1261 -0.0565
11564W        W28038  11.347   0.856   3.052 -0.0756 -0.1033 -0.0791
11565W        W28039  18.308  12.685  11.456 -0.1439 -0.1815  0.2929
11566W        W28040  11.201   5.711   3.779  0.3733  0.1784  0.1483
11567W        W28041   5.806   7.747   1.517 -0.2512 -0.4227  0.0054
11568W        W28042  12.358   5.702  12.260  0.0127  0.1854 -0.2223
11569W        W28043  16.160   9.015   0.460 -0.0536  0.2668  0.1646
11570W        W28044   2.579   0.084   5.024 -0.1739  0.0249 -0.0186
11571W        W28045   9.799   1.693  15.811 -0.0505  0.0710  0.1440
11572W        W28046   5.082  10.621   4.335  0.2486 -0.1617  0.1813
11573W        W28047  15.344   0.068  14.608  0.4265  0.0268 -0.2152
11574W        W28048   1.491   1.834   0.329 -0.1572 -0.1056 -0.1321
11575W        W28049  16.580  13.436  13.914  0.2786  0.0236 -0.2393
11576W        W28050  13.025  13.973  12.909  0.1177  0.0493 -0.1456
11577W        W28051  17.233   7.544  15.602 -0.1650 -0.1921 -0.1766
11578W        W28052   1.697  14.970   2.942  0.0712  0.1481 -0.2367
11579W        W28053   0.626  15.637   4.185  0.2113 -0.0410  0.0663
11580W        W28054  17.162  17.599  15.146 -0.0286 -0.1918 -0.2187
11581W        W28055   9.641  16.713   1.100 -0.0765 -0.3158  0.0771
11582W        W28056  16.056   3.337  11.240 -0.2627  0.1716  0.0885
11583W        W28057   4.262  11.810  15.970 -0.1504  0.1693 -0.1330
11584W        W28058   4.866   4.338   2.682 -0.0410  0.0647  0.1748
11585W        W28059   1.840   7.110   0.235  0.1792  0.0978 -0.1793
11586W        W28060   5.837  16.245  12.942 -0.2617  0.0333  0.1554
11587W        W28061   0.603  17.140  11.440 -0.0715 -0.2038 -0.0941
11588W        W28062   8.698  16.762   1.421 -0.2462  0.1317 -0.2786
11589W        W28063  16.456  14.487  11.533 -0.1089 -0.2739  0.0173
11590W        W28064  15.515  14.024  14.339 -0.1710  0.2696 -0.0040
11591W        W28065  12.772   7.760  11.530  0.0324  0.1479 -0.0628
11592W        W28066  15.855  10.756   0.900 -0.1756  0.0660 -0.1774
11593W        W28067   4.288   3.307   3.573 -0.1562  0.4187  0.1212
11594W        W28068  14.351  13.185  15.049 -0.2651 -0.2136  0.3110
11595W        W28069   7.539  11.980  15.216  0.1605 -0.0606  0.1384
11596W        W28070   5.482   8.172  13.398 -0.0779  0.1975 -0.2364
11597W        W28071  16.959   7.387  15.146 -0.2659 -0.2961  0.4229
11598W        W28072   0.237  10.220   1.120 -0.1933  0.0916 -0.0570
11599W        W28073  13.728   7.244   1.573  0.1199  0.1116  0.2377
11600W        W28074  18.450   0.981   2.942 -0.2260 -0.0490  0.5523
11601W        W28075  13.742  10.155  12.122 -0.0340 -0.2585 -0.1504
11602W        W28076   6.849   2.022  14.764 -0.1025 -0.0687 -0.4404
11603W        W28077  12.588   6.535  11.742  0.1239 -0.2559  0.1347
11604W        W28078   2.075   3.614   4.615  0.1411 -0.1535  0.1355
11605W        W28079  10.793  12.498   2.432  0.1375 -0.2158  0.2394
11606W        W28080   7.932   8.910   2.997 -0.3622  0.1479 -0.1960
11607W        W28081   1.875   7.707   2.491 -0.1697  0.2733 -0.2796
11608W        W28082   6.495   8.267   5.194 -0.1311  0.1954 -0.0367
11609W        W28083   7.957   8.768   2.506  0.2113 -0.0336 -0.0740
11610W        W28084   4.343   5.985   2.359  0.1717 -0.0951 -0.0659
11611W        W28085  14.507  15.047  15.844  0.2868 -0.2289  0.1395
11612W        W28086  17.320   6.290   0.241  0.2672  0.3337  0.2122
11613W        W28087   8.877   9.506  13.710 -0.1816 -0.0129  0.1318
11614W        W28088  14.263   1.001   0.313  0.1676 -0.2059 -0.4062
11615W        W28089  10.415  11.065  12.327  0.0961  0.0765  0.1944
11616W        W28090   6.307  16.128  13.745 -0.1946 -0.0098  0.1218
11617W        W28091  11.939   5.836   1.770 -0.1122  0.1466 -0.0914
11618W        W28092  14.903   8.425   2.521 -0.0672 -0.0183  0.3780
11619W        W28093   4.082   8.488   2.019  0.1903 -0.1790  0.0387
11620W        W28094   2.300  10.372  11.633 -0.1818 -0.0445  0.0577
11621W        W28095   4.656  18.048  14.469 -0.1302 -0.0257  0.3703
11622W        W28096  15.531  17.378   3.632 -0.1749  0.0215 -0.1282
11623W        W28097  11.130  18.466  14.250  0.0991  0.1170 -0.1332
11624W        W28098  14.167   7.588  11.507 -0.0384 -0.0064 -0.2486
11625W        W28099   7.009   1.096  14.540 -0.0208  0.2448  0.1806
11626W        W28100   7.039  13.942   3.167 -0.1084  0.1255  0.0400
11627W        W28101   7.106   5.071  12.841  0.1777  0.0480  0.1761
11628W        W28102  16.809   0.481   4.939 -0.0528 -0.0170  0.0273
11629W        W28103  14.602  15.008   3.470  0.3850  0.2940  0.3328
11630W        W28104   8.985   3.812  14.153 -0.1490  0.0934 -0.1025
11631W        W28105  14.678   5.243  11.526  0.1815 -0.1492  0.3173
11632W        W28106   3.446  16.780  12.276 -0.0905 -0.1960  0.4055
11633W        W28107   3.910   6.266   1.614 -0.1545 -0.0495 -0.3214
11634W        W28108  14.070   9.209  14.817 -0.1492 -0.1515 -0.0575
11635W        W28109   6.048  15.019   1.268  0.1631  0.1976  0.2230
11636W        W28110  15.546  10.863  15.162  0.2849  0.0123  0.0993
11637W        W28111  12.970   4.958  11.136  0.6554 -0.0819  0.1604
11638W        W28112   6.346   4.607  13.359 -0.1522  0.1087  0.4325
11639W        W28113   0.278  17.266  12.669 -0.0645  0.1713 -0.0348
11640W        W28114  10.242  10.412   3.678 -0.1029  0.1557  0.0093
11641W        W28115   7.055  11.792  15.040 -0.3403 -0.1487 -0.2795
11642W        W28116  17.080  11.697  11.066 -0.1042  0.0288 -0.0079
11643W        W28117  13.907  13.378  15.440  0.0900  0.3018 -0.1760
11644W        W28118  11.489  17.560   2.235  0.2362  0.2701  0.1306
11645W        W28119  16.227  12.871   0.932 -0.2758 -0.0307 -0.1370
11646W        W28120   5.619   8.078  11.525 -0.2668 -0.0337  0.2323
11647W        W28121  12.747   7.768   1.398 -0.4524  0.0475  0.1705
11648W        W28122   4.488   7.370  11.259 -0.2298  0.0780  0.0401
11649W        W28123   8.809   9.393   4.178 -0.1273  0.1096 -0.3109
11650W        W28124   8.970   5.139  13.378 -0.0150  0.3287 -0.0570
11651W        W28125  10.458  10.502   5.027 -0.0592 -0.1855 -0.0621
11652W        W28126   3.103   6.245  15.790  0.1772  0.3816 -0.1475
11653W        W28127  10.533   3.655   2.218  0.0341  0.4010 -0.0512
11654W        W28128  12.399   6.041   1.058 -0.2692 -0.1314 -0.3819
11655W        W28129   9.764  16.670   0.604  0.0562 -0.1738 -0.1417
11656W        W28130  13.868   8.297   3.583  0.2486  0.2947  0.1426
11657W        W28131  14.298  13.914  13.350  0.1912  0.0893  0.2113
11658W        W28132   0.575   7.458  15.305  0.0838  0.2301 -0.1243
11659W        W28133  13.061   3.817   1.477  0.1303  0.0117 -0.0345
11660W        W28134  11.066   1.382  10.664 -0.0316 -0.1170  0.2577
11661W        W28135   7.708   5.822   2.615  0.1750 -0.0374  0.1784
11662W        W28136   1.893  17.180   0.467  0.0380  0.1078  0.2437
11663W        W28137  15.804   4.250  11.373 -0.0260  0.0936  0.0441
11664W        W28138   2.889  16.111  14.493 -0.0507  0.1428  0.1427
11665W        W28139   4.775   8.925   4.116  0.1974  0.0852 -0.0239
11666W        W28140   9.087   8.118   2.908  0.0615  0.1095 -0.1192
11667W        W28141   0.710  12.037   0.015  0.0774  0.1867  0.0979
11668W        W28142   4.878  10.132  12.807  0.2680 -0.1515 -0.4017
11669W        W28143  12.212  12.754   5.962  0.2396 -0.1127  0.0813
11670W        W28144   6.454   9.916   4.682 -0.0760 -0.0739 -0.3487
11671W        W28145  11.307  14.496   4.032  0.0522 -0.0422  0.0416
11672W        W28146  17.867  14.547   5.319  0.1357  0.1560  0.2239
11673W        W28147   4.170  16.499   2.790  0.1518 -0.0095  0.3394
11674W        W28148   6.012   9.155   0.369 -0.2538 -0.2486  0.1326
11675W        W28149  15.378   3.642  12.928 -0.2144 -0.2965 -0.0684
11676W        W28150   7.240  14.216   1.036  0.0117 -0.0460 -0.0554
11677W        W28151  11.049  15.930   3.684  0.2245 -0.0338 -0.1286
11678W        W28152   6.786  17.447  14.394  0.2224  0.2075  0.1893
11679W        W28153  11.480  15.852  13.014  0.0198  0.1384 -0.2001
11680W        W28154  15.149  12.138   5.590 -0.1805 -0.1474 -0.0359
11681W        W28155  18.241  15.773  12.517 -0.0253 -0.1904  0.2809
11682W        W28156   9.678   2.329  13.328  0.0142  0.3047  0.1807
11683W        W28157   9.044  12.487  12.494 -0.1344 -0.0977 -0.1315
11684W        W28158   5.263  17.272  11.811  0.2707  0.2533  0.0516
11685W        W28159  11.951   5.646  13.850  0.0201 -0.0300 -0.1681
11686W        W28160   8.733  12.671   4.356 -0.0502  0.1022  0.1301
11687W        W28161  16.050  10.975  14.139  0.2018  0.2073  0.1665
11688W        W28162  17.498   4.349   4.654 -0.1193 -0.3305  0.1246
11689W        W28163   0.852   1.763   5.379 -0.0355 -0.2605  0.3045
11690W        W28164  17.152   4.372  14.880  0.1107  0.0273 -0.1878
11691W        W28165  17.278  17.731  14.203 -0.2277 -0.1065  0.2916
11692W        W28166   7.089   0.375  11.677  0.2247  0.0398 -0.2229
11693W        W28167  12.703  15.788   4.464  0.1612  0.2169  0.0261
11694W        W28168  18.026   7.346   2.359 -0.3162 -0.0350 -0.0050
11695W        W28169  10.922  17.048  13.293 -0.3054 -0.0794 -0.2297
11696W        W28170   9.494   9.319  10.548  0.1090  0.2834 -0.0191
11697W        W28171  14.448  17.862  15.406 -0.4702  0.0365  0.0959
11698W        W28172   1.788   4.838   0.561  0.0501 -0.1470 -0.0059
11699W        W28173   8.930   6.338   1.029 -0.0227 -0.0786  0.2136
11700W        W28174   7.153  17.094  15.082  0.1893  0.0235 -0.1431
11701W        W28175  13.088  11.061   3.540 -0.0963 -0.2666  0.1614
11702W        W28176  11.027   2.979   2.097 -0.0162 -0.1086 -0.1576
11703W        W28177  10.857  10.617  15.739 -0.0365 -0.1528 -0.0427
11704W        W28178  12.425  10.077   0.410  0.0673  0.1113  0.2180
11705W        W28179  12.052   8.132  11.856 -0.1980 -0.1131 -0.2912
11706W        W28180   7.823  15.548  10.251  0.1657 -0.2987 -0.1761
11707W        W28181   4.663  17.099   1.046  0.2096  0.1246  0.0435
11708W        W28182   3.897   7.046  14.115 -0.0971 -0.3831  0.0924
11709W        W28183   1.741  11.149   5.783 -0.1962 -0.3764  0.0801
11710W        W28184  18.204  13.366   0.715 -0.0489 -0.0352  0.0786
11711W        W28185   0.130   3.523  15.305 -0.3319 -0.1721  0.2207
11712W        W28186  15.881   6.877   2.981 -0.1693  0.0323 -0.1676
11713W        W28187  15.423  12.949   4.242 -0.0550 -0.2319  0.1979
11714W        W28188   0.101   2.282   5.129  0.0603  0.1419  0.3429
11715W        W28189  15.599  15.023   1.170  0.0206  0.1803 -0.1199
11716W        W28190   8.630   9.137   3.842 -0.0659  0.1539  0.0836
11717W        W28191   5.986   2.994  15.216  0.0662 -0.1994 -0.0596
11718W        W28192  12.171   7.212   2.361  0.0002  0.2888  0.0022
11719W        W28193   5.971   2.297   2.967 -0.0498  0.0241 -0.1962
11720W        W28194   4.490  12.276   1.529 -0.1216  0.2580 -0.2827
11721W        W28195   8.226   8.658  11.757 -0.2451 -0.2827 -0.1928
11722W        W28196   3.880  12.934   1.815 -0.1658  0.4286  0.1756
11723W        W28197  11.076   8.882   2.690  0.0704 -0.0634 -0.2803
11724W        W28198   0.771   7.057   4.613 -0.3527  0.1266  0.1013
11725W        W28199   0.895   8.808   5.699  0.0554  0.1152  0.0190
11726W        W28200   1.051  11.198  13.581 -0.3503 -0.0569  0.1507
11727W        W28201   4.761   8.079  15.202 -0.1447  0.0737  0.1780
11728W        W28202  14.502   8.799   4.884 -0.1029  0.0771 -0.2726
11729W        W28203   1.205  13.741   5.326 -0.0777  0.1187  0.2997
11730W        W28204  16.858  18.036   1.536  0.3288 -0.0503  0.1993
11731W        W28205   9.960  12.507   5.156  0.0395  0.0019  0.1665
11732W        W28206  16.250  13.848  13.957 -0.2656 -0.2359  0.0072
11733W        W28207  17.548   1.269  14.542 -0.1585  0.1826 -0.1373
11734W        W28208  12.472   2.104  14.632 -0.1178  0.3318  0.2271
11735W        W28209  11.724  16.956  12.333 -0.0247  0.2519 -0.2011
11736W        W28210   5.446  10.313   4.175 -0.0652  0.1441 -0.2953
11737W        W28211  12.737  17.142   2.671  0.2385  0.1179  0.1860
11738W        W28212  16.855   1.988   0.870  0.0111  0.2921 -0.1787
11739W        W28213  17.369   1.773  10.979 -0.0155 -0.0517  0.0081
11740W        W28214   9.741   3.168  14.016  0.0909  0.2108 -0.1574
11741W        W28215   5.705  12.750   0.653  0.0204 -0.0395  0.0557
11742W        W28216  13.397   2.588   4.644 -0.1388 -0.2232  0.0811
11743W        W28217  17.088  11.216   4.235  0.1563 -0.1873 -0.0106
11744W        W28218   7.471   1.481   4.950  0.0731 -0.1302  0.0305
11745W        W28219   1.077  12.320   0.337 -0.1115 -0.0055 -0.2262
11746W        W28220  18.217   5.480   2.546  0.1366  0.4006 -0.2111
11747W        W28221   0.788  13.918  14.906  0.0700  0.5860  0.0081
11748W        W28222   3.704  15.936   3.404 -0.0704  0.3254 -0.4415
11749W        W28223  11.850  12.930  12.719  0.0503  0.0445 -0.0130
11750W        W28224   9.950   6.724  11.772 -0.2923 -0.0799  0.1955
11751W        W28225  11.978  15.854  14.879  0.1441  0.0089  0.1122
11752W        W28226  10.837  11.973   2.574 -0.2027 -0.1852 -0.0796
11753W        W28227  11.341   5.786  11.381  0.1583  0.0623 -0.0985
11754W        W28228   0.691   7.192   5.191  0.0018 -0.4187 -0.0710
11755W        W28229  10.959  13.439   1.477  0.0021 -0.0027 -0.3369
11756W        W28230   4.697  17.317   5.808  0.1283 -0.1483 -0.0693
11757W        W28231  17.492   1.108   5.164 -0.1490  0.0362  0.2229
11758W        W28232   2.302  18.080   3.906  0.2944  0.0722 -0.1818
11759W        W28233  13.660  14.372  11.862 -0.3687  0.0945 -0.0873
11760W        W28234  10.989   8.781   4.412 -0.1820 -0.0702  0.1229
11761W        W28235   5.572  16.307  12.115  0.0538  0.0540  0.0489
11762W        W28236   1.791   1.206   4.494  0.1159 -0.0160  0.0461
11763W        W28237  15.572   1.585   2.659 -0.1766  0.1061 -0.0266
11764W        W28238  12.488  10.161   3.636  0.2854  0.0434  0.3715
11765W        W28239  14.504   4.502  15.804  0.1752 -0.0966  0.0524
11766W        W28240   1.599  18.106  13.940  0.0437 -0.0252 -0.0028
11767W        W28241  16.933   7.631   1.635  0.0171 -0.0303  0.2803
11768W        W28242  16.671   9.253   0.303 -0.3115  0.1360 -0.0573
11769W        W28243   8.161  13.522  12.122  0.2898  0.2483  0.0027
11770W        W28244   3.450   0.769   5.819 -0.0980 -0.0283  0.1387
11771W        W28245  18.434   7.918   5.892 -0.3292 -0.1084 -0.3943
11772W        W28246   9.371  14.717   0.489 -0.1825  0.1223  0.1180
11773W        W28247  16.738  10.546  13.962  0.1201  0.2785 -0.0001
11774W        W28248   1.471   8.475  14.338 -0.0395  0.1452  0.0999
11775W        W28249  15.363   6.107   0.807  0.1841  0.1062  0.0638
11776W        W28250  14.602   7.035   4.806 -0.0974 -0.4905  0.0293
11777W        W28251   4.670  15.948  14.450  0.1122 -0.0027 -0.0364
11778W        W28252  11.462  17.020   2.126 -0.3658  0.2981 -0.1707
11779W        W28253  14.580   9.843  14.361  0.1006  0.2878 -0.2832
11780W        W28254   9.017   1.194   2.046  0.0009  0.2141 -0.0541
11781W        W28255  15.907   6.531   5.294 -0.0234 -0.0488 -0.3314
11782W        W28256   6.414   0.879   0.313 -0.0887 -0.1578  0.1145
11783W        W28257  12.056  14.889   3.501  0.1822 -0.1362 -0.0325
11784W        W28258   8.453  16.026   1.441 -0.3308 -0.0423 -0.3498
11785W        W28259   7.404   9.475   4.251 -0.1340  0.0209 -0.1678
11786W        W28260   6.940   8.380   4.270  0.0510  0.2696  0.3170
11787W        W28261   5.091  10.665   1.540  0.0736  0.0731 -0.0817
11788W        W28262   6.274  11.627   3.225  0.0404 -0.0846 -0.2888
11789W        W28263   1.471   8.951  10.318  0.0762  0.0642 -0.1038
11790W        W28264  12.967  16.974   1.680  0.1313 -0.0117  0.1855
11791W        W28265  10.820  14.735   0.333  0.1150  0.0094 -0.0178
11792W        W28266   7.744   7.716  15.115  0.0834  0.1970 -0.2214
11793W        W28267  10.637   3.004   4.825 -0.1033  0.0698  0.2076
11794W        W28268   1.127  11.289  14.695 -0.2601 -0.1009  0.2153
11795W        W28269   0.180   5.438  14.605 -0.1315 -0.0751  0.0164
11796W        W28270  14.724  14.011  13.675  0.0653  0.0108  0.0648
11797W        W28271   5.903  14.605   0.733 -0.0403 -0.1629 -0.0644
11798W        W28272   0.371   4.125   5.324 -0.0067 -0.4382  0.0686
11799W        W28273  11.180   1.232  15.257  0.0026 -0.0549 -0.0647
11800W        W28274  15.567   6.078   9.877  0.3720  0.1828  0.0628
11801W        W28275   3.180   9.288   3.539  0.1498  0.1400  0.0649
11802W        W28276   1.921   7.060   1.678  0.1882 -0.2441  0.2491
11803W        W28277  18.131   4.945  12.762  0.0787  0.0585  0.2145
11804W        W28278   7.869  17.107  13.348 -0.0607 -0.2640 -0.1955
11805W        W28279   7.987  12.885   1.916 -0.1206 -0.2334  0.1268
11806W        W28280  17.616   8.823   2.585 -0.0205  0.0989  0.1869
11807W        W28281   3.414  16.146   4.236 -0.1422  0.1978 -0.1534
11808W        W28282   0.162   2.436  13.051  0.0061  0.0883 -0.0090
11809W        W28283  11.487   1.419  10.386  0.2324  0.1305  0.0821
11810W        W28284   7.754   8.613  14.803  0.2692 -0.0657 -0.1258
11811W        W28285  11.847  17.608  10.378  0.0002  0.1436 -0.2419
11812W        W28286   9.409  12.432  13.861 -0.1288 -0.1491 -0.2005
11813W        W28287   7.179  11.409  10.662  0.2251  0.0693  0.1717
11814W        W28288  15.244  10.180  14.804  0.2322  0.0997 -0.1275
11815W        W28289   4.408   7.118   3.067 -0.2138 -0.0910 -0.2662
11816W        W28290  15.685   6.392   4.771  0.1062  0.0583 -0.1839
11817W        W28291   2.595   7.892  12.452  0.1372 -0.0807 -0.0345
11818W        W28292  12.295   4.197   3.953 -0.0281  0.0301  0.0691
11819W        W28293  12.993  10.246   4.930 -0.1278  0.3612  0.3059
11820W        W28294   9.397   9.173  15.889  0.1010  0.2827 -0.1431
11821W        W28295   4.595   1.592   1.298  0.0146 -0.0040  0.1766
11822W        W28296   2.390  12.669   3.862  0.1323  0.2702 -0.0079
11823W        W28297   8.975  14.948  10.650  0.0258 -0.1544 -0.1719
11824W        W28298  18.075   9.830   0.017  0.0337 -0.0513 -0.0914
11825W        W28299  10.491   4.936   5.148 -0.0500  0.3403 -0.2556
11826W        W28300  15.813  16.182   2.645 -0.0199  0.1999  0.2995
11827W        W28301   8.653   2.317   3.325 -0.2065 -0.2584  0.1234
11828W        W28302   1.678  16.346   1.303 -0.0538 -0.0405  0.1102
11829W        W28303  10.484   5.533   3.953 -0.1287  0.0757  0.1445
11830W        W28304   9.030   0.238   1.629 -0.0698 -0.2954  0.0902
11831W        W28305   8.399  11.964  13.421  0.1005  0.1958 -0.0976
11832W        W28306  13.584   8.082   5.157 -0.2417  0.0046 -0.0560
11833W        W28307   6.473   9.052  13.644  0.0188 -0.4506  0.0986
11834W        W28308  12.475  13.410  11.733 -0.2729  0.1772  0.1522
11835W        W28309   4.290  15.727   3.071  0.2572 -0.2474 -0.0133
11836W        W28310   2.853  14.360  12.974  0.1290 -0.0841 -0.1132
11837W        W28311  15.555  17.212   1.014  0.0538  0.1832  0.2692
11838W        W28312   8.221  10.595   5.271  0.1096 -0.3901 -0.0556
11839W        W28313   7.250  17.345  14.674 -0.2420 -0.1983  0.0971
11840W        W28314  12.217  13.268   3.525 -0.1540 -0.2365 -0.1913
11841W        W28315   0.132  17.361  15.375 -0.0042 -0.0676 -0.1600
11842W        W28316   6.139  13.832  13.329 -0.2031 -0.0297  0.0654
11843W        W28317  13.609   7.507  11.792  0.1651  0.2217  0.0687
11844W        W28318  17.828   4.874   1.798 -0.0355 -0.1430 -0.1870
11845W        W28319   3.421   8.578  12.387  0.1219 -0.3204 -0.2297
11846W        W28320   3.061   0.847  15.549 -0.0008 -0.1140  0.0425
11847W        W28321   9.295   8.742  14.783 -0.3334 -0.0383 -0.1375
11848W        W28322   7.680   7.916  12.022 -0.2166  0.0345 -0.3613
11849W        W28323  14.208   5.225  15.297 -0.0045 -0.0131  0.2997
11850W        W28324  13.943  12.724  12.262 -0.2588  0.1765 -0.0945
11851W        W28325   6.115   9.489   3.848  0.0337 -0.0545 -0.0715
11852W        W28326   4.444  15.933  13.880 -0.1046 -0.0071  0.2186
11853W        W28327  10.464  14.012   4.343 -0.1157  0.0036  0.1513
11854W        W28328  13.139   4.380   0.515 -0.1394 -0.1041 -0.2119
11855W        W28329  18.414   1.864  14.760 -0.0423  0.1455  0.1832
11856W        W28330   4.334  10.511  14.806  0.1498 -0.2003  0.1673
11857W        W28331   1.468   9.347   0.348 -0.0097 -0.0113  0.3855
11858W        W28332  16.423  16.150   4.723  0.2246 -0.0177  0.0140
11859W        W28333  10.841   4.819  11.554  0.0156  0.0031  0.1419
11860W        W28334  14.582   7.720  12.927  0.1477  0.0638  0.1492
11861W        W28335  18.442   3.465   0.587  0.3244  0.0312 -0.1132
11862W        W28336   4.208  13.016  13.543 -0.1091 -0.0755  0.1795
11863W        W28337   4.335  11.338   1.172  0.2132 -0.0258  0.1025
11864W        W28338   1.624   8.989  14.516  0.3993  0.0371 -0.0931
11865W        W28339   3.132   5.348  15.824  0.4181 -0.1728 -0.2468
11866W        W28340  12.726  18.440  11.189  0.4401  0.1915 -0.0799
11867W        W28341   1.870   1.432  15.545 -0.4779 -0.0843  0.5333
11868W        W28342  12.465  17.878   1.033 -0.1930  0.0053 -0.3481
11869W        W28343  13.646  12.374   1.978 -0.0479  0.1443  0.0247
11870W        W28344  13.915  16.249  14.340  0.1868 -0.2031  0.1117
11871W        W28345  11.751   8.741   0.713 -0.0514 -0.0991 -0.0755
11872W        W28346  15.345   0.205   4.680  0.1229  0.1787  0.0645
11873W        W28347   6.966   9.754   1.154 -0.0852 -0.1019  0.1651
11874W        W28348   1.620   5.521  11.735  0.0458  0.0152  0.1188
11875W        W28349  16.120   3.192  12.145  0.1909  0.0175  0.3094
11876W        W28350  16.125   2.139  14.359 -0.1732  0.0550  0.1092
11877W        W28351   3.364   3.463   0.408 -0.0500 -0.2067  0.3563
11878W        W28352  16.981  16.317  11.185 -0.1305 -0.0558 -0.1547
11879W        W28353  14.520   6.410   0.914 -0.0859 -0.1949  0.1623
11880W        W28354  16.116   9.884  14.182  0.0747 -0.2085  0.2425
11881W        W28355  11.698   8.419  15.477  0.0445 -0.4740 -0.1903
11882W        W28356   1.176  16.817   4.353  0.5853  0.0186 -0.3851
11883W        W28357   4.937  12.651   1.637 -0.3178  0.0072 -0.1725
11884W        W28358   6.329  13.257  11.805 -0.0816  0.0044 -0.1009
11885W        W28359   2.315  13.493  15.215  0.0796 -0.0975 -0.1677
11886W        W28360  12.909   4.276  11.507  0.0274 -0.0419  0.2095
11887W        W28361   1.450   2.455  11.336 -0.1377  0.0087  0.3672
11888W        W28362  10.689  10.714   2.820  0.1069  0.0867 -0.1083
11889W        W28363   5.772  16.142   4.657 -0.2718 -0.0632 -0.1679
11890W        W28364  14.354   6.179   4.866  0.1292 -0.2049 -0.3308
11891W        W28365   3.753   8.780  14.812 -0.1233  0.0906  0.4195
11892W        W28366   0.928  16.348  14.328  0.1265  0.1579 -0.0562
11893W        W28367  13.879   1.389  13.603  0.0396  0.1421 -0.1117
11894W        W28368   5.112  10.163   3.247 -0.2236  0.1419 -0.2400
11895W        W28369  13.918  17.944   2.260 -0.1338 -0.0519  0.1113
11896W        W28370  15.298   4.817  12.089  0.2363 -0.0020 -0.4520
11897W        W28371  14.662  15.034   5.480 -0.3896  0.2000 -0.0537
11898W        W28372   4.522   9.245   3.330  0.3020 -0.0494 -0.1164
11899W        W28373  17.441   3.464  11.024 -0.1125 -0.2542  0.2217
11900W        W28374   3.270   5.398  14.553 -0.0714 -0.0129 -0.1409
11901W        W28375   8.404   3.086  12.739 -0.2236 -0.0791 -0.0225
11902W        W28376   8.304  10.897   0.719 -0.2638 -0.0966 -0.0518
11903W        W28377  14.707   8.989   3.377  0.0590 -0.0898 -0.4441
11904W        W28378   2.122  10.120   0.445  0.0606 -0.1140  0.3364
11905W        W28379   5.912   8.903   1.345 -0.1478 -0.3263 -0.0074
11906W        W28380   0.767   8.342   5.532 -0.0676  0.0728 -0.0977
11907W        W28381  14.200  16.931   6.218 -0.3267  0.1597  0.2248
11908W        W28382   9.028  14.491   2.011  0.0273  0.1746 -0.0629
11909W        W28383  13.496   5.551  11.739  0.0317  0.2321 -0.2322
11910W        W28384   9.123  12.801  14.089 -0.2797 -0.2118  0.2959
11911W        W28385   1.066  16.284  12.040 -0.0981 -0.1272  0.1011
11912W        W28386   4.404   8.604  12.119  0.2209 -0.0840  0.0245
11913W        W28387  14.276  14.666  15.296  0.0858  0.1568 -0.0987
11914W        W28388  10.849   4.212   3.593 -0.1788 -0.0191  0.1383
11915W        W28389  14.605   3.113  14.945 -0.1391  0.0154 -0.3093
11916W        W28390   8.474   1.580  11.964 -0.3063  0.2345 -0.2099
11917W        W28391   6.234   7.873  13.024  0.2328  0.0061  0.0383
11918W        W28392  15.538  13.896   3.578 -0.1232  0.1920 -0.1070
11919W        W28393   9.154  17.516  12.914  0.4030 -0.0258 -0.1362
11920W        W28394   6.954  18.364   4.967 -0.3156 -0.1026  0.0397
11921W        W28395  11.323  10.038   1.181  0.0947  0.0882  0.3217
11922W        W28396  17.597  11.036  15.758 -0.0656 -0.1272 -0.3758
11923W        W28397  11.376   2.596  11.488 -0.0308  0.1222  0.1128
11924W        W28398  10.917   9.353   2.791 -0.1583  0.1172 -0.0044
11925W        W28399   3.713   5.456  14.236  0.1765 -0.1298 -0.0423
11926W        W28400   9.939  15.154   1.180  0.1731 -0.0993 -0.0501
11927W        W28401  10.126  15.431   0.754 -0.2175  0.1106 -0.0470
11928W        W28402  16.158   1.568  14.743 -0.0138 -0.0713 -0.1525
11929W        W28403   5.443   4.508   2.057  0.2629 -0.1257  0.2854
11930W        W28404  12.427   1.593   2.260 -0.0737 -0.1834 -0.3261
11931W        W28405   5.846  14.240   0.426 -0.0163 -0.0213 -0.0843
11932W        W28406   5.084   7.305  13.666  0.2132 -0.2857  0.2248
11933W        W28407  15.469   2.694   3.691  0.0494 -0.0533 -0.2404
11934W        W28408   9.429  11.683  15.642 -0.1673 -0.0348 -0.1767
11935W        W28409  12.986  16.194  14.200  0.1339  0.1479 -0.2439
11936W        W28410   1.532  15.414   1.525 -0.0729  0.4173 -0.1729
11937W        W28411   9.322   2.591  12.334 -0.0677 -0.0139  0.1354
11938W        W28412   0.051   7.781   4.136 -0.2538  0.0976  0.0308
11939W        W28413   8.186   4.031   0.463  0.2431  0.0862  0.1705
11940W        W28414   0.297   1.144  14.576 -0.0263 -0.0111  0.1759
11941W        W28415   2.968   2.497  15.553  0.0871 -0.2271  0.0773
11942W        W28416  14.677  17.972  11.359 -0.3037 -0.1919 -0.2169
11943W        W28417  15.291  13.296   1.902  0.1473  0.0875  0.0171
11944W        W28418  17.128   9.857  15.765 -0.0231 -0.0438  0.2829
11945W        W28419  13.763   8.700  12.539  0.0833  0.0450  0.0422
11946W        W28420   1.667  11.393   2.240  0.1469 -0.0807 -0.1406
11947W        W28421   0.216   4.356  15.782 -0.1852  0.3924 -0.2146
11948W        W28422   1.342   2.585  15.197  0.0869  0.0776 -0.3118
11949W        W28423  10.837   7.841  13.510  0.1869  0.4562 -0.0721
11950W        W28424  10.086   1.334  14.579  0.2007  0.0114  0.0105
11951W        W28425  10.136   2.184   1.894  0.1979 -0.0327 -0.1877
11952W        W28426  11.658  12.376  14.279 -0.0352 -0.0245 -0.1394
11953W        W28427   8.349   4.869  15.409 -0.1371 -0.2095  0.1537
11954W        W28428   8.597   4.928  10.874 -0.1541  0.2401 -0.1470
11955W        W28429  12.592   9.325   2.951 -0.0149 -0.1195  0.2364
11956W        W28430   6.233   6.805   3.107 -0.3018  0.1397  0.1104
11957W        W28431  13.176   7.126   0.881  0.0483  0.2091  0.2450
11958W        W28432   0.402  16.658  11.679  0.3669  0.2957  0.0936
11959W        W28433   5.505  15.481   0.260  0.1665  0.2643  0.1725
11960W        W28434  16.639   5.675   0.278  0.0374  0.1962 -0.0274
11961W        W28435   4.482  11.984   1.941  0.1076  0.3210 -0.3196
11962W        W28436   7.992  18.103   2.410  0.1944 -0.0622 -0.2477
11963W        W28437  16.060   2.023   5.186  0.2653 -0.1425  0.0778
11964W        W28438   0.492  16.881  11.001  0.1554  0.0408 -0.1407
11965W        W28439   3.354  10.192   3.897  0.0535 -0.2855 -0.0329
11966W        W28440   7.067  16.812  14.626 -0.3066 -0.1372 -0.0505
11967W        W28441   6.302   7.864   4.244 -0.0998 -0.2890  0.1168
11968W        W28442  10.689   6.638  14.722 -0.0860  0.0750 -0.1034
11969W        W28443  16.878   5.198  11.218  0.2068  0.1500  0.3156
11970W        W28444  13.030   7.078  14.321  0.1688  0.3146 -0.2366
11971W        W28445   2.921  15.910   5.406 -0.0277  0.1307 -0.2302
11972W        W28446  10.017  13.912  14.131 -0.2319  0.0262  0.0547
11973W        W28447  11.848   1.659  14.809  0.0887  0.3098 -0.1427
11974W        W28448   3.567   1.224  13.117  0.5408  0.0641  0.1057
11975W        W28449  11.097   1.789   1.887  0.2525 -0.0747  0.1253
11976W        W28450   9.604  11.227  13.403 -0.0642  0.0842  0.1186
11977W        W28451   3.523   4.715  12.549  0.1287  0.0889  0.0416
11978W        W28452   1.292   8.386   5.720  0.0623 -0.0801  0.1406
11979W        W28453  17.072  11.186  11.377 -0.0931  0.1124 -0.4047
11980W        W28454  10.373  15.302   1.232 -0.3318  0.0666 -0.0643
11981W        W28455  11.368  17.202  13.535  0.0520 -0.0629 -0.1752
11982W        W28456  14.717  15.842  14.445 -0.1642  0.0733  0.0258
11983W        W28457  17.181   2.455   9.858 -0.1099  0.0382 -0.0238
11984W        W28458  10.237  13.145   0.540 -0.2586  0.1588  0.0544
11985W        W28459  10.812  11.186  15.788  0.1834  0.3281  0.1826
11986W        W28460   2.666  10.047  11.844  0.3289  0.1299 -0.1128
11987W        W28461   6.814   5.022   3.667  0.0935  0.1207 -0.0333
11988W        W28462   9.565   2.652   4.397  0.0385 -0.0188 -0.5558
11989W        W28463   8.303  16.042   4.092  0.0569  0.1991  0.0439
11990W        W28464   4.313  14.273   5.269  0.0321  0.0157 -0.0760
11991W        W28465   3.772  11.823  10.998 -0.0084  0.1132 -0.2231
11992W        W28466  13.536   2.601  14.932 -0.2382 -0.0607 -0.2860
11993W        W28467  12.497  12.385  11.160  0.3574 -0.1566 -0.2660
11994W        W28468   0.760   0.514   2.608 -0.1416 -0.1071 -0.1935
11995W        W28469  11.062   9.445   5.505  0.0679  0.0276  0.1397
11996W        W28470   3.554   2.938   4.265  0.2646  0.2415 -0.2542
11997W        W28471  17.004  10.635   1.335  0.0520 -0.0672  0.1023
11998W        W28472  13.469   4.070   4.681 -0.1237  0.0377  0.1865
11999W        W28473  14.125  12.940  15.650  0.1463 -0.0937 -0.2969
12000W        W28474   5.780   0.023  15.779 -0.2144  0.1388 -0.1186
12001W        W28475   2.773   7.832   3.231  0.3973  0.2047  0.1767
12002W        W28476   8.513   3.441  13.415 -0.1418  0.0268 -0.1020
12003W        W28477  16.407   8.765   4.462 -0.0703 -0.2153  0.1007
12004W        W28478  17.511  10.988  12.487  0.0787 -0.2133  0.1327
12005W        W28479   2.599   4.850   0.837  0.3201 -0.3193  0.1085
12006W        W28480   8.125  11.433   1.467 -0.1945 -0.1516 -0.2222
12007W        W28481  14.900   7.666  12.154  0.4405  0.2955  0.3556
12008W        W28482  13.168   9.082   4.387 -0.1162 -0.0090  0.1182
12009W        W28483   9.456   3.172   1.535 -0.1122  0.0624  0.1852
12010W        W28484   3.771  13.955  15.623 -0.0838 -0.0017 -0.0349
12011W        W28485   8.359   1.997   3.669  0.1128 -0.2192  0.0563
12012W        W28486   2.885   7.923   2.333  0.2656  0.2677 -0.3046
12013W        W28487   0.050  16.828  14.712 -0.1969  0.1778 -0.1868
12014W        W28488   9.173   7.069   2.847 -0.0341  0.1996 -0.3156
12015W        W28489   9.454   0.116   4.053 -0.0036  0.0064 -0.0626
12016W        W28490   1.135  16.382  15.720  0.2357 -0.2538  0.1127
12017W        W28491  16.690  16.023  12.285  0.2830  0.0072 -0.3588
12018W        W28492   5.787   2.284  12.550  0.1474 -0.4004  0.3670
12019W        W28493  14.669  16.842   4.435  0.0836  0.0083  0.0018
12020W        W28494   6.058   4.267   3.744 -0.1753 -0.1061 -0.0248
12021W        W28495   0.270  10.002  14.772  0.0845  0.0753 -0.1100
12022W        W28496   8.759   5.938   0.862  0.0021  0.0081 -0.2388
12023W        W28497  14.893   3.554  12.609 -0.1907 -0.0209  0.0084
12024W        W28498   5.781  10.486   2.814 -0.0428 -0.1381  0.1873
12025W        W28499  11.108   6.575   2.452  0.0603 -0.1259 -0.4634
12026W        W28500   3.117   8.224  11.473  0.0007 -0.1243  0.1984
12027W        W28501  10.159  13.002  11.397  0.0194 -0.2178 -0.0439
12028W        W28502  12.653  11.543  13.376  0.4888 -0.0968 -0.1479
12029W        W28503  14.293   8.195  12.718 -0.0184 -0.1774  0.0012
12030W        W28504   7.242   4.060  11.309 -0.1844  0.0641  0.0463
12031W        W28505   6.350   6.390   3.969  0.0816  0.0101 -0.2165
12032W        W28506   7.422  13.335   0.391 -0.1493 -0.1089 -0.0530
12033W        W28507  16.006   2.486  14.942  0.1819 -0.1054  0.1094
12034W        W28508  11.786  13.442   3.322  0.1682 -0.0900 -0.1124
12035W        W28509   0.300   1.261   1.999  0.0235 -0.3910 -0.1685
12036W        W28510   2.177   9.418   4.834 -0.2688 -0.0454  0.1212
12037W        W28511   7.391   4.170  12.231  0.3071  0.2714  0.2560
12038W        W28512   6.782   9.778   5.081 -0.0626  0.1141  0.1474
12039W        W28513   2.756   3.061  13.822  0.2074 -0.3049  0.3040
12040W        W28514   0.847   5.229   1.738  0.1917 -0.2529  0.2335
12041W        W28515  16.732  16.802   3.906  0.0521  0.2897 -0.2887
12042W        W28516   5.706   6.938   1.829 -0.1418  0.0012  0.0384
12043W        W28517  11.920  11.913   3.543  0.4017 -0.1693 -0.0016
12044W        W28518   5.378  13.435  11.376 -0.0048 -0.2235  0.0524
12045W        W28519   2.001   1.578   1.602  0.0396 -0.0232 -0.1617
12046W        W28520   1.782  16.919  10.364  0.0098  0.2663  0.2245
12047W        W28521   7.311  14.131   1.847 -0.2184 -0.1450  0.1640
12048W        W28522   5.832  13.071  12.810 -0.2035 -0.1492  0.1287
12049W        W28523  12.491  16.513  12.494  0.2784 -0.1566 -0.4162
12050W        W28524   9.857   1.270  13.077 -0.0016  0.1058 -0.2236
12051W        W28525   8.757  16.399  13.871 -0.0934  0.0527  0.2381
12052W        W28526  14.514  10.697  15.440  0.1189 -0.1069 -0.0650
12053W        W28527   4.210   0.785  11.439  0.0150  0.1423 -0.0217
12054W        W28528   1.013  17.170   4.800 -0.3343  0.1214 -0.1619
12055W        W28529  12.101  13.312  14.927 -0.1818 -0.0431  0.2057
12056W        W28530   6.135   5.700   2.188  0.1957 -0.1150 -0.0548
12057W        W28531  17.222  17.798  10.485 -0.0305  0.1280 -0.0492
12058W        W28532  11.361   8.887  13.539  0.0287 -0.0980 -0.0394
12059W        W28533   0.889  12.868  12.983  0.2499  0.0458  0.0857
12060W        W28534  17.117   4.774  11.579 -0.0956  0.2571  0.2131
12061W        W28535   7.792  11.106  14.746  0.1047 -0.2951 -0.1047
12062W        W28536   8.615   3.764   2.144  0.0420  0.0096 -0.0154
12063W        W28537  16.446   8.305  12.729  0.3119  0.4367 -0.1009
12064W        W28538  10.236  18.329   5.203  0.1819 -0.0544  0.1427
12065W        W28539   7.310   6.610   6.307 -0.3370  0.1908 -0.1809
12066W        W28540   3.643   2.586  12.726  0.2038  0.2552 -0.1394
12067W        W28541   0.854   5.979  12.215 -0.0198  0.0000  0.1588
12068W        W28542   2.889   2.729   3.243 -0.2360  0.1194  0.0471
12069W        W28543   6.486   7.558   3.257 -0.1540 -0.2188 -0.0796
12070W        W28544  10.511  11.518   2.471 -0.2047  0.1087  0.1488
12071W        W28545   3.207  12.689   0.932 -0.1704  0.0870 -0.1298
12072W        W28546  11.331  12.104   1.427 -0.1239 -0.1330  0.1416
12073W        W28547   1.231  14.106   4.948  0.3067  0.0790 -0.1664
12074W        W28548  14.155   5.842  15.420  0.3583  0.4104  0.1708
12075W        W28549  10.455   8.051  13.790 -0.2356  0.0711 -0.0189
12076W        W28550  11.195  13.904   1.329  0.3821  0.1746 -0.0108
12077W        W28551  11.076   5.314  11.672  0.2710 -0.0786 -0.0121
12078W        W28552   9.359   1.852   1.721  0.1682  0.1513 -0.0911
12079W        W28553   7.115   7.110   1.505 -0.1138 -0.2673 -0.1488
12080W        W28554   6.011   4.494   2.861 -0.0115  0.1574 -0.3132
12081W        W28555   6.454   0.118  14.253  0.3804 -0.1654  0.1195
12082W        W28556  11.123   0.661  13.277  0.1215 -0.0375  0.3145
12083W        W28557  15.672   3.149  12.432  0.1144  0.2212  0.2707
12084W        W28558   3.045  13.684   4.529  0.3314 -0.2035  0.0778
12085W        W28559  11.468  16.304  14.716  0.0304 -0.0882  0.2378
12086W        W28560   6.930   6.517  13.512 -0.0737  0.0751 -0.0274
12087W        W28561  17.804  15.031  12.911 -0.1862  0.2158  0.1312
12088W        W28562  10.711   8.950   3.097  0.1355 -0.1120 -0.1344
12089W        W28563  12.618   7.467  15.041 -0.0479  0.3305 -0.1221
12090W        W28564   1.805   8.566   3.024 -0.0348  0.4212  0.0732
12091W        W28565  10.762   9.787   2.915  0.1460  0.1479  0.2194
12092W        W28566  11.066  17.942  14.431 -0.0695 -0.0136  0.0004
12093W        W28567   4.029   0.368   1.056 -0.2138 -0.2962 -0.0863
12094W        W28568   5.877   7.452   2.843  0.0963 -0.0605 -0.1428
12095W        W28569  15.113   0.959   0.242  0.1632 -0.1584 -0.2719
12096W        W28570  12.117   1.420  11.167  0.1734 -0.1287 -0.0451
12097W        W28571   4.968  12.560  10.777  0.0297 -0.0160 -0.1119
12098W        W28572   8.948  13.769   2.654  0.3732  0.0158  0.0155
12099W        W28573  16.900   9.851   3.144  0.1907 -0.2016  0.2159
12100W        W28574   6.436  12.236   2.533 -0.0738  0.0158 -0.0382
12101W        W28575   3.413   0.026   5.092  0.0489  0.0643  0.0704
12102W        W28576  16.422   4.329  10.268  0.0051 -0.1563 -0.0268
12103W        W28577   3.800   6.759   1.432  0.2678  0.0806  0.0102
12104W        W28578  11.751  12.899   3.118  0.0654 -0.0276 -0.0577
12105W        W28579   1.667  11.926  15.940  0.2847 -0.1701  0.0569
12106W        W28580   9.675  11.047   5.143  0.1757  0.0296  0.3195
12107W        W28581   2.668   2.221  12.752  0.2240 -0.0448 -0.0787
12108W        W28582   0.676  15.118  11.730  0.0992  0.0768  0.3006
12109W        W28583  18.202   5.141   2.076  0.1439  0.1687  0.1511
12110W        W28584  10.585  15.684   1.476  0.1737 -0.1167 -0.0384
12111W        W28585   2.960   5.609  11.190 -0.1707 -0.3449  0.3327
12112W        W28586  15.477  13.926   2.410 -0.0711 -0.2002 -0.1418
12113W        W28587   9.119  13.932   0.270  0.1037  0.2132 -0.1679
12114W        W28588  11.883   9.272  15.315 -0.1452 -0.0717 -0.1057
12115W        W28589   2.156  11.653   0.919 -0.1126 -0.3115 -0.1092
12116W        W28590   0.963   9.964  14.814  0.1437 -0.0470 -0.0003
12117W        W28591  18.139  15.553  15.456 -0.0055 -0.1592 -0.2807
12118W        W28592   8.621   4.670   5.267 -0.0218 -0.0314  0.0898
12119W        W28593  16.711  11.697  15.587  0.1167  0.1116 -0.2605
12120W        W28594   1.995   6.572   5.279 -0.1378  0.2350 -0.2059
12121W        W28595  11.563   3.879  15.374 -0.1987  0.0614 -0.1827
12122W        W28596   4.779  12.005  10.158 -0.0409  0.0290 -0.3002
12123W        W28597   3.501  16.646   1.170  0.0385  0.0091 -0.0519
12124W        W28598  15.676   4.080  12.899  0.1412 -0.0494  0.0156
12125W        W28599  14.074  16.923   4.854  0.0225  0.1736  0.3328
12126W        W28600   0.734  12.512   5.470 -0.3234  0.0089  0.1247
12127W        W28601   0.803   7.793  12.854 -0.0455 -0.5006  0.2307
12128W        W28602   6.362   8.669   1.460  0.0099  0.2923 -0.0345
12129W        W28603  17.359   8.361   0.696  0.0802 -0.2949 -0.2666
12130W        W28604  14.457  14.082   2.610 -0.0413  0.0948  0.1482
12131W        W28605  15.861  13.367   0.296 -0.2412 -0.0050  0.0427
12132W        W28606  16.358  13.587   4.875 -0.1377  0.0534  0.2037
12133W        W28607  16.112   3.796   5.366  0.1194  0.2411  0.0205
12134W        W28608   9.220   7.887  14.347 -0.2467  0.3014 -0.0139
12135W        W28609   9.931  11.691   3.145 -0.0657 -0.0599  0.0058
12136W        W28610  17.969   4.772   4.225 -0.2191  0.1216  0.4736
12137W        W28611   4.665  15.683   0.199 -0.1303 -0.0985 -0.0220
12138W        W28612   1.932   5.001  14.210  0.0051  0.1790 -0.0360
12139W        W28613  10.668   6.786  14.219  0.1399  0.0002  0.0847
12140W        W28614   6.585   9.167   1.698  0.0379  0.0205 -0.0913
12141W        W28615  18.214   5.175  14.514 -0.2292 -0.0797  0.0111
12142W        W28616   4.343   0.008   3.243 -0.1893  0.0282 -0.3032
12143W        W28617   9.746   7.831  11.252  0.0538 -0.1385  0.1329
12144W        W28618   3.036  10.755  13.206  0.0650 -0.0848  0.2776
12145W        W28619  12.824  14.377  12.047  0.0623 -0.1115 -0.1172
12146W        W28620   0.373  12.892  12.159 -0.0546  0.1568  0.0976
12147W        W28621   9.507  13.807  14.234  0.1554 -0.1876  0.0439
12148W        W28622  16.603   0.605  12.506  0.3505 -0.0240 -0.0534
12149W        W28623  12.461   3.120   3.035  0.1275  0.0676  0.2539
12150W        W28624  11.858   9.967  12.835 -0.2895  0.2385  0.0111
12151W        W28625  16.760   6.604   3.734 -0.0522 -0.1195 -0.4498
12152W        W28626  10.438   3.590  11.424  0.0796 -0.1657  0.2943
12153W        W28627  15.150  13.299  11.746  0.1678 -0.2089  0.1256
12154W        W28628  13.195  12.310   3.698 -0.0023 -0.0181 -0.1843
12155W        W28629   7.311   7.515  14.728  0.0576 -0.2650 -0.0671
12156W        W28630   1.839   3.374  12.412  0.1884 -0.0006 -0.0345
12157W        W28631   7.941  15.144  11.665  0.0902 -0.4944 -0.0178
12158W        W28632  15.694  11.179   4.051  0.0123  0.0019 -0.1267
12159W        W28633  15.885  14.270   4.464 -0.2241  0.1367  0.0152
12160W        W28634   0.906   9.302   4.473 -0.3264  0.2577  0.1212
12161W        W28635   7.047  15.831   1.723  0.4911  0.0356  0.4203
12162W        W28636  11.947  13.251  13.208  0.0289  0.2192  0.0167
12163W        W28637   8.974   1.147  15.134 -0.2076 -0.0996  0.2447
12164W        W28638   6.275  11.212  15.356  0.0719  0.1420  0.0864
12165W        W28639   9.245   1.183   1.059  0.0663 -0.0475  0.2968
12166W        W28640  10.833   9.519   3.763 -0.0170  0.0888  0.2504
12167W        W28641  13.835   3.115   5.557 -0.0695 -0.0161 -0.1173
12168W        W28642   5.711   1.695   1.773  0.1946 -0.1357 -0.1670
12169W        W28643   3.559   7.347  15.704  0.0627  0.0653  0.1000
12170W        W28644  15.461   2.887  15.684 -0.2605  0.1729  0.1505
12171W        W28645   3.835   7.147   2.715 -0.1174  0.0379  0.0179
12172W        W28646  10.325  17.125  12.032 -0.0883 -0.0059  0.1570
12173W        W28647   7.132  18.169  14.961  0.0567  0.2003  0.0292
12174W        W28648   8.776  16.731  13.486  0.1070 -0.0766  0.0998
12175W        W28649   0.230  15.920  12.842 -0.3263 -0.1105 -0.1752
12176W        W28650  17.878   9.976   2.066  0.0907 -0.0427  0.0440
12177W        W28651   8.591   2.014   2.238  0.0605 -0.1045  0.2212
12178W        W28652  11.907   0.986  10.988 -0.4346  0.1584 -0.1831
12179W        W28653   4.703   4.344   4.474  0.2175 -0.0208 -0.1375
12180W        W28654  15.245   8.220  12.798  0.0671 -0.2281  0.2886
12181W        W28655  17.818  11.492  15.900 -0.2520  0.2700  0.4001
12182W        W28656   6.526  16.771   3.104  0.1810 -0.0832 -0.2130
12183W        W28657   3.601  18.215   5.536 -0.0401 -0.3215 -0.1064
12184W        W28658   0.655   5.721  13.721  0.4212 -0.2195 -0.3442
12185W        W28659   0.347   2.504   4.105  0.3688 -0.1145 -0.0050
12186W        W28660   9.056   0.992   4.275 -0.2354 -0.2268  0.1229
12187W        W28661  15.240  15.000  14.471  0.2544  0.1819  0.2372
12188W        W28662  10.283   3.948  11.088 -0.0181  0.5283 -0.2751
12189W        W28663   0.969   8.491   1.307  0.0225  0.2544 -0.0704
12190W        W28664   8.012  12.520  12.484  0.2910  0.0388  0.1392
12191W        W28665  11.779  10.799  12.899  0.2628  0.1693  0.0584
12192W        W28666   6.417   3.746   2.536 -0.0303  0.3420  0.1017
12193W        W28667  16.873  13.890   1.685 -0.2295 -0.0162 -0.2909
12194W        W28668  14.725  15.901   5.668  0.1939 -0.1745 -0.2039
12195W        W28669   5.323  17.779  11.631  0.3136  0.0062  0.1815
12196W        W28670  12.923   3.137   5.329  0.0749 -0.1495  0.2018
12197W        W28671   2.645  11.543  14.224 -0.2371 -0.0927  0.2222
12198W        W28672   7.133   4.027  10.776 -0.0415  0.0347  0.4081
12199W        W28673   3.362  17.435  11.679 -0.1613  0.0868 -0.0230
12200W        W28674   8.526  17.601  15.118 -0.0363  0.1996 -0.0150
12201W        W28675   8.715   1.654  10.842 -0.0859 -0.2471  0.3782
12202W        W28676  15.212   4.869   1.879 -0.1908  0.1362  0.1154
12203W        W28677   2.241  15.767   5.970 -0.0633 -0.2429  0.3215
12204W        W28678   5.079  17.491   3.538 -0.2677  0.0928 -0.0250
12205W        W28679  18.033   0.720   4.108  0.1855  0.2703  0.3191
12206W        W28680  11.983  16.470  11.640 -0.0868  0.0317 -0.0670
12207W        W28681  12.506  13.371   2.675  0.4054  0.0062 -0.0879
12208W        W28682  13.076   9.072  14.420 -0.3360  0.2134 -0.1338
12209W        W28683   0.656  14.787   3.560 -0.0740 -0.0896 -0.2717
12210W        W28684   9.737   7.148  11.837  0.0972  0.0160 -0.1049
12211W        W28685   5.164   8.193  11.884  0.1394 -0.2839  0.0519
12212W        W28686   8.542  18.064  13.696  0.1468 -0.1802 -0.2039
12213W        W28687   7.160   2.112  13.174 -0.0873 -0.1582  0.1014
12214W        W28688  14.515   9.514   1.851 -0.0726 -0.2447  0.3610
12215W        W28689  17.648  15.858   0.791 -0.3002  0.1565  0.2796
12216W        W28690  14.252   2.487  14.331 -0.1146 -0.3547 -0.2091
12217W        W28691   9.804   9.775  13.270 -0.2046  0.2381  0.0008
12218W        W28692  17.674   9.665  10.884 -0.2818 -0.0147 -0.0106
12219W        W28693  13.070   0.012   9.601 -0.0468  0.1146 -0.1639
12220W        W28694  18.429   9.645  14.553  0.0892 -0.0195  0.0243
12221W        W28695   8.852  12.793   2.241 -0.1967 -0.2698 -0.0975
12222W        W28696  12.985  15.741  14.033  0.1603  0.2302  0.0546
12223W        W28697  17.990   0.220   2.848  0.0917  0.0160  0.3456
12224W        W28698  10.049   8.315   2.382  0.3324 -0.0592 -0.3252
12225W        W28699   8.441  14.107  15.365 -0.2734  0.0538 -0.2876
12226W        W28700   0.290   2.590   2.583  0.1541 -0.1486 -0.1307
12227W        W28701   8.646   1.004  14.055  0.1776  0.2364  0.0801
12228W        W28702   9.117  15.990  11.486 -0.0973 -0.0684  0.2434
12229W        W28703  10.321   5.671  12.953 -0.0802 -0.0911 -0.5348
12230W        W28704   5.698   8.537   4.013  0.0157  0.1765 -0.0291
12231W        W28705  17.707   4.179  13.621 -0.1701 -0.2604  0.2198
12232W        W28706   9.686  11.829   0.329  0.0528  0.2895  0.1082
12233W        W28707  16.546  13.507   1.629  0.2572  0.5505  0.2381
12234W        W28708  17.963   1.530   3.394 -0.3147  0.7505 -0.1365
12235W        W28709  16.341   9.489   1.597  0.1854 -0.0326  0.2528
12236W        W28710   9.521  11.261   1.236  0.1822  0.1338  0.2446
12237W        W28711   0.978  16.170  11.533  0.1564  0.0553  0.1118
12238W        W28712   4.712   4.174  13.261 -0.4571  0.1336  0.2916
12239W        W28713  10.634  14.275  13.178  0.0712  0.1056 -0.0601
12240W        W28714  13.954  18.217   3.773 -0.3159 -0.0008  0.2150
12241W        W28715   7.270  17.877  12.669  0.2171 -0.0367  0.0138
12242W        W28716  12.312  15.614  11.485 -0.2771 -0.3101 -0.0906
12243W        W28717   3.131  13.956  13.027 -0.3100 -0.0034  0.1610
12244W        W28718   4.965  14.792  12.176  0.2284 -0.2046 -0.2463
12245W        W28719  10.870   8.293   5.762 -0.0340  0.1715 -0.0014
12246W        W28720   2.483   9.949  11.413 -0.2934 -0.0252 -0.1601
12247W        W28721   2.520  16.961   5.816  0.0754 -0.2296  0.1075
12248W        W28722   9.434   1.437   2.050  0.1543 -0.0042 -0.0391
12249W        W28723   7.041  13.649  13.551 -0.0639 -0.0289  0.0316
12250W        W28724  11.786   1.106  12.871  0.0596  0.0912  0.0143
12251W        W28725   8.678   6.886  15.131  0.1192 -0.2046 -0.1103
12252W        W28726  15.647   8.680  12.878 -0.1568  0.2246 -0.2753
12253W        W28727  15.996  12.512   2.151 -0.0656  0.1497 -0.1008
12254W        W28728  16.994  17.791  14.661 -0.1090 -0.0677  0.0013
12255W        W28729  13.355   6.168  11.742  0.2071  0.1130  0.1054
12256W        W28730  10.521   8.124   3.503  0.0664  0.2507 -0.0355
12257W        W28731   0.657  17.131   1.340 -0.0331  0.2132 -0.0213
12258W        W28732   2.444  15.849   5.470  0.2115 -0.0952 -0.0311
12259W        W28733  15.256  13.580   1.064  0.0092  0.0468 -0.1373
12260W        W28734   6.978  12.607  11.564 -0.1061 -0.0718  0.0023
12261W        W28735  14.866   4.124  15.708 -0.0983 -0.0730 -0.1739
12262W        W28736  17.084   9.075  10.778 -0.0485 -0.0031  0.2980
12263W        W28737   6.381   6.064  13.066  0.0575  0.0277  0.4125
12264W        W28738   6.958   6.231  13.107 -0.2058 -0.0450 -0.0578
12265W        W28739   2.372  17.179   3.177 -0.1763  0.0439  0.1074
12266W        W28740  17.244   1.841   4.769  0.0824  0.0044  0.0737
12267W        W28741   8.538   3.654   1.650 -0.3038  0.0100 -0.0628
12268W        W28742  12.086  16.045  14.425  0.0004 -0.1289  0.1684
12269W        W28743   9.439  10.407  15.432 -0.1829 -0.1741  0.2844
12270W        W28744  12.403   0.764   2.550  0.2387 -0.3015  0.0991
12271W        W28745   1.198   5.528   2.156 -0.0059 -0.1964 -0.1201
12272W        W28746   0.790  15.859  13.439  0.1976 -0.0489  0.1631
12273W        W28747  16.503   4.092  12.894 -0.1516 -0.1009 -0.0306
12274W        W28748  18.429   2.145   2.370  0.0262  0.2101 -0.0699
12275W        W28749   5.621   8.617   1.662 -0.1094  0.0431  0.0447
12276W        W28750   6.840  16.558  10.385 -0.0315  0.1736 -0.4229
12277W        W28751   5.032   5.782  12.475 -0.1728 -0.3040  0.0529
12278W        W28752  10.817   6.724   1.946  0.1680  0.1430 -0.1500
12279W        W28753   7.392   0.216   0.757 -0.3930  0.0775  0.0740
12280W        W28754   9.106   0.363   5.790  0.1068 -0.1847  0.0914
12281W        W28755  13.451  13.630   4.958  0.2608 -0.0387  0.2146
12282W        W28756   7.396   6.422  14.671  0.1525  0.0424  0.0007
12283W        W28757  10.265  18.218  13.115 -0.1152  0.3440  0.1244
12284W        W28758   4.491   5.119   6.104 -0.2977  0.0833  0.5445
12285W        W28759   3.954   0.917   2.363 -0.0769 -0.2386 -0.1803
12286W        W28760   4.998  15.597   2.054  0.2118 -0.2209 -0.1072
12287W        W28761   9.768  14.824   3.617  0.1507  0.0417  0.0670
12288W        W28762  18.226  17.755  12.101 -0.1563 -0.2215 -0.0063
12289W        W28763   6.082  10.387  15.435  0.1359  0.2546  0.0670
12290W        W28764  11.114   3.884  14.376 -0.1320  0.1193  0.0897
12291W        W28765  10.417   3.840   0.250 -0.2763 -0.0518 -0.1208
12292W        W28766  18.363   6.222   0.623  0.0870 -0.2678 -0.0369
12293W        W28767  17.751   9.721  11.738  0.0471 -0.1348  0.3201
12294W        W28768  14.032  11.823  14.515 -0.1887 -0.1860 -0.0313
12295W        W28769  11.851  14.362   0.257  0.2658 -0.1230 -0.0213
12296W        W28770  11.572  17.694   4.806  0.3610 -0.0345 -0.1961
12297W        W28771  10.173  15.797   2.539 -0.0864  0.2896  0.1006
12298W        W28772   0.722   1.992  11.993  0.0573  0.1409  0.0339
12299W        W28773   4.576  15.098  11.894 -0.3616  0.2414 -0.0222
12300W        W28774   5.305  16.480  15.850 -0.2203  0.1707  0.2314
12301W        W28775   2.976  14.425   2.526 -0.0355  0.0406 -0.0541
12302W        W28776   0.947   5.102  12.462  0.2791 -0.1164  0.0242
12303W        W28777   0.670   2.576   0.695 -0.0154 -0.1410 -0.0487
12304W        W28778  11.669  15.547   2.209  0.1057  0.1707  0.0567
12305W        W28779  14.709   8.451   4.203  0.1552  0.2028 -0.1265
12306W        W28780   6.168  17.261  13.755  0.2471  0.2736  0.0576
12307W        W28781   4.082   5.949  12.165 -0.0693  0.1090  0.1282
12308W        W28782  16.352   4.300   2.450  0.0753  0.0379  0.3359
12309W        W28783   4.300   8.167  12.395 -0.4482  0.0213  0.3155
12310W        W28784  12.645   1.257  14.071 -0.0186  0.1784 -0.0445
12311W        W28785  13.327   1.902  13.769  0.1015  0.1822 -0.3230
12312W        W28786   3.475   6.245   3.630 -0.0434  0.0652 -0.1292
12313W        W28787  18.398  12.627   2.013  0.1939 -0.0448 -0.3142
12314W        W28788   5.673  13.948   3.559  0.1287 -0.1975  0.0537
12315W        W28789   1.150  14.989  12.575 -0.0032 -0.0477 -0.0061
12316W        W28790   7.111   4.115   4.058  0.1689  0.1063  0.1328
12317W        W28791  16.958   3.502  13.999  0.2918  0.1821 -0.3485
12318W        W28792  10.091   6.241   4.766  0.0319 -0.2500  0.0709
12319W        W28793   2.299  15.660  13.359  0.1094  0.0041  0.0689
12320W        W28794  16.480   8.093   3.926  0.2279  0.0382 -0.0874
12321W        W28795   8.838  14.831   2.327 -0.2616 -0.0196  0.0792
12322W        W28796  16.898  14.529  11.193  0.2114  0.0778 -0.1437
12323W        W28797   6.964   9.556   1.734  0.0909 -0.2358 -0.3724
12324W        W28798  17.570  11.717   1.896 -0.0349 -0.2171  0.2201
12325W        W28799   6.650  17.876   0.605  0.1470 -0.0416 -0.1695
12326W        W28800   2.714  18.437   4.460 -0.0641  0.0546  0.1468
12327W        W28801  11.829   9.482   2.538  0.3042 -0.3645  0.0834
12328W        W28802   7.235   6.769   4.940 -0.1196 -0.1228  0.0703
12329W        W28803  11.705  16.172   0.731 -0.0800  0.0725 -0.1831
12330W        W28804   0.182   7.412  10.837 -0.1376  0.0469 -0.1467
12331W        W28805   1.764  11.408  15.970  0.1339 -0.0087 -0.0311
12332W        W28806   1.633   5.610  12.925  0.3691  0.0542  0.0067
12333W        W28807  10.474  12.653   3.266  0.0662  0.2193 -0.1856
12334W        W28808  12.870  12.728  14.318  0.2413 -0.1057 -0.0877
12335W        W28809   1.137  14.366  12.557  0.0024 -0.0346  0.2479
12336W        W28810   3.584  13.973  12.728 -0.2149  0.0304  0.0123
12337W        W28811  18.039   8.117   2.940 -0.4321 -0.1372  0.1035
12338W        W28812   3.611   9.639  14.495 -0.1573 -0.0441 -0.2330
12339W        W28813   8.124  10.458  15.386 -0.1912  0.3919  0.1886
12340W        W28814   7.164   9.723  15.117 -0.1814  0.1514 -0.0372
12341W        W28815   0.613   3.571  13.350 -0.1931 -0.1838 -0.0702
12342W        W28816  14.214  10.993   4.488 -0.0909  0.0905 -0.2907
12343W        W28817  13.457  13.579   3.994  0.0639  0.3438  0.2814
12344W        W28818   6.845  16.999   1.005 -0.0246 -0.1005 -0.2612
12345W        W28819   8.663  15.528   3.154  0.0678 -0.0359 -0.0212
12346W        W28820   9.402  17.123  14.743 -0.1823  0.0069 -0.1251
12347W        W28821   1.528   7.736  12.514 -0.1160 -0.1787 -0.1695
12348W        W28822   7.361  16.118   3.039 -0.1288  0.2308 -0.2066
12349W        W28823  15.144   8.616  13.102 -0.2508  0.0292 -0.2334
12350W        W28824  17.916  10.559  10.902 -0.1095 -0.2279  0.0601
12351W        W28825   0.873  15.562   3.370 -0.1576  0.1074  0.2804
12352W        W28826   7.633  11.744   2.838  0.2092 -0.1106 -0.0214
12353W        W28827  12.716  10.471   5.288  0.0419 -0.2076  0.0506
12354W        W28828  17.392   1.917  11.526  0.1006 -0.0698  0.1612
12355W        W28829   5.033   0.834   1.723  0.3795  0.0539  0.1167
12356W        W28830  15.039  11.920  13.796  0.2972  0.3646 -0.3206
12357W        W28831  16.606  11.479  11.692 -0.0720 -0.2295 -0.1874
12358W        W28832  11.628  12.288   3.698  0.0874 -0.1418 -0.1649
12359W        W28833  11.247  17.246   1.472  0.2130  0.1186 -0.3116
12360W        W28834   6.848  11.906   4.870  0.1807  0.2916  0.0478
12361W        W28835   3.339  12.678   4.780 -0.1371 -0.0103 -0.2378
12362W        W28836   9.403  10.318  14.528 -0.0599  0.0318  0.3369
12363W        W28837   7.376  12.069   1.998 -0.2416  0.2934  0.2566
12364W        W28838   5.284   9.536  13.245 -0.0294  0.1600 -0.2959
12365W        W28839  17.936  13.361   1.597 -0.0010  0.2768 -0.2283
12366W        W28840  10.094  16.592  14.681  0.0501 -0.1316 -0.0413
12367W        W28841   8.937   2.109   3.013 -0.2593  0.1386  0.0328
12368W        W28842   1.738  15.219   5.417 -0.1136 -0.0689 -0.0446
12369W        W28843   3.629  13.053  15.926 -0.3577  0.0120 -0.2655
12370W        W28844  13.462  13.199   2.371 -0.2155 -0.1761 -0.1951
12371W        W28845   0.654  12.896  10.661 -0.1253  0.0261 -0.3004
12372W        W28846   3.691   6.862  13.663 -0.0849  0.2372 -0.0948
12373W        W28847  16.413   9.218   4.771  0.2863  0.1361 -0.0047
12374W        W28848  18.095  13.485   0.239 -0.1357 -0.0604  0.2183
12375W        W28849  14.977  14.368   2.958  0.6333 -0.3037  0.2272
12376W        W28850  12.125   9.695   0.562  0.1172 -0.0225 -0.0156
12377W        W28851   3.550   7.544  14.380 -0.1222  0.1882 -0.2964
12378W        W28852  18.008  15.526   2.516 -0.0782  0.2437  0.1578
12379W        W28853  17.977   7.467  13.942  0.0448 -0.3051  0.0835
12380W        W28854   3.164   5.759   3.610 -0.1938 -0.2246 -0.2625
12381W        W28855   2.722  14.214   2.892 -0.1022  0.1189 -0.3034
12382W        W28856   8.553   7.714   2.802  0.1698  0.1843  0.3444
12383W        W28857   3.477  16.893   2.131  0.0763 -0.3231  0.0875
12384W        W28858   4.700   9.726   4.653  0.2101  0.1302 -0.1229
12385W        W28859   4.066   6.575   3.822  0.0891 -0.1772  0.2211
12386W        W28860   3.729  13.707  13.114  0.0773  0.0443  0.2896
12387W        W28861  12.739  10.424   2.717  0.3474  0.1033  0.2885
12388W        W28862  13.760  11.631   4.305  0.0419  0.1657  0.3628
12389W        W28863  13.749  18.070   4.881  0.0023  0.2359 -0.2122
12390W        W28864  15.897  15.889  10.522  0.2051 -0.1944  0.2016
12391W        W28865   8.953   6.657   5.058 -0.1250 -0.1358 -0.1908
12392W        W28866   7.897   0.194  12.640  0.3919  0.0555  0.1907
12393W        W28867   7.214   1.477  12.522  0.3076 -0.3350  0.4464
12394W        W28868   5.238  13.370   0.744 -0.2205  0.4060 -0.2006
12395W        W28869   9.819  16.789   2.750  0.1238 -0.2847  0.0211
12396W        W28870  13.690   1.980   3.294  0.1914  0.0857 -0.0275
12397W        W28871   9.498  16.530   0.119  0.0667  0.0981  0.0059
12398W        W28872  12.843   7.171  13.815  0.0539  0.0680  0.0350
12399W        W28873  10.059   8.958  11.596  0.0538  0.1137  0.0377
12400W        W28874  10.782   6.893  11.967 -0.2194 -0.0423 -0.0053
12401W        W28875   8.746  10.624   2.725 -0.2792 -0.1387 -0.2019
12402W        W28876   6.547  13.102   2.210  0.1020 -0.1416  0.0025
12403W        W28877  12.659   5.029  11.728 -0.0870 -0.1096  0.2761
12404W        W28878  14.338   3.614  14.875  0.2130 -0.3435  0.4141
12405W        W28879   6.253  16.975   4.586 -0.2405 -0.0176  0.0945
12406W        W28880   8.525  14.305   1.422 -0.0793 -0.0091  0.1504
12407W        W28881   6.494  13.385   1.112  0.0514  0.0175 -0.3496
12408W        W28882   8.717  16.926  11.427  0.1040 -0.0610  0.1350
12409W        W28883  13.165   7.031   4.771 -0.0980  0.2000 -0.4631
12410W        W28884   6.499  13.494   4.553 -0.2543  0.2989 -0.1169
12411W        W28885  14.595  15.793  13.254  0.1142 -0.1264 -0.0043
12412W        W28886   7.620  15.039  14.778 -0.2516 -0.0654  0.3091
12413W        W28887   3.629  10.426   4.950 -0.1284 -0.0063 -0.2367
12414W        W28888  17.104  12.141  13.509 -0.3724  0.1127  0.0794
12415W        W28889   9.746   5.979   2.661 -0.0721 -0.2624 -0.2344
12416W        W28890  17.282  13.035  13.355 -0.1573 -0.2695 -0.1609
12417W        W28891   0.936   7.650  11.880 -0.1662 -0.2585  0.0439
12418W        W28892   7.462  17.569   1.730 -0.1766  0.1089  0.0125
12419W        W28893  13.665   2.921   2.257  0.0977  0.3079  0.1178
12420W        W28894   9.369   2.680  13.424  0.0271 -0.1205 -0.0932
12421W        W28895  12.545  13.019   1.745 -0.1255 -0.2784 -0.0439
12422W        W28896   8.170  14.490   3.465  0.2616 -0.1367 -0.2068
12423W        W28897  17.274  11.167  15.266 -0.2283  0.2036 -0.1729
12424W        W28898  17.183  14.835   3.515  0.3460 -0.1509  0.0114
12425W        W28899   9.580  10.064   5.420  0.2095 -0.3527  0.0902
12426W        W28900   4.116   1.143   4.094  0.0236  0.0495 -0.0781
12427W        W28901   8.823   5.697   5.543  0.0999 -0.1355  0.0853
12428W        W28902  12.940   0.513   4.125  0.4093 -0.2923  0.0309
12429W        W28903   4.762  11.546  14.952  0.2166  0.1601 -0.1828
12430W        W28904  12.242  18.218   2.339 -0.2300  0.2382 -0.1545
12431W        W28905   8.762   0.495  14.848 -0.2726 -0.2406  0.2087
12432W        W28906  14.506  14.463  14.826 -0.2093 -0.2687 -0.0144
12433W        W28907   4.563   8.089   3.767  0.2775  0.1644 -0.0011
12434W        W28908  10.449  17.029  15.623 -0.0149 -0.0397  0.2883
12435W        W28909  12.354   8.792  12.314  0.1052 -0.0515 -0.0482
12436W        W28910  13.446  16.091   3.131 -0.2791 -0.0459 -0.3423
12437W        W28911   7.197   0.361   3.723 -0.1629  0.1057 -0.0367
12438W        W28912   6.013   8.658   3.196 -0.1206 -0.1622 -0.1101
12439W        W28913   8.112  12.026   6.210 -0.3570  0.1537 -0.0231
12440W        W28914   1.581   9.414  12.541 -0.1680  0.1093  0.2021
12441W        W28915  14.285   2.746  14.827  0.3104 -0.0505  0.0602
12442W        W28916  12.721   2.372  13.026  0.6418  0.0029  0.0509
12443W        W28917  12.425   8.151  10.941 -0.3297  0.1331  0.0784
12444W        W28918  11.212  18.331  10.711  0.0749  0.2247 -0.2515
12445W        W28919   0.718   2.047  12.609 -0.0039  0.1363  0.1037
12446W        W28920  18.448   8.458   1.171 -0.1903 -0.0262  0.2184
12447W        W28921   3.378   9.644   1.345 -0.2672 -0.1308 -0.1941
12448W        W28922   6.548   9.221   5.083  0.1894  0.3792  0.2825
12449W        W28923   2.267  10.934  11.030 -0.1328 -0.1285  0.4006
12450W        W28924   1.033   6.344  11.163  0.0554 -0.1258  0.1403
12451W        W28925   7.895   3.574   5.327  0.3120  0.2553  0.0388
12452W        W28926  14.920  10.137   4.617 -0.1251 -0.2529  0.2694
12453W        W28927  17.134  14.556   2.066  0.0945  0.0310 -0.0304
12454W        W28928   1.616   0.730   3.100 -0.1139 -0.0283  0.1965
12455W        W28929  16.327   4.849   1.467 -0.1837 -0.3371 -0.0030
12456W        W28930   8.404   8.820   2.242  0.0341 -0.0434 -0.3143
12457W        W28931  13.926   6.417   5.080 -0.2386  0.2148 -0.2637
12458W        W28932   1.528   0.753   4.799 -0.1165 -0.0744 -0.1675
12459W        W28933  17.220   8.570   0.279 -0.2442  0.0855 -0.1463
12460W        W28934   6.114   4.391  12.963  0.3118  0.2021  0.1020
12461W        W28935  14.310   5.822   2.334  0.0947  0.2180  0.1345
12462W        W28936  16.207   3.715  14.453 -0.1818  0.0816 -0.1664
12463W        W28937   8.349  16.585  11.360 -0.0626 -0.0651 -0.0476
12464W        W28938   8.104   9.668   1.825  0.0217  0.1268  0.1134
12465W        W28939   3.042   8.721   2.439 -0.1394  0.2859  0.0865
12466W        W28940  16.628  16.523  15.168 -0.2722 -0.1833  0.0677
12467W        W28941  15.884  16.582   1.665 -0.0040  0.4447 -0.0435
12468W        W28942   7.108  12.832  15.489 -0.1592 -0.1075 -0.2620
12469W        W28943  16.527  18.393  14.105  0.4807  0.0362 -0.4524
12470W        W28944  17.260   1.151   1.538  0.2001 -0.3208 -0.0152
12471W        W28945   8.315  15.308  13.763 -0.2383 -0.0145  0.1779
12472W        W28946   3.477   1.288  14.508 -0.3196 -0.2465  0.4194
12473W        W28947   3.586  17.458   0.375  0.0439 -0.2591  0.1375
12474W        W28948  10.235   6.820  14.980  0.0613  0.2776 -0.1185
12475W        W28949  12.986   1.452  14.534  0.2113 -0.2199 -0.1749
12476W        W28950  11.882   6.470  12.857  0.1886  0.0064 -0.0723
12477W        W28951   8.391  14.010  11.997  0.1883 -0.2845  0.1476
12478W        W28952  12.380   6.525  13.597  0.0310 -0.1508 -0.3378
12479W        W28953   5.769  17.060   1.306 -0.1653  0.0927 -0.1513
12480W        W28954   1.450  10.541   4.830  0.0403  0.0094 -0.3017
12481W        W28955  18.173   1.267  13.367  0.2744  0.2291  0.3001
12482W        W28956   9.049   7.125   5.927  0.0434  0.1175  0.1093
12483W        W28957   2.008  16.115  15.409  0.0395 -0.0398  0.1968
12484W        W28958   3.261  16.413  13.073  0.0397  0.2084  0.0544
12485W        W28959  16.768   6.470  11.043 -0.0172 -0.1396 -0.0910
12486W        W28960   6.797  14.006   0.428 -0.0562 -0.1128  0.2841
12487W        W28961   9.834  15.778  11.750  0.1941  0.0000 -0.0264
12488W        W28962   2.754  11.946   1.448 -0.0220 -0.0186  0.3621
12489W        W28963   6.971  18.251   3.724 -0.1410  0.5339  0.0781
12490W        W28964  11.791   0.245  14.879 -0.2294  0.2999  0.1773
12491W        W28965  17.263  13.959  12.406 -0.1578  0.1331 -0.1784
12492W        W28966   2.519  14.576  13.351 -0.1006  0.0335 -0.1433
12493W        W28967   3.006   9.150   2.205  0.2759  0.1146 -0.2522
12494W        W28968   9.111   0.444   0.628  0.0867 -0.2299  0.1500
12495W        W28969   5.003   7.961   4.015  0.0586  0.3489  0.0209
12496W        W28970  13.929  15.073   5.978 -0.2808  0.3077  0.2601
12497W        W28971   1.945   8.054   2.023  0.0360  0.1712  0.0655
12498W        W28972   8.289   7.905  15.030 -0.2785 -0.0186 -0.0348
12499W        W28973   3.189  10.645  14.742  0.0092 -0.0229 -0.1955
12500W        W28974  10.537  17.112  14.133  0.3554  0.0942  0.0889
12501W        W28975   6.010   0.104   4.365  0.3589 -0.2351  0.1002
12502W        W28976   5.884  17.995  12.341  0.1255  0.0936  0.0651
12503W        W28977  18.259   8.837   3.757  0.0271 -0.0537 -0.0561
12504W        W28978  14.572   6.043   5.820 -0.0682 -0.1584 -0.1622
12505W        W28979   9.593   1.229  11.126  0.0959 -0.3096 -0.0875
12506W        W28980   4.940   9.840   2.859  0.0174  0.0906  0.1408
12507W        W28981  17.205   3.703   3.308  0.0279  0.0014 -0.3532
12508W        W28982   9.746  16.869  14.433  0.2840 -0.2547 -0.3450
12509W        W28983   0.321   8.303  10.537  0.1984  0.2045 -0.1660
12510W        W28984  15.159  13.236   1.390 -0.1165  0.0627  0.3026
12511W        W28985   7.804   7.321  11.298 -0.0224 -0.1602 -0.2030
12512W        W28986   9.166   7.130   0.343  0.2498 -0.0508 -0.1654
12513W        W28987  14.527  17.582   0.360 -0.2065  0.2005 -0.0316
12514W        W28988  11.160  11.112  13.896  0.1860 -0.2088  0.0686
12515W        W28989   3.772  15.412  11.708 -0.1199 -0.0810  0.1303
12516W        W28990  10.320   0.347   4.539  0.4575 -0.1383 -0.2957
12517W        W28991   2.583   5.623  12.906 -0.2192 -0.0749  0.3338
12518W        W28992  17.562  13.200   5.336  0.1461 -0.1626 -0.1245
12519W        W28993   1.576   6.440   5.095 -0.1836  0.1163  0.0716
12520W        W28994  12.376   3.374   0.910 -0.0086 -0.2315 -0.0129
12521W        W28995   1.059   9.574  11.437  0.1446 -0.2227 -0.1950
12522W        W28996  12.031  15.574   0.068  0.0897 -0.3563  0.2635
12523W        W28997   8.239  11.571   4.240 -0.0376 -0.1884  0.1968
12524W        W28998   7.589  13.202  14.875 -0.0511  0.1472 -0.0032
12525W        W28999   4.847  13.573   1.046 -0.1708 -0.0675  0.1005
12526W        W29000   0.227  16.124  14.639  0.2553 -0.0119  0.3805
12527W        W29001   2.823   5.786   0.737  0.1217 -0.3962  0.4336
12528W        W29002  14.846   0.272   0.802  0.2108 -0.0957  0.2416
12529W        W29003   0.247   8.754   5.048  0.1671 -0.2481 -0.0703
12530W        W29004   1.100   7.925   0.595 -0.0077 -0.0083  0.0764
12531W        W29005   7.809  16.279   2.107 -0.0828 -0.0579  0.3024
12532W        W29006   9.585   3.308  15.175  0.1827 -0.0557 -0.2664
12533W        W29007  13.202   3.317  15.710  0.1420  0.2375  0.2246
12534W        W29008  13.439   2.349  12.861 -0.0924  0.0392  0.3678
12535W        W29009  11.975   5.206  13.573  0.1603 -0.3939 -0.2020
12536W        W29010  11.008  16.273  15.383 -0.2186 -0.0781  0.0471
12537W        W29011  18.045  11.162   1.236  0.0026  0.2405  0.1779
12538W        W29012   1.029   3.983   0.966  0.0359 -0.0194 -0.2185
12539W        W29013  11.381   0.325  12.229 -0.4463 -0.0525 -0.0377
12540W        W29014   9.084   1.105  15.676 -0.1169  0.1518  0.2262
12541W        W29015   3.611   7.267  11.782 -0.4562  0.2363  0.0430
12542W        W29016  15.530   6.403  14.408  0.2780  0.2325 -0.0242
12543W        W29017  11.771   3.808  12.397 -0.3057 -0.3698 -0.1876
12544W        W29018   7.889   2.257   2.360  0.1844  0.1073 -0.0264
12545W        W29019   8.617   9.728   1.973 -0.2167  0.1975  0.1705
12546W        W29020   6.250   5.229  12.924 -0.2454  0.1528  0.1266
12547W        W29021  17.458  11.177  13.181 -0.2244  0.0833 -0.2222
12548W        W29022   0.473  12.850   0.016 -0.0763  0.1412  0.0555
12549W        W29023  16.251   8.484   1.853 -0.0195  0.3433 -0.0572
12550W        W29024   2.947  13.630  14.517 -0.0079  0.0643  0.1045
12551W        W29025  15.412  11.619  13.792  0.3628 -0.0141 -0.3040
12552W        W29026   1.713  12.463  15.784 -0.0819 -0.0156 -0.0029
12553W        W29027   6.572  15.131  11.501 -0.1315 -0.0594  0.4616
12554W        W29028   5.467  12.542   5.527  0.0801 -0.2118  0.1485
12555W        W29029  10.779   2.767  10.616 -0.1137  0.2281  0.0775
12556W        W29030   5.201  10.152   1.472  0.1353  0.0561 -0.1781
12557W        W29031  17.784   2.156  15.508  0.1077  0.1849 -0.1505
12558W        W29032  15.377  11.852   6.012  0.0677 -0.3487  0.1179
12559W        W29033  10.081  17.622   1.403 -0.1872 -0.0204  0.0071
12560W        W29034  13.412  16.618   3.087 -0.1748  0.0130  0.2560
12561W        W29035  13.080  15.343   2.431  0.1473  0.1841 -0.1679
12562W        W29036  11.888   3.290   9.888 -0.2080 -0.0228 -0.0028
12563W        W29037   2.548  11.524  12.742 -0.0794 -0.1683 -0.1514
12564W        W29038   2.106   8.162  11.849 -0.2693 -0.0204 -0.1031
12565W        W29039   2.718  18.373  15.630 -0.0139 -0.0230 -0.0431
12566W        W29040   8.643   9.696   0.924  0.1691  0.2464 -0.1716
12567W        W29041   2.469  12.742   2.239 -0.1249 -0.2646  0.2427
12568W        W29042  14.960   8.474  11.543 -0.0656  0.0972  0.0281
12569W        W29043   6.400   5.587  11.959  0.4612 -0.1789 -0.0839
12570W        W29044  11.844   4.487  14.659  0.1019  0.2191 -0.2448
12571W        W29045   2.867  16.507  11.853 -0.4051  0.3132  0.2185
12572W        W29046   5.800  13.996   1.475 -0.1792  0.2314 -0.2213
12573W        W29047   5.681   4.782   3.657 -0.2271 -0.3093 -0.1695
12574W        W29048   2.042   5.678   1.425 -0.1236  0.2186  0.0368
12575W        W29049   9.996   6.482  15.278 -0.0893 -0.0883  0.0316
12576W        W29050  16.687   8.334  13.473 -0.0523  0.2681  0.0359
12577W        W29051   8.431  15.027   3.274  0.2951  0.2931 -0.1479
12578W        W29052  14.365   8.177  14.147  0.2455 -0.0771 -0.0425
12579W        W29053   5.184   9.450   4.061  0.2808 -0.0513  0.0510
12580W        W29054   4.744   0.474   4.717 -0.3546  0.1690  0.0438
12581W        W29055  10.988   7.179  11.601 -0.0239 -0.2051  0.2815
12582W        W29056   7.786  13.970   1.746  0.1193  0.0927  0.1119
12583W        W29057  13.449  12.719  14.871  0.2063  0.3346 -0.0041
12584W        W29058   6.045   6.616   1.125  0.1174  0.1033 -0.4076
12585W        W29059   9.195   9.589  15.246  0.0334 -0.1630  0.1170
12586W        W29060  11.858  11.115  14.666 -0.3223  0.2341  0.0733
12587W        W29061   3.928  17.667   4.306 -0.0572 -0.1746 -0.0521
12588W        W29062   5.782  11.277  15.128  0.1376 -0.1881 -0.0923
12589W        W29063   9.517   5.785  15.037  0.0251  0.1102  0.2230
12590W        W29064   9.362  18.272   2.381  0.1984 -0.0531  0.3071
12591W        W29065  13.275   3.457   1.247 -0.0431  0.3369  0.0271
12592W        W29066   2.320   5.869   3.417  0.2415  0.0297  0.0025
12593W        W29067  14.257  17.937  12.473  0.1676  0.2094 -0.0745
12594W        W29068   1.249   0.122  12.168  0.4023 -0.3623 -0.2198
12595W        W29069   3.619  14.363   1.959 -0.3062  0.0010 -0.1836
12596W        W29070   4.198   2.404   0.412 -0.0586  0.1236 -0.0211
12597W        W29071   9.186   5.526   3.357  0.0741 -0.0689 -0.0009
12598W        W29072   0.362   6.614  12.516 -0.0191  0.0070 -0.2818
12599W        W29073  16.510   7.578  11.732 -0.1309 -0.5338 -0.0047
12600W        W29074   7.222   3.693  12.169 -0.1782  0.2057  0.0044
12601W        W29075  10.707   3.018   1.593  0.1047 -0.0957 -0.0931
12602W        W29076   8.925   6.131   5.311  0.0526 -0.2944  0.0810
12603W        W29077   0.339   6.876   3.357  0.1608 -0.0920  0.0723
12604W        W29078  13.580  13.825  10.580  0.1449  0.1445 -0.2152
12605W        W29079   9.341   2.593   5.423  0.0754  0.1278 -0.0150
12606W        W29080   0.147   1.515   4.182  0.6366  0.2179 -0.0989
12607W        W29081  17.748   5.263  14.282 -0.1758  0.0816  0.0809
12608W        W29082  14.713  16.266  12.197  0.1857 -0.0070  0.1137
12609W        W29083  17.896  13.429  13.795  0.0714  0.0494 -0.0382
12610W        W29084  17.693   0.424  14.643  0.0471 -0.1751  0.1014
12611W        W29085  11.118   6.601  13.341 -0.0303 -0.1859 -0.1521
12612W        W29086   5.133  16.677  14.228 -0.0691  0.0868  0.1002
12613W        W29087   1.717  13.767   0.635 -0.1555  0.2366 -0.1008
12614W        W29088  16.553  15.860   1.599  0.2029  0.0128 -0.0294
12615W        W29089   8.484  13.559  15.731 -0.2273 -0.3032 -0.0647
12616W        W29090  17.804  15.533  12.752 -0.1413  0.0259 -0.2658
12617W        W29091  12.608   8.272  14.104  0.2178  0.3742 -0.0175
12618W        W29092  18.283  12.594  10.887  0.1712 -0.2991  0.1130
12619W        W29093  14.596  15.394   2.082  0.4167 -0.2546  0.0605
12620W        W29094  14.221  11.172   2.673 -0.3183  0.0664 -0.2673
12621W        W29095  18.423  14.336   2.612  0.0078  0.0961  0.1492
12622W        W29096   3.004   2.724  11.520  0.1500  0.0148 -0.0696
12623W        W29097  10.837  10.992   0.608 -0.0731  0.0879 -0.1938
12624W        W29098  13.038   0.627   0.541  0.1616 -0.2941 -0.2573
12625W        W29099   4.800   5.263   4.458  0.0287  0.0438 -0.2287
12626W        W29100   2.798   3.230   4.428  0.1216  0.0305 -0.3372
12627W        W29101   7.266   2.712   3.430 -0.0673  0.3540 -0.0653
12628W        W29102  10.039  18.291  12.156  0.0431  0.0998  0.2980
12629W        W29103   9.596   3.823  11.825  0.2643  0.1363 -0.0410
12630W        W29104  10.077  10.763   0.297 -0.2305  0.1091 -0.4239
12631W        W29105   3.060   4.033  15.788 -0.2929  0.0968  0.1762
12632W        W29106  11.655   8.498  13.473 -0.2151 -0.2704  0.3739
12633W        W29107   2.512   8.001  15.174  0.1403 -0.1375 -0.3692
12634W        W29108   1.183   6.437   0.031  0.2968 -0.1543 -0.3077
12635W        W29109  10.844  13.855   3.422 -0.0416  0.3178  0.0467
12636W        W29110   7.263  15.822  12.091  0.1400 -0.0375 -0.1402
12637W        W29111  14.829  15.842  12.391 -0.0611 -0.0147  0.2556
12638W        W29112   0.539  15.165   4.017  0.1684 -0.1276 -0.1622
12639W        W29113   0.319   6.439   0.459  0.0621  0.0765  0.0090
12640W        W29114  16.958   2.097   2.530 -0.0819  0.0513  0.0162
12641W        W29115   3.663  10.143   3.502  0.2238  0.2176 -0.0193
12642W        W29116   5.206  14.175  14.107 -0.0226  0.0846  0.1632
12643W        W29117   0.425   9.179   4.670 -0.1325 -0.4170 -0.0490
12644W        W29118  17.134   2.260   4.329  0.1352  0.0292  0.2101
12645W        W29119  17.365  15.535  11.461  0.0253  0.1925 -0.2205
12646W        W29120  17.690  13.864  15.637  0.1190 -0.2148 -0.0779
12647W        W29121  16.324   8.458  15.281  0.0639 -0.0919 -0.0193
12648W        W29122   0.217  17.831   2.014 -0.0116 -0.2111  0.1490
12649W        W29123  16.641  18.129   3.852 -0.0751 -0.0443  0.0700
12650W        W29124   9.886  11.235   4.097  0.0086  0.0501  0.3498
12651W        W29125   2.295   6.867  13.814 -0.1151 -0.0746 -0.1251
12652W        W29126  14.599   8.814   1.252  0.1435  0.2438  0.1257
12653W        W29127   3.837  18.084  12.280 -0.3053  0.0895 -0.0103
12654W        W29128  15.443  11.188   4.486 -0.1133 -0.5639 -0.1437
12655W        W29129  12.632  10.501   4.688  0.0069  0.4376 -0.2140
12656W        W29130   8.783   0.754   2.250 -0.2661 -0.0317  0.0600
12657W        W29131   9.913   3.722  10.865 -0.1503 -0.0182  0.1845
12658W        W29132  10.493   9.007  11.339 -0.2415  0.1353  0.0322
12659W        W29133   1.499  11.360   1.236  0.1684  0.4452 -0.1083
12660W        W29134   2.271   1.661  11.764  0.2215 -0.4695 -0.0084
12661W        W29135   0.053   5.865  14.857  0.0414 -0.3284 -0.0796
12662W        W29136   2.278   3.246  13.847 -0.0816 -0.1108  0.0966
12663W        W29137   9.639   8.035   0.356 -0.1900  0.0611  0.1894
12664W        W29138   6.448   9.018   3.947  0.2603 -0.2106 -0.4053
12665W        W29139   8.707  12.560   0.037 -0.0593  0.4463  0.0835
12666W        W29140  13.446  17.052   1.631  0.2367  0.1758 -0.1992
12667W        W29141   2.996  14.533  12.139 -0.2045 -0.0616  0.1072
12668W        W29142  12.710  15.660   2.563 -0.2077  0.2278 -0.2537
12669W        W29143   2.573  10.533   2.635 -0.1743  0.0331 -0.2382
12670W        W29144  10.219   7.104  14.170  0.0014  0.4527 -0.1191
12671W        W29145   7.846   8.898   1.108 -0.0401 -0.0341 -0.1277
12672W        W29146   5.675   3.805  14.591 -0.0582  0.0516 -0.0487
12673W        W29147  14.066   9.795   1.886 -0.0197  0.2509  0.1411
12674W        W29148   3.575  12.707  13.726 -0.2285 -0.0864 -0.3027
12675W        W29149   4.368   9.980  11.338 -0.3190 -0.0924 -0.2286
12676W        W29150  13.271   4.422  11.882  0.0265 -0.2801  0.0136
12677W        W29151  10.111   9.821  11.746 -0.0411 -0.5027 -0.0825
12678W        W29152   5.749  11.308  12.098  0.0004 -0.0626 -0.0596
12679W        W29153  18.008   9.946  14.616  0.1341  0.2217 -0.2132
12680W        W29154   6.930   7.455   2.252  0.1427  0.1222  0.1936
12681W        W29155  10.864  13.626  12.552 -0.0047 -0.2580  0.0220
12682W        W29156  14.819  13.321   1.736  0.3099 -0.1206  0.0627
12683W        W29157  17.023  12.629   0.003  0.1430  0.0366  0.0127
12684W        W29158   0.625   8.526  14.998  0.1687 -0.0068  0.2469
12685W        W29159   4.090   5.017  14.015  0.1549  0.0270  0.2385
12686W        W29160   3.681   2.828   3.648  0.1533 -0.1090 -0.0967
12687W        W29161  16.558  13.286   4.391 -0.2628 -0.3594  0.2995
12688W        W29162  10.988   1.291   2.855  0.1551  0.1415 -0.1316
12689W        W29163   9.942  17.338  11.788 -0.1170 -0.1660  0.0307
12690W        W29164   3.786  11.391   3.807  0.1351 -0.0494  0.0204
12691W        W29165   6.759   5.938  14.094  0.0054  0.3784 -0.1931
12692W        W29166   4.883   0.825   3.755  0.0325 -0.0921  0.0244
12693W        W29167  15.591   0.944   3.319  0.0060 -0.1937 -0.1803
12694W        W29168   3.970   3.491  14.316  0.0343 -0.0741 -0.1196
12695W        W29169   9.339   7.413  14.520 -0.0505 -0.1180 -0.0331
12696W        W29170   8.820   8.279   1.942  0.0217  0.0175  0.0361
12697W        W29171   5.826   1.881   0.417 -0.0901 -0.1672  0.0788
12698W        W29172  13.641   8.965  11.573 -0.2385  0.1055  0.2283
12699W        W29173  10.114   7.889  12.053  0.2749  0.0612 -0.1189
12700W        W29174  16.294   7.207  14.585 -0.0056 -0.1349  0.0219
12701W        W29175  10.596  10.510  13.891 -0.0110  0.1529  0.1795
12702W        W29176   3.328  11.917   4.485 -0.0117 -0.0340  0.4977
12703W        W29177   3.589   9.624  13.840  0.0358  0.0199  0.1804
12704W        W29178  10.072  11.294  11.981 -0.1514  0.3237 -0.1170
12705W        W29179   8.335   6.207   0.860  0.0775 -0.1438  0.1203
12706W        W29180   3.477   6.074   1.915 -0.2417 -0.4197 -0.0738
12707W        W29181   5.683  13.306   0.486 -0.2920  0.0092 -0.0332
12708W        W29182   1.149  17.379  13.143  0.0451 -0.0107 -0.0653
12709W        W29183  17.017  10.052   0.274  0.1025  0.0507  0.1722
12710W        W29184   4.458  13.559   4.937 -0.2263 -0.1303 -0.0229
12711W        W29185  11.758   4.195   2.158 -0.0725 -0.1560 -0.0564
12712W        W29186  11.905   4.406  11.451 -0.0757 -0.1712  0.0528
12713W        W29187  17.012  17.136   2.229  0.0063 -0.1622 -0.0507
12714W        W29188   9.855   0.032   2.609  0.0468  0.0607  0.2834
12715W        W29189  15.866   3.341   5.375 -0.0195  0.0376 -0.0086
12716W        W29190  13.706  10.212   6.334  0.1388 -0.2327  0.1600
12717W        W29191  15.639  16.245   1.351 -0.2638 -0.0520  0.3788
12718W        W29192  17.949   5.008   1.289 -0.0913  0.0009 -0.1699
12719W        W29193   2.961  11.090   4.870 -0.0780  0.1373  0.0395
12720W        W29194  16.666  15.340   4.433 -0.2645 -0.0284  0.2140
12721W        W29195  18.341  11.254   5.845 -0.0367 -0.0900  0.3571
12722W        W29196   0.006  14.872  11.150  0.0145  0.0722  0.0355
12723W        W29197  14.928  16.196  15.880 -0.2605 -0.0774 -0.0101
12724W        W29198  14.730  10.083  12.242 -0.2980 -0.2515 -0.3511
12725W        W29199   2.688  17.270   2.750 -0.2811  0.3001  0.0508
12726W        W29200   1.819  10.006   3.780 -0.0052 -0.0720  0.0914
12727W        W29201  15.107  11.080   4.960 -0.0815  0.2337 -0.0818
12728W        W29202   0.599   9.288  13.483  0.3968 -0.0695 -0.2226
12729W        W29203   5.771  16.969  13.593 -0.1253  0.0308 -0.1786
12730W        W29204   8.182   1.517  12.395 -0.2003 -0.5587 -0.0541
12731W        W29205  15.632  13.840   1.355 -0.2401  0.0170  0.4254
12732W        W29206   5.381  11.429  13.476  0.1506 -0.2750  0.1542
12733W        W29207   1.330   4.091  11.812 -0.1280 -0.1315 -0.5192
12734W        W29208   1.974   1.301  11.801  0.2091 -0.0121 -0.0626
12735W        W29209   9.568  12.066   3.192 -0.0435  0.0840 -0.0509
12736W        W29210  11.895   7.465   1.964 -0.0386  0.0147  0.2063
12737W        W29211   6.551   2.949  11.445 -0.0186  0.2503 -0.4439
12738W        W29212  11.969   3.322   2.827 -0.0122 -0.1026  0.2385
12739W        W29213  16.334  12.429   4.987 -0.3788  0.1643  0.1980
12740W        W29214  14.621   9.590  15.327  0.1648  0.1455  0.0643
12741W        W29215   7.969  11.610   5.859 -0.0469  0.2634 -0.1058
12742W        W29216   4.025   9.789   9.829  0.1568 -0.2672 -0.1764
12743W        W29217   8.318   3.893  14.975 -0.1013  0.0147  0.1460
12744W        W29218  15.670   4.313  14.614 -0.2098  0.3328 -0.1225
12745W        W29219   4.618  15.294   2.418 -0.0529 -0.1149 -0.0228
12746W        W29220  12.315   3.962   2.742 -0.0405  0.0581 -0.3264
12747W        W29221   9.795   0.970   0.238 -0.0338  0.1523  0.2367
12748W        W29222  13.703  14.814  12.753 -0.0240 -0.0416  0.0108
12749W        W29223  17.611   1.284   0.451 -0.0289  0.0408  0.0866
12750W        W29224  10.882  14.724  14.545  0.0271 -0.1021  0.3993
12751W        W29225  12.355   2.754   5.041  0.3472  0.1197 -0.1822
12752W        W29226   3.083  14.298   1.069 -0.2830  0.0841 -0.2643
12753W        W29227   0.338   5.192  11.433 -0.0044 -0.3793 -0.3254
12754W        W29228   1.538  11.781   4.867 -0.2729 -0.0648 -0.0836
12755W        W29229   6.646   5.625   2.014  0.2047 -0.0096 -0.0978
12756W        W29230   4.665  11.642  11.888 -0.1842 -0.1328 -0.1583
12757W        W29231   3.716  17.389   5.722  0.0444 -0.0254 -0.0486
12758W        W29232   0.090   8.213  12.802 -0.1298  0.2203 -0.0448
12759W        W29233  10.710   9.195   0.194 -0.1962  0.0403  0.0949
12760W        W29234   6.965   6.347  12.552  0.0140 -0.1299 -0.2499
12761W        W29235  11.738   7.722   1.617  0.0303 -0.3330 -0.0887
12762W        W29236   7.097   0.564   3.175  0.2791  0.1370 -0.1317
12763W        W29237   8.898   5.126  14.210 -0.1383  0.0302  0.1339
12764W        W29238  16.717   6.904  12.921 -0.1611  0.0658 -0.3979
12765W        W29239   7.317  10.850  14.794  0.0161 -0.0503 -0.1202
12766W        W29240  11.177   4.745   0.073 -0.1963  0.0428  0.0294
12767W        W29241   7.363   5.430   1.530 -0.0040  0.0453 -0.0426
12768W        W29242   0.181   9.470   3.050  0.1675 -0.0473 -0.0054
12769W        W29243   0.239  12.306   1.321 -0.1208 -0.1083 -0.1671
12770W        W29244   5.015   6.965  13.265  0.0791 -0.1362 -0.0804
12771W        W29245  15.567   9.447   2.862  0.2732  0.0409 -0.0594
12772W        W29246   0.130   3.024   1.307  0.1200 -0.1250 -0.4819
12773W        W29247   8.780   3.787  15.141 -0.0991 -0.1480 -0.1965
12774W        W29248  12.505   4.203  12.363 -0.0650  0.1241 -0.0453
12775W        W29249  16.637   6.782  11.482 -0.0826 -0.0347  0.2208
12776W        W29250   2.652   0.983  15.735 -0.0911  0.1930 -0.1983
12777W        W29251   6.734  18.397  15.379  0.1335  0.2426 -0.2086
12778W        W29252   4.737  11.133  11.225  0.1569  0.2616  0.2123
12779W        W29253   4.531  13.650   2.038 -0.1655  0.0392 -0.2001
12780W        W29254   1.720   6.328  11.341 -0.3718  0.2297  0.1340
12781W        W29255   2.813   9.310  11.056  0.4712  0.2821 -0.3033
12782W        W29256  10.652  16.913   9.705  0.1064  0.0344  0.0125
12783W        W29257   4.225   7.423   4.156  0.2394  0.0604  0.0662
12784W        W29258  13.315  18.332  10.057 -0.0815  0.1268  0.1053
12785W        W29259   1.804  13.829   1.379  0.3584 -0.2517 -0.0028
12786W        W29260  15.967   2.028  15.316 -0.0738 -0.0030 -0.1980
12787W        W29261   1.813   9.373  11.151  0.0255 -0.0019  0.3239
12788W        W29262   2.289   1.187  13.306  0.1420 -0.0643  0.2867
12789W        W29263  16.489  16.826   1.421  0.1244  0.1860 -0.0216
12790W        W29264  10.893   6.496   4.250  0.0293 -0.1037 -0.0891
12791W        W29265  10.189   9.149   2.317  0.1976 -0.4067  0.1706
12792W        W29266  14.931  11.019  12.458  0.0571 -0.3093  0.1890
12793W        W29267  15.598  10.291   2.754 -0.1259  0.2403 -0.0301
12794W        W29268   5.206   7.387  13.190  0.0177 -0.0186  0.0684
12795W        W29269   6.883  17.186   4.472 -0.2717  0.2957  0.0089
12796W        W29270   3.333  12.290   0.624  0.1441 -0.1606  0.0952
12797W        W29271  17.500  12.392  12.743  0.1411  0.1958  0.1867
12798W        W29272   4.465  10.571   3.537  0.0448 -0.1058 -0.1647
12799W        W29273   9.475   7.094   3.575 -0.0394 -0.2236 -0.3156
12800W        W29274  12.206   5.994  14.200  0.0588 -0.0586 -0.1705
12801W        W29275   8.243   2.552  15.422  0.1897  0.2850 -0.1215
12802W        W29276  18.166  17.950  13.756  0.1432  0.0548  0.1317
12803W        W29277  16.786  13.090   5.686  0.0567  0.3068  0.0136
12804W        W29278   9.916  17.871  12.460  0.1794 -0.1927 -0.1185
12805W        W29279  18.348   5.332  14.973  0.3536 -0.0686  0.0326
12806W        W29280   9.928  11.129  15.021  0.2725 -0.3146  0.2843
12807W        W29281  18.299  15.285   1.773 -0.0688 -0.0963 -0.2438
12808W        W29282   0.221   8.643  11.613 -0.0550  0.0109  0.0203
12809W        W29283   5.845   1.754  12.594  0.1771 -0.0247  0.0894
12810W        W29284   1.567  14.437  13.363  0.2438  0.2383 -0.1227
12811W        W29285   8.090  15.832  14.940 -0.2427  0.1360 -0.0616
12812W        W29286   9.719  17.804   9.710  0.1602 -0.2428 -0.0768
12813W        W29287  10.059  10.684  12.839 -0.0730  0.1722  0.3651
12814W        W29288  15.293  17.016  11.710  0.0076  0.0572  0.3991
12815W        W29289  12.957   4.805   4.524 -0.1015  0.3885 -0.0459
12816W        W29290   9.033  17.729   3.995  0.0058 -0.0538 -0.2118
12817W        W29291   1.330   6.276   4.156  0.0481 -0.1818  0.2807
12818W        W29292   8.265  14.448   0.792  0.0791 -0.0814 -0.1975
12819W        W29293   5.097  10.759  15.246  0.0511  0.1492 -0.1062
12820W        W29294   6.317  15.637  12.204 -0.0403 -0.2494 -0.0533
12821W        W29295  18.099   2.547   4.968 -0.4443 -0.0519  0.0154
12822W        W29296  12.390   9.354  13.179  0.0612 -0.2604  0.2473
12823W        W29297  15.742   7.893   3.402 -0.0383  0.0592  0.4086
12824W        W29298  17.506   7.188  13.904 -0.1933  0.1037 -0.0237
12825W        W29299  17.765   8.817   0.114 -0.1419 -0.1332 -0.1166
12826W        W29300   0.673   4.391   1.780  0.0852 -0.2497 -0.0765
12827W        W29301  11.019   0.434   3.924  0.1733  0.2382 -0.3482
12828W        W29302   4.515  10.888   4.227  0.0238  0.1353 -0.0648
12829W        W29303  14.831  15.044   1.803 -0.1799 -0.1452  0.3244
12830W        W29304   6.656  14.992  15.825  0.0093 -0.1726  0.0408
12831W        W29305  17.653   3.210  15.147 -0.1979  0.1153  0.1488
12832W        W29306   0.501   9.597  13.863 -0.0756  0.1613 -0.2760
12833W        W29307   2.804  13.136  15.124  0.3956  0.0304  0.1981
12834W        W29308   9.952   8.692   5.007 -0.1920 -0.1389 -0.0515
12835W        W29309  11.987  15.751   5.223 -0.1597  0.1837 -0.4195
12836W        W29310   7.815  10.834  11.986  0.0407 -0.2182  0.1317
12837W        W29311   1.626  16.378  12.010 -0.0670 -0.0844 -0.0405
12838W        W29312   2.467   9.519  15.466  0.0344 -0.1395 -0.2090
12839W        W29313   9.797   3.095   2.010 -0.4839 -0.1390 -0.0448
12840W        W29314  12.595  17.822  14.897 -0.2209 -0.0713 -0.0413
12841W        W29315   6.955  12.370  13.712 -0.3236  0.0141 -0.1808
12842W        W29316  12.337   7.348   4.685  0.0738 -0.1240  0.0117
12843W        W29317   2.629  11.354   5.100 -0.2753 -0.0296 -0.1400
12844W        W29318  17.854  11.837   2.798 -0.2534  0.4098 -0.1694
12845W        W29319   4.714  14.687  11.580  0.1953  0.0516  0.0258
12846W        W29320  16.766  10.482  13.439 -0.1582  0.1001  0.2269
12847W        W29321  14.626  18.126  14.189  0.2364  0.0026  0.0030
12848W        W29322  10.188   5.447  12.439  0.0772 -0.2316  0.1874
12849W        W29323   1.859   1.764   4.658  0.0565  0.4286 -0.0632
12850W        W29324   0.147   8.003   5.147 -0.1015  0.0654  0.2003
12851W        W29325  16.601   4.019  12.386 -0.1378 -0.2171  0.3735
12852W        W29326  16.159  14.466   4.034  0.1607  0.2372  0.0058
12853W        W29327  16.636  11.805   5.490 -0.0913 -0.2757  0.1180
12854W        W29328   0.132   3.915  11.090 -0.2505  0.1170 -0.0009
12855W        W29329  14.169   7.329   4.072  0.1450  0.2184  0.4234
12856W        W29330   6.355   5.356   1.353 -0.0016  0.5393 -0.0305
12857W        W29331   2.473  10.893  11.556  0.6346 -0.1152  0.2758
12858W        W29332   2.452   6.908  11.223 -0.1221  0.0296 -0.2537
12859W        W29333  15.427  16.809  15.285 -0.3217 -0.2042 -0.1400
12860W        W29334   6.982   0.552   2.658  0.1828  0.2566 -0.1011
12861W        W29335  11.126  10.555   2.454 -0.2948  0.1174 -0.1093
12862W        W29336   5.317  13.231   3.966  0.1517 -0.1117  0.0572
12863W        W29337  16.632   7.182   3.667 -0.2157  0.2721 -0.1127
12864W        W29338   3.549   8.846   0.780 -0.1798  0.2197  0.2852
12865W        W29339   8.562   2.544   2.364  0.3968  0.0174 -0.2933
12866W        W29340  13.760   3.540   2.192  0.2199 -0.1611  0.0134
12867W        W29341   3.545  17.148   1.132  0.1511 -0.0469 -0.1953
12868W        W29342  16.444  17.298   3.041  0.1151 -0.1961  0.0202
12869W        W29343   4.443   1.857  13.250  0.2338  0.2016 -0.1276
12870W        W29344   6.968   0.098   2.879 -0.1812  0.1758  0.0014
12871W        W29345  12.516  15.785   1.742  0.0330  0.0600  0.3354
12872W        W29346   1.152  17.701  11.741  0.1694 -0.2432  0.0462
12873W        W29347   2.050  12.182   6.086  0.2233  0.0687 -0.1592
12874W        W29348  17.372  11.790   0.031 -0.1080  0.0154 -0.1297
12875W        W29349  11.454  13.866  14.742 -0.0158  0.1385  0.1037
12876W        W29350  18.116   4.521  15.697 -0.0650  0.0603 -0.3375
12877W        W29351   4.194  14.318   1.756  0.0404 -0.0320 -0.0567
12878W        W29352  14.182  17.229   3.855 -0.2287  0.0853 -0.1682
12879W        W29353   7.291  16.577  14.217  0.0286  0.1339 -0.0198
12880W        W29354   2.873   3.155  14.364 -0.1917  0.0186  0.1111
12881W        W29355  17.791   9.421  11.364 -0.3817 -0.2794 -0.1124
12882W        W29356  13.659   5.969   4.319 -0.3080 -0.0040  0.1914
12883W        W29357  10.535  12.909   2.606  0.0100 -0.1621  0.1605
12884W        W29358  16.142  17.046   0.017  0.0598  0.1435  0.2003
12885W        W29359  12.452  16.289   1.411 -0.0269  0.4152 -0.1683
12886W        W29360  17.700   1.032   1.252  0.3168 -0.2916 -0.3938
12887W        W29361  15.268   0.163  12.258  0.3389 -0.1063 -0.0528
12888W        W29362   1.732   0.059  11.333  0.3079  0.4404  0.0293
12889W        W29363  13.914  14.121   2.617  0.0445  0.0821 -0.0281
12890W        W29364   7.570   5.574   4.066 -0.2781 -0.1278  0.0965
12891W        W29365  18.015  13.957   0.036 -0.0407 -0.1481  0.1354
12892W        W29366   9.208  15.327   3.298  0.1185 -0.0922  0.0122
12893W        W29367   4.736   9.338   3.791 -0.1013 -0.2287 -0.1465
12894W        W29368   5.141   2.581   0.672  0.0629 -0.1326 -0.1133
12895W        W29369  17.244   5.266  11.773 -0.1085  0.3094 -0.1553
12896W        W29370   9.775  14.533   3.175 -0.3425  0.0234 -0.0365
12897W        W29371   9.259  11.138  14.433 -0.1083 -0.2957  0.0347
12898W        W29372  10.405  15.534   2.078 -0.2777 -0.1905 -0.1524
12899W        W29373  12.036   8.465   0.027  0.0061  0.1248 -0.3983
12900W        W29374  13.339   3.411  13.781 -0.2204  0.0121  0.0670
12901W        W29375   7.148   4.680  12.479  0.1600  0.1740  0.2191
12902W        W29376  16.750   8.939   2.465  0.0607  0.3452 -0.0678
12903W        W29377   0.100  17.301   1.900  0.2637  0.3010 -0.0898
12904W        W29378   0.076   4.673  11.492  0.1455  0.2725  0.0786
12905W        W29379   6.258   6.292   5.478  0.2265  0.1438  0.0026
12906W        W29380  14.926   1.252  12.913  0.4013 -0.1356  0.2838
12907W        W29381  11.167  12.382   3.399 -0.2487  0.1197 -0.0038
12908W        W29382  13.858  12.688  14.478  0.0749  0.1465 -0.1261
12909W        W29383   2.652  13.386   2.223 -0.3520 -0.0465  0.0463
12910W        W29384  10.326  11.679   5.009  0.1515 -0.1460  0.2407
12911W        W29385   5.063  15.250  12.214 -0.0699 -0.0331  0.3521
12912W        W29386  17.212   1.577   0.613  0.2138  0.4498 -0.2943
12913W        W29387  11.660  13.362   1.032  0.0975  0.0051 -0.1632
12914W        W29388   7.287   0.885   1.317  0.4169  0.1588 -0.1604
12915W        W29389   0.849  15.345   5.538  0.0556 -0.3095  0.2562
12916W        W29390  11.876   7.081   2.736 -0.0224 -0.0199  0.0079
12917W        W29391   2.524   4.409   1.104 -0.0834 -0.2573  0.0737
12918W        W29392   2.260   8.708   4.137  0.1507 -0.0245 -0.0126
12919W        W29393   3.734   2.670  14.177  0.3619 -0.0740 -0.1992
12920W        W29394   2.888  16.070  12.206  0.0608 -0.1487 -0.0919
12921W        W29395  12.244  16.974  15.322 -0.1021  0.2045  0.2026
12922W        W29396   0.203   2.015   3.971  0.1767  0.0935 -0.2117
12923W        W29397  10.403  17.010  15.135 -0.3069 -0.1850  0.3004
12924W        W29398   5.018   1.699  15.003 -0.2682  0.0746  0.2355
12925W        W29399   0.986   8.159  11.872  0.0656 -0.3763  0.1698
12926W        W29400   9.656   7.062   0.389  0.1275  0.0122  0.2058
12927W        W29401   8.249   0.373  14.732  0.1984 -0.2284  0.1333
12928W        W29402   2.108  10.451   1.784 -0.0634  0.1339 -0.1821
12929W        W29403  16.105  12.388   3.219  0.2389  0.1354  0.0662
12930W        W29404  12.246  17.324   1.768  0.0433  0.0274 -0.0690
12931W        W29405  11.517   1.886   0.255  0.1507  0.1095 -0.0966
12932W        W29406   4.274   8.846   2.905  0.2116  0.0904  0.4570
12933W        W29407  10.670  10.783   5.472  0.1529  0.1519  0.0285
12934W        W29408  13.651   2.427  11.877  0.2749  0.0847  0.0602
12935W        W29409  13.795  18.261   1.243  0.4969  0.1748  0.0855
12936W        W29410   0.576   8.958  12.392 -0.1844  0.1745 -0.1579
12937W        W29411   5.861  17.202  15.053 -0.1699  0.2301  0.0730
12938W        W29412   2.086   1.667  12.316  0.0907  0.1054  0.1255
12939W        W29413   2.422  15.489  12.364  0.1450  0.0177  0.0049
12940W        W29414   0.435   7.280   3.633  0.0548 -0.0860 -0.2012
12941W        W29415  15.927   4.502   1.271  0.2869 -0.0112 -0.1155
12942W        W29416   5.147   8.780  10.896  0.3056 -0.1905  0.2183
12943W        W29417   8.063   5.130  15.729 -0.0390 -0.1334  0.1646
12944W        W29418   7.170   9.046   2.642 -0.2203  0.0428 -0.0719
12945W        W29419  16.965  17.481   0.371 -0.0314  0.1860  0.3172
12946W        W29420   2.847  11.061  15.096 -0.1210 -0.0208 -0.0429
12947W        W29421  12.313   3.483   2.533 -0.0640 -0.1062  0.3694
12948W        W29422  17.072  12.186  10.945 -0.1048  0.0808 -0.2458
12949W        W29423   0.905   9.777  13.646  0.0663 -0.2263 -0.0897
12950W        W29424  11.082   1.108  12.532 -0.2816 -0.1910  0.2549
12951W        W29425  12.764   8.505   0.704  0.1023 -0.1201  0.2380
12952W        W29426   6.275   9.468  11.307 -0.0742  0.0213 -0.1423
12953W        W29427   3.099   2.872  12.352 -0.2964  0.1094 -0.0360
12954W        W29428  12.928   1.276   0.833 -0.2780 -0.3146  0.1311
12955W        W29429   1.466   4.238  12.271 -0.1244  0.0521 -0.2239
12956W        W29430  15.631  12.033   5.643 -0.2346 -0.3742 -0.1476
12957W        W29431   9.031  16.742  14.721  0.1155 -0.1637 -0.0689
12958W        W29432  12.613  15.381  14.247  0.1668 -0.0807  0.1740
12959W        W29433   1.137   8.926  12.281 -0.0135  0.0530 -0.4397
12960W        W29434   5.465  17.413   2.886 -0.0507  0.2344 -0.3362
12961W        W29435  17.609   6.607   2.538 -0.1055  0.1453  0.0070
12962W        W29436  13.184  16.422  13.486  0.0938 -0.1066  0.2113
12963W        W29437  11.793  14.211   4.590 -0.0432 -0.0178  0.1963
12964W        W29438   4.595  12.122  12.331 -0.0619 -0.2596 -0.1922
12965W        W29439  12.609   4.630  11.355  0.0389  0.0648  0.1669
12966W        W29440   3.088   9.549   2.486 -0.2071 -0.1632 -0.1951
12967W        W29441   7.416   0.904   1.856 -0.0604 -0.1535 -0.1714
12968W        W29442   6.877   3.015  15.125 -0.1685 -0.0975 -0.0662
12969W        W29443   1.332   5.394  12.566  0.0408  0.3089  0.0052
12970W        W29444  17.207  15.545   4.375 -0.2158  0.0592  0.1844
12971W        W29445   3.307   1.642  15.003  0.2233 -0.2396 -0.2094
12972W        W29446   5.751  18.079   5.484  0.1991 -0.0779  0.0530
12973W        W29447   8.842  17.867  14.215 -0.0090  0.0397 -0.0021
12974W        W29448  10.811  16.153   4.909 -0.3203  0.1205 -0.0243
12975W        W29449   4.912   9.953   5.114  0.0194  0.0550  0.4083
12976W        W29450  15.038  14.200  11.255 -0.1456 -0.0828  0.1098
12977W        W29451  12.621  10.693  15.156  0.0677  0.0176 -0.3279
12978W        W29452   8.268  16.159   5.328  0.1932  0.1231  0.2284
12979W        W29453   4.542  16.319   1.776 -0.0322  0.2190  0.1029
12980W        W29454   6.693   7.084  11.135 -0.0209 -0.1602  0.0403
12981W        W29455   0.772  11.306   3.764 -0.0495  0.2353 -0.1559
12982W        W29456   2.699   7.441   2.367  0.1196  0.0737 -0.1504
12983W        W29457   6.929  10.748   4.872 -0.2035 -0.1407  0.0414
12984W        W29458   9.893   3.991   4.526  0.5821  0.1142 -0.0264
12985W        W29459   8.628   8.892   0.464  0.1114  0.0781 -0.1034
12986W        W29460   7.416   0.011  11.953  0.1445  0.1165 -0.0968
12987W        W29461  10.980  12.046   3.736  0.1987 -0.0961  0.1651
12988W        W29462  16.473   6.870  11.960 -0.1260  0.3602  0.1341
12989W        W29463   8.256   2.159  14.763  0.0340 -0.0090 -0.2848
12990W        W29464   5.300  17.126   1.352  0.0650 -0.0445 -0.2038
12991W        W29465  14.272  15.993  13.544  0.2535  0.1850  0.0687
12992W        W29466   3.103  10.529  11.912  0.1063 -0.0761 -0.1619
12993W        W29467  14.755   2.425  15.485 -0.1212 -0.2487 -0.2529
12994W        W29468  12.010  12.057  13.568  0.1015 -0.0079 -0.1909
12995W        W29469   8.889  17.938  12.605 -0.0849  0.1337 -0.3330
12996W        W29470  16.000  15.479   0.407  0.1279  0.0299  0.0667
12997W        W29471  10.184   4.091  12.608  0.0147  0.2446  0.2728
12998W        W29472   8.197   2.315   1.970 -0.2233 -0.2895  0.3268
12999W        W29473   0.649  16.985   4.519 -0.0224 -0.1470  0.1866
13000W        W29474   7.989   9.909   3.173 -0.0109 -0.1628 -0.0138
13001W        W29475  16.068   7.051  10.168  0.0132  0.2124  0.0059
13002W        W29476  16.747  12.492  12.845  0.2068  0.1457  0.0643
13003W        W29477  18.309   7.602  13.382  0.1915  0.2774  0.1916
13004W        W29478   3.729   3.599  13.277  0.0477 -0.1848  0.1090
13005W        W29479  13.330   6.807   2.397  0.2453 -0.1535  0.0948
13006W        W29480   5.418  10.955  14.908  0.0603 -0.0583  0.1139
13007W        W29481   6.613   1.139  11.827  0.0372  0.2632  0.4432
13008W        W29482   1.483   8.862  15.136 -0.0355  0.0430 -0.4407
13009W        W29483   9.279  11.339  15.196  0.1687  0.1539 -0.2701
13010W        W29484  11.624  13.817   2.187  0.1598 -0.0805  0.1154
13011W        W29485   2.543   0.598  14.480 -0.2037 -0.2560 -0.1753
13012W        W29486  11.286   5.953   5.089 -0.2849  0.2810 -0.1578
13013W        W29487   0.365   2.066   4.428 -0.0110  0.0644  0.1228
13014W        W29488   8.966   9.636   2.974 -0.1841 -0.4238  0.0546
13015W        W29489  13.262   1.190  13.110  0.1907 -0.1307  0.2042
13016W        W29490   1.402  13.589   4.227 -0.1099 -0.0819 -0.0585
13017W        W29491   3.517  15.702  11.066  0.0667 -0.2622  0.1000
13018W        W29492  12.502   0.918   9.785  0.2325 -0.0670 -0.0566
13019W        W29493   1.624   6.115  12.877  0.0246  0.3759 -0.0097
13020W        W29494  17.101  10.550   1.818  0.0585  0.2329  0.0657
13021W        W29495   9.740  15.550  12.171 -0.1653  0.3004  0.0829
13022W        W29496  10.024  11.651  11.013  0.1413  0.1193 -0.1156
13023W        W29497   9.930   8.827   2.011 -0.3087 -0.3327 -0.0132
13024W        W29498   6.849   5.694  11.835  0.1411  0.1554 -0.1879
13025W        W29499  10.622  13.150  12.317  0.1984 -0.1919  0.1890
13026W        W29500   1.869  15.397  13.232  0.0697 -0.0937  0.2334
13027W        W29501   0.773   4.211  12.734  0.0540 -0.0422  0.0802
13028W        W29502   7.120  11.009  15.930 -0.0098  0.1451  0.2070
13029W        W29503   1.159  16.589   0.904  0.3486 -0.1793 -0.0848
13030W        W29504  14.786   3.063  14.063 -0.0640 -0.0997  0.0162
13031W        W29505   6.955  16.440   3.955 -0.1702  0.0012 -0.1345
13032W        W29506  15.631  14.735   2.523  0.1115  0.0296  0.0561
13033W        W29507   9.347  17.241   1.733 -0.0736  0.1507  0.1871
13034W        W29508  12.931  16.027   5.379 -0.3913  0.1103 -0.0101
13035W        W29509  11.604   0.548  14.044 -0.1737 -0.1192 -0.0647
13036W        W29510  10.353  17.326   4.938  0.2093  0.1836 -0.3476
13037W        W29511   4.997  14.239  10.737 -0.0954  0.3241 -0.0884
13038W        W29512   0.992  10.540   0.357 -0.4179  0.0704  0.3395
13039W        W29513  11.650   5.116   0.291  0.2152  0.0746 -0.2100
13040W        W29514   7.987  17.592  13.558  0.0852  0.1096  0.0871
13041W        W29515   7.936   3.130  14.000  0.0354  0.1425  0.1640
13042W        W29516  16.300   4.041  15.742 -0.0948  0.0179  0.2550
13043W        W29517  10.715   2.891  12.777 -0.0536  0.1630  0.0783
13044W        W29518   0.907   6.958  15.227 -0.0434 -0.3966 -0.0830
13045W        W29519  15.049   1.610  10.075  0.1404 -0.1255 -0.3414
13046W        W29520  12.086   5.276  15.016  0.0556 -0.2460 -0.0855
13047W        W29521   0.562   6.653  14.919  0.5040 -0.0628  0.0067
13048W        W29522  15.115   3.792   4.588  0.0117  0.0174  0.1652
13049W        W29523  12.851  14.912   4.831  0.0995 -0.1639  0.1748
13050W        W29524   5.502  12.552   1.109  0.0998  0.0096 -0.3822
13051W        W29525  13.003   2.116   4.023  0.1091 -0.0113 -0.4871
13052W        W29526   6.354  12.249  15.637 -0.0466  0.1052 -0.0763
13053W        W29527   6.648  11.968  13.695 -0.0441 -0.2926  0.0753
13054W        W29528  17.640   6.829  13.515  0.1200 -0.2093 -0.4239
13055W        W29529  11.272  17.422  14.352 -0.1732  0.0909 -0.1541
13056W        W29530  16.411  16.074   0.689 -0.2029  0.2050  0.2341
13057W        W29531   2.829   0.594   0.585 -0.1876 -0.1600  0.0985
13058W        W29532   0.167  16.532  15.414 -0.3550  0.0654 -0.4917
13059W        W29533   8.026   1.249  11.208 -0.2295  0.2878  0.0727
13060W        W29534   4.788  16.801   1.890 -0.1127  0.0694  0.1783
13061W        W29535  13.804   4.634   0.327 -0.0160  0.1538 -0.1985
13062W        W29536   5.249   5.828  13.773  0.0312  0.4618 -0.1868
13063W        W29537  17.059  13.187  11.776  0.0254 -0.0723  0.2220
13064W        W29538   7.953   5.725   3.033  0.2078  0.0659 -0.4322
13065W        W29539  15.138  10.706   3.646  0.1742  0.1602  0.0639
13066W        W29540  10.751   8.176   3.068  0.0012  0.2071 -0.1482
13067W        W29541   3.861   7.282   3.596  0.3101  0.0224 -0.0542
13068W        W29542  11.834  13.341  12.374  0.0557  0.0859  0.1808
13069W        W29543   9.641  12.919  15.757  0.3302 -0.0613 -0.3164
13070W        W29544  12.851   7.831  12.461  0.1082  0.0505  0.2512
13071W        W29545   7.964  15.287  15.719 -0.1497  0.1069 -0.0118
13072W        W29546  16.409   1.229   4.552  0.1878 -0.0193  0.0069
13073W        W29547  15.811   3.288  13.646 -0.0878  0.2376 -0.1714
13074W        W29548   5.496  18.443   1.987 -0.0016  0.0134 -0.2291
13075W        W29549   2.275   2.562  12.070 -0.2497 -0.1250  0.0454
13076W        W29550  13.175  17.170   3.780  0.1745 -0.1267 -0.1186
13077W        W29551   5.915  14.583  11.496  0.1768  0.1148 -0.1183
13078W        W29552  14.239  12.397  13.013  0.0926  0.2014  0.0649
13079W        W29553   1.208  13.580   0.017  0.1733 -0.3874 -0.0293
13080W        W29554   6.198   3.946  12.745  0.2193 -0.0044 -0.5171
13081W        W29555   6.421   1.573  12.836  0.3477  0.0874  0.0188
13082W        W29556   9.561   1.395  14.388  0.1062 -0.0528  0.1223
13083W        W29557  15.937   3.740   0.033 -0.0724 -0.0585  0.0236
13084W        W29558   1.787   6.328  13.765 -0.2164  0.1057  0.0434
13085W        W29559   8.567  16.047  12.563  0.0224  0.3595  0.1389
13086W        W29560   9.303   8.404   3.813  0.0280  0.2087  0.2585
13087W        W29561   9.196   5.236   2.786 -0.0853 -0.0543  0.0579
13088W        W29562   5.899  11.099   4.386  0.1055  0.2278 -0.2055
13089W        W29563   3.890  13.052  13.923  0.1846  0.1171 -0.0235
13090W        W29564  11.013   9.145   5.094  0.1372 -0.1325  0.1796
13091W        W29565   1.336  17.406  12.212 -0.1812 -0.0104 -0.3115
13092W        W29566   5.504  11.217  12.954  0.3461 -0.1510  0.2046
13093W        W29567  10.151   8.370   5.378 -0.1479  0.0797  0.3045
13094W        W29568  11.506   9.401   2.173  0.0490  0.0244  0.0310
13095W        W29569   7.105   6.141   1.260 -0.0557  0.0960 -0.4384
13096W        W29570  14.015  16.017  11.575 -0.2433  0.3942 -0.3396
13097W        W29571   1.350   6.170  12.060  0.1210  0.0099  0.1413
13098W        W29572  16.874  11.392   2.029  0.0291 -0.1770  0.4039
13099W        W29573   8.603  17.313  11.001  0.1112 -0.3066  0.1233
13100W        W29574  11.100   8.243   4.638  0.0744 -0.1529 -0.1950
13101W        W29575  12.218   2.833   2.674  0.0046  0.2633  0.0053
13102W        W29576   7.576   0.495  11.688 -0.0289 -0.0972 -0.0816
13103W        W29577   6.956   6.796   4.535  0.0010  0.0652 -0.2466
13104W        W29578   1.149   5.370  13.050  0.1999  0.0990  0.2564
13105W        W29579  14.671   2.215   4.634  0.0532 -0.2932  0.0565
13106W        W29580   3.636   0.812   1.956 -0.1453  0.0219  0.0316
13107W        W29581  18.297  18.188   1.125 -0.2471 -0.1910  0.1277
13108W        W29582  15.479   4.899   3.029 -0.2291 -0.0966  0.1209
13109W        W29583   1.463   4.472  10.228 -0.1979  0.0727  0.1411
13110W        W29584   6.382  10.081  14.171  0.2558  0.0641  0.0454
13111W        W29585   2.544  11.185   3.907 -0.1008 -0.0677  0.1493
13112W        W29586   9.695  11.598  12.224  0.1778  0.0753 -0.1310
13113W        W29587  14.214  16.310  11.952  0.1599  0.0467 -0.1361
13114W        W29588   8.516  17.962  10.950  0.0145 -0.2530 -0.2159
13115W        W29589   0.171   6.820  13.351  0.0675  0.0627 -0.2523
13116W        W29590   0.880   9.042  11.372  0.0273  0.0574 -0.2576
13117W        W29591  17.710  15.980   0.223 -0.3068  0.1171 -0.0138
13118W        W29592  12.791  13.919  11.660  0.1722  0.0262  0.0563
13119W        W29593   3.416   8.941  15.233  0.1966 -0.2715 -0.0599
13120W        W29594   4.069   7.539   3.176  0.1646  0.1562  0.0007
13121W        W29595   5.905   4.338  12.541 -0.2562 -0.0139  0.1257
13122W        W29596  15.247   3.456  11.808 -0.0231 -0.3416  0.0230
13123W        W29597  11.876   2.551   0.626 -0.0850 -0.0168  0.2790
13124W        W29598  12.963   9.596  11.643  0.1815 -0.0491 -0.4032
13125W        W29599   9.220  12.301  12.928  0.0411 -0.1670 -0.0918
13126W        W29600  16.977   2.637  14.725 -0.0162 -0.0003 -0.2588
13127W        W29601  17.459   6.388  11.875 -0.0977  0.2140  0.0612
13128W        W29602  14.912   7.400  13.817  0.1634  0.0663  0.4721
13129W        W29603  17.113  14.852  10.802 -0.1476 -0.1718 -0.2973
13130W        W29604  13.579   0.802   4.472  0.1341  0.0651 -0.0645
13131W        W29605   2.975  15.281  13.905  0.4378 -0.0371  0.2455
13132W        W29606   6.038  10.404  12.396 -0.2538  0.1001 -0.0363
13133W        W29607   7.669   9.159   2.666  0.1573 -0.0235 -0.1939
13134W        W29608  13.710  11.458  12.442 -0.1371 -0.0170 -0.0577
13135W        W29609   4.739   3.595   0.168  0.0139 -0.1750 -0.0241
13136W        W29610   3.880   2.888  15.852 -0.0679 -0.0341 -0.0928
13137W        W29611  10.184   0.883  14.861  0.1949 -0.0503 -0.2870
13138W        W29612   0.655   2.493  13.410 -0.0859  0.1311 -0.0903
13139W        W29613   4.614   1.606   0.788 -0.0821 -0.0002  0.0439
13140W        W29614  11.110  10.713   3.491  0.0001 -0.0897  0.1246
13141W        W29615   1.033  15.877   0.353 -0.2744 -0.0628  0.1717
13142W        W29616  17.044   2.581   1.932 -0.3077 -0.2274 -0.3302
13143W        W29617   3.826  16.292  12.228  0.1403 -0.1079  0.2247
13144W        W29618   6.567  15.577   2.492 -0.1259  0.3089  0.2728
13145W        W29619   5.258  16.398  12.955 -0.1478 -0.0008  0.0731
13146W        W29620  17.505   0.176   5.577  0.3732  0.3478  0.1569
13147W        W29621   2.156   0.227  11.572  0.2622 -0.0583 -0.1030
13148W        W29622   3.593   7.422   3.016  0.1675 -0.1346 -0.1228
13149W        W29623  17.797   9.154   0.562 -0.2727  0.0409  0.0327
13150W        W29624   6.815   8.428   3.291 -0.0552 -0.0436 -0.1616
13151W        W29625   7.524  10.924  13.402 -0.1665  0.0314  0.4159
13152W        W29626  18.320  11.745   0.005  0.1123  0.2104 -0.2470
13153W        W29627  10.458   1.201   2.843  0.1609 -0.1019 -0.1687
13154W        W29628  11.223  11.467   5.560  0.0923  0.0521  0.2857
13155W        W29629  16.357   0.926  11.883 -0.0092 -0.3220 -0.4435
13156W        W29630   9.848  17.309  11.281  0.3470 -0.2094  0.0899
13157W        W29631  10.011   1.844   1.564 -0.3786  0.0059 -0.0370
13158W        W29632  11.646  10.764   1.296 -0.0154 -0.1140  0.3816
13159W        W29633  13.830  10.419   3.716 -0.0175 -0.1116 -0.2330
13160W        W29634  13.219  13.889   1.282  0.3339 -0.0028  0.1032
13161W        W29635   0.144  18.276   4.996 -0.4022 -0.0644 -0.4456
13162W        W29636  17.407   4.591   5.526 -0.1365  0.1008  0.0043
13163W        W29637   6.575  14.690   0.538 -0.0487  0.2085 -0.1539
13164W        W29638  12.840   5.650  13.554  0.2634 -0.1942 -0.0050
13165W        W29639  12.798   8.194  15.331 -0.1761 -0.1322 -0.1479
13166W        W29640   7.148   1.083   0.873 -0.3664 -0.0547 -0.0809
13167W        W29641  18.350   4.901   1.645  0.0473  0.1862  0.2936
13168W        W29642  16.169   3.076   3.541 -0.0593 -0.1650 -0.2219
13169W        W29643   4.960  18.408  14.677 -0.1917 -0.0379  0.2490
13170W        W29644   2.718  11.869  15.534  0.2271  0.0454  0.3353
13171W        W29645  14.903  13.782  11.911  0.2625  0.0536  0.2736
13172W        W29646   5.561  12.312   4.515 -0.2269 -0.1474  0.1045
13173W        W29647   7.143  11.178  14.418 -0.1610 -0.1376  0.0649
13174W        W29648  14.020  16.574  11.575 -0.0353  0.2983  0.0100
13175W        W29649  16.860  11.225   4.762  0.3671 -0.0044 -0.3851
13176W        W29650   7.758  12.355  12.928 -0.0617 -0.0408 -0.1383
13177W        W29651  15.120   5.057   0.147 -0.0495 -0.1049  0.0418
13178W        W29652   6.366  10.492   5.567  0.3937  0.2998 -0.3275
13179W        W29653   3.611   1.293   2.198  0.4863  0.0069  0.0031
13180W        W29654  15.796  14.766  12.283 -0.1783 -0.0875  0.1597
13181W        W29655   7.156   3.430   2.143  0.2769 -0.0460  0.1619
13182W        W29656   0.686  11.352  12.371 -0.0430 -0.0412  0.3849
13183W        W29657   1.837  13.330   5.048  0.1335  0.0497  0.1748
13184W        W29658  17.231   0.030   2.244  0.1963 -0.3953 -0.3426
13185W        W29659   4.093   3.076  12.171  0.0777  0.0515  0.2295
13186W        W29660  16.195  16.085  12.427 -0.0633  0.2948 -0.3334
13187W        W29661  13.657   5.245   1.344 -0.0504 -0.1027 -0.0116
13188W        W29662  15.558   0.979   0.028  0.0223  0.0845 -0.1032
13189W        W29663  11.607   7.623   0.792  0.1107  0.0544  0.0054
13190W        W29664   7.334  14.037  14.739  0.1584 -0.2249  0.1256
13191W        W29665  17.542  13.118   4.708 -0.0840 -0.1495 -0.1158
13192W        W29666   5.736  16.342  15.599 -0.3437 -0.1006  0.0561
13193W        W29667   8.421   6.546   1.182 -0.1093 -0.0402  0.3292
13194W        W29668  11.689  17.612   1.309  0.0154 -0.0092 -0.0378
13195W        W29669   3.395   5.830  14.803 -0.0194 -0.1136 -0.1044
13196W        W29670   8.977  10.848  14.001 -0.1212 -0.1670  0.0325
13197W        W29671   4.336  17.673  14.569 -0.0429 -0.1697  0.1571
13198W        W29672  17.109   2.931   2.227  0.0380 -0.1043  0.3069
13199W        W29673  11.334   8.697  12.038 -0.0795 -0.2690 -0.0165
13200W        W29674   2.632  14.277  13.757 -0.0695 -0.0979  0.1244
13201W        W29675   0.658   2.110   2.845  0.1116  0.0334 -0.1994
13202W        W29676   6.126  14.526  13.261  0.2209  0.2176  0.3132
13203W        W29677  17.563  12.841   1.288  0.2118  0.2948  0.0457
13204W        W29678  11.510  10.220  14.234 -0.2079  0.2796  0.1692
13205W        W29679  17.993  10.416   1.232 -0.0788  0.1179 -0.0011
13206W        W29680  11.488   2.902   0.003  0.0948  0.0181 -0.0635
13207W        W29681  12.705   6.392  12.407  0.0896  0.1762 -0.0159
13208W        W29682  12.279  11.528   3.193  0.5690  0.1902  0.2064
13209W        W29683   0.266  18.332  12.748  0.0796 -0.0016 -0.0658
13210W        W29684  10.766  15.342  14.389 -0.0714 -0.2544 -0.0298
13211W        W29685   6.358  10.385   0.866 -0.2615 -0.1037 -0.0040
13212W        W29686   7.507  14.287   3.086 -0.0287  0.3185 -0.2182
13213W        W29687  17.781   7.612  13.072 -0.1694 -0.0126  0.2144
13214W        W29688  17.404   7.124   4.674 -0.0268  0.1257  0.0201
13215W        W29689  10.137  12.748  13.084 -0.0678 -0.2020  0.3588
13216W        W29690  13.328   4.551   4.875  0.0405 -0.0490 -0.1326
13217W        W29691  14.000   2.899  11.878 -0.0021 -0.2431  0.0916
13218W        W29692   7.567  16.765   4.352 -0.1777 -0.0591 -0.1574
13219W        W29693   3.207   9.803  13.582  0.0650  0.0111 -0.0838
13220W        W29694   1.381   7.432  12.132  0.0335  0.0807  0.2232
13221W        W29695   5.239   0.501  11.182  0.1618 -0.1770  0.1020
13222W        W29696   7.044   1.550   3.143 -0.2345 -0.2905  0.3043
13223W        W29697   4.008   7.035   2.207  0.1304 -0.1180  0.0789
13224W        W29698  15.863  15.196   2.048 -0.0087 -0.0341 -0.0786
13225W        W29699  14.215   7.344   4.797  0.1194  0.2068  0.0041
13226W        W29700   7.310   9.329  15.421 -0.0145 -0.0099 -0.0844
13227W        W29701  16.992  17.466  11.930 -0.1311  0.2616  0.1926
13228W        W29702   0.224   7.053   2.857 -0.2543 -0.0494 -0.0443
13229W        W29703  10.035   0.208   1.159  0.0865 -0.1474  0.1104
13230W        W29704  10.053   8.935  13.867 -0.2118 -0.0090  0.2030
13231W        W29705   0.426   5.760  11.925  0.0074  0.2561  0.0060
13232W        W29706   6.043  13.804   2.725 -0.5170 -0.3023  0.4793
13233W        W29707  11.942   5.200   4.925 -0.0850  0.2667 -0.0620
13234W        W29708   3.417   9.044   4.213  0.0123 -0.2607  0.0622
13235W        W29709  18.226   7.192   0.994 -0.0820  0.1361 -0.0472
13236W        W29710   7.258   8.468  15.712 -0.0768 -0.0456  0.2042
13237W        W29711   1.838   3.935   1.592  0.0629  0.1941 -0.2297
13238W        W29712  15.556   3.546   4.314 -0.0579  0.0021 -0.0105
13239W        W29713  10.643  13.678  11.592  0.1605  0.0920 -0.1687
13240W        W29714   6.601  17.387  13.529 -0.2398  0.2231  0.2707
13241W        W29715  14.560  17.127   3.452  0.4122 -0.2960  0.0432
13242W        W29716   3.991   6.722  10.731  0.2006 -0.0746  0.0242
13243W        W29717  16.372   5.089  14.865 -0.0583  0.1681 -0.2266
13244W        W29718   8.964   3.083  12.070  0.0320  0.0843  0.1816
13245W        W29719  12.312   1.202   1.695 -0.0618  0.0233  0.0643
13246W        W29720   1.842   2.742   2.671 -0.1423 -0.2026  0.1874
13247W        W29721  13.546   5.358  14.258 -0.3541 -0.1106 -0.1989
13248W        W29722   7.290  18.440   0.222 -0.1030 -0.0073 -0.1751
13249W        W29723  11.620   3.747   4.156  0.0291  0.2689  0.1971
13250W        W29724   6.767   5.415  12.239 -0.1370  0.3760 -0.0540
13251W        W29725  13.846  17.234  12.103 -0.1851 -0.2666 -0.0892
13252W        W29726   6.466   0.360   4.289  0.1204 -0.2419  0.0870
13253W        W29727   8.664   3.764   0.238  0.3195  0.1801 -0.1147
13254W        W29728   8.752   8.346   5.031 -0.0865 -0.0685 -0.1853
13255W        W29729  14.547  15.606   0.715 -0.2131  0.0541  0.2027
13256W        W29730   6.123   4.943  15.872  0.2694 -0.1307 -0.1740
13257W        W29731   8.086   8.441   4.511 -0.1328 -0.4136 -0.1005
13258W        W29732  12.887  16.631   4.824  0.1305 -0.0671 -0.0564
13259W        W29733  13.963  16.170   5.344 -0.2042  0.1064 -0.2966
13260W        W29734   0.305   7.010   4.785  0.0785 -0.0069  0.2467
13261W        W29735  17.974   1.655  13.696 -0.4973  0.0425  0.0785
13262W        W29736   0.600  13.452   1.980  0.0694 -0.1433 -0.1289
13263W        W29737   9.923   1.548  13.951 -0.0027  0.0404 -0.2512
13264W        W29738  17.296  18.453  11.503  0.0134 -0.3248 -0.1744
13265W        W29739  16.052   5.811  14.502 -0.3355  0.0577 -0.2694
13266W        W29740  15.506  11.374   0.177 -0.0239  0.1591  0.0976
13267W        W29741   2.333  17.313   1.271  0.0491 -0.0825 -0.1156
13268W        W29742   3.950  13.439   1.970 -0.3574  0.3611  0.1076
13269W        W29743  10.326   7.371  14.750 -0.0053  0.0951 -0.1148
13270W        W29744   4.848  14.652  15.520  0.1974 -0.0956 -0.0782
13271W        W29745   4.234  18.057  15.327  0.0073 -0.4922  0.2968
13272W        W29746   9.345   1.335   4.584 -0.1358 -0.1087 -0.1420
13273W        W29747   8.687   3.939   0.736  0.3552  0.0030  0.3614
13274W        W29748   0.836  11.521  11.869 -0.2131 -0.0013 -0.0260
13275W        W29749   8.966  11.372   2.803 -0.2334  0.2277 -0.2066
13276W        W29750   9.226   8.324  12.141 -0.0098  0.0329  0.2011
13277W        W29751   7.267   5.673  11.078 -0.2119 -0.0050  0.0225
13278W        W29752   7.516   3.176   5.135 -0.1170 -0.0869 -0.3007
13279W        W29753  14.165   0.064  12.789 -0.0107 -0.2047 -0.2789
13280W        W29754  16.119  11.530   4.377 -0.0599  0.3057 -0.2824
13281W        W29755  13.750   5.009  15.843 -0.0030 -0.0078  0.0134
13282W        W29756  13.402  17.437  14.353 -0.1636  0.0797  0.3067
13283W        W29757  12.646   8.016   2.290  0.2727 -0.0396  0.0348
13284W        W29758   9.370   8.729   4.240  0.1748  0.0222 -0.4340
13285W        W29759  10.020   7.843   5.226 -0.0144  0.2626  0.0060
13286W        W29760   0.255   8.483  12.399  0.1681 -0.0248 -0.0442
13287W        W29761   9.809   7.308   5.219  0.2563 -0.0067  0.0324
13288W        W29762  15.244   2.096  15.479 -0.0363  0.1856  0.1398
13289W        W29763   4.468   6.102  13.150 -0.0604  0.2485 -0.1735
13290W        W29764   3.359   3.281  14.535 -0.2765  0.0669  0.0200
13291W        W29765  14.279  12.106  11.207  0.0916 -0.1396 -0.0820
13292W        W29766   1.464  11.782  13.580  0.0614 -0.0665 -0.0163
13293W        W29767  10.681  18.317  14.187 -0.0806 -0.0874 -0.3374
13294W        W29768  14.475   7.875   4.073  0.0536  0.2018  0.2688
13295W        W29769  16.384   1.703  10.689  0.1820  0.3312  0.1488
13296W        W29770   1.744   1.234   2.161 -0.0458 -0.1934 -0.1673
13297W        W29771   9.703   7.229   1.396  0.3236  0.0694  0.1001
13298W        W29772  16.896   8.919  11.617 -0.0481  0.3592  0.0608
13299W        W29773   4.913   5.858  11.218 -0.0730 -0.1605 -0.0486
13300W        W29774   4.575   2.995   3.277  0.2013  0.0138 -0.1698
13301W        W29775  18.218   7.859  14.915 -0.1862  0.0057  0.0290
13302W        W29776   6.344   1.268   1.034 -0.1295  0.1003  0.0483
13303W        W29777  12.142   0.377   3.697 -0.1484  0.0717  0.1455
13304W        W29778   5.788  15.792   0.716 -0.0717  0.0162 -0.3141
13305W        W29779   4.836   7.522   3.882 -0.0571 -0.1283  0.2609
13306W        W29780   9.364   6.287   1.284 -0.0050 -0.0562  0.1882
13307W        W29781  14.271  14.744   5.644  0.1681  0.0848 -0.1574
13308W        W29782   1.474   9.373   4.326  0.0662 -0.2803  0.0251
13309W        W29783  10.699  14.373  14.825  0.1928  0.0629  0.2403
13310W        W29784   9.812  18.260  12.754 -0.3461 -0.0803 -0.0819
13311W        W29785   0.072   1.754   3.505  0.3577  0.0169  0.0254
13312W        W29786   9.009   1.921  13.960 -0.0417  0.3434 -0.0941
13313W        W29787   8.675  17.834  11.847 -0.1282 -0.1331  0.0294
13314W        W29788  16.000   6.446   1.490  0.1421  0.0688  0.3516
13315W        W29789   6.653  17.251   1.518  0.0485 -0.4678  0.1741
13316W        W29790   3.256   0.585   1.560  0.2570  0.1001  0.0870
13317W        W29791  15.844  11.903  13.974 -0.3148  0.2460  0.2464
13318W        W29792   1.259   9.896   1.917  0.3420  0.1673  0.4149
13319W        W29793   7.448  13.871  12.309  0.2388  0.1705  0.1513
13320W        W29794  17.245   9.414   4.833 -0.0035  0.0331 -0.0302
13321W        W29795  13.346  14.420   0.861 -0.2258  0.0282  0.1178
13322W        W29796  10.735  16.833  13.703  0.1290  0.2540  0.0584
13323W        W29797   2.400   0.973  11.865 -0.0037  0.0463  0.3151
13324W        W29798   7.788   7.981  10.600 -0.0772 -0.5401 -0.1135
13325W        W29799   6.480   7.117  12.854  0.2263  0.0338  0.0306
13326W        W29800   5.325   6.341   1.854  0.1050 -0.0454  0.0225
13327W        W29801  12.577  10.954  13.390 -0.5182 -0.0092 -0.2402
13328W        W29802  10.332  15.599   3.708 -0.0922  0.1891  0.2073
13329W        W29803  18.346  13.856   1.060 -0.0212 -0.0969 -0.3479
13330W        W29804   4.668  15.376  14.649  0.0489 -0.1926 -0.0980
13331W        W29805   8.705   6.231  11.075  0.2204 -0.3720 -0.0111
13332W        W29806   2.769   5.767   3.200  0.0197  0.0780 -0.2338
13333W        W29807   3.515   3.964   1.124 -0.1001 -0.0186 -0.3573
13334W        W29808   2.662   0.285  13.733 -0.3771  0.2446 -0.0492
13335W        W29809   1.526   3.306  11.923 -0.0415  0.1088 -0.0574
13336W        W29810  11.030  11.290  14.848  0.1320  0.2004 -0.2770
13337W        W29811   6.412  15.091  15.398 -0.0834 -0.3589 -0.0286
13338W        W29812   2.860   3.566  11.649  0.1133 -0.0317  0.2751
13339W        W29813   7.289   8.974   1.272 -0.1755  0.1141 -0.0706
13340W        W29814   2.331  17.993   1.115  0.2962 -0.2267 -0.0223
13341W        W29815  16.032   4.177   0.936 -0.2994 -0.2712 -0.1491
13342W        W29816  11.129  11.047   2.894  0.3662  0.0747 -0.0033
13343W        W29817   9.123  18.336   0.820  0.0168 -0.0867 -0.0758
13344W        W29818  12.870  17.277   4.295  0.2949  0.0199 -0.2566
13345W        W29819  11.630   9.343   0.053 -0.1866 -0.0526  0.1261
13346W        W29820   2.091   0.594  15.234  0.1853 -0.0262 -0.2459
13347W        W29821  17.145  18.056   4.159 -0.0748  0.1234 -0.1695
13348W        W29822   2.500  10.709  15.134 -0.2443 -0.1288 -0.0332
13349W        W29823   2.257  11.656  15.535 -0.0704  0.0963 -0.0391
13350W        W29824  13.126   3.619   5.317  0.0180 -0.0375  0.1032
13351W        W29825  16.961  10.778  11.081  0.2934  0.0322  0.0423
13352W        W29826  11.183  17.911   3.771 -0.0076 -0.1082 -0.0212
13353W        W29827   4.590  12.707  14.380  0.1043  0.2369  0.0062
13354W        W29828  15.804  12.208  15.889 -0.2031 -0.0601 -0.1825
13355W        W29829  16.360   7.771   0.858  0.1308  0.1469 -0.0327
13356W        W29830   0.360   6.684  11.776 -0.1082  0.0975 -0.0500
13357W        W29831  15.299   0.612  13.160  0.0317 -0.0002 -0.0626
13358W        W29832   9.604   2.733   1.741  0.3084  0.0482  0.0359
13359W        W29833   8.855  14.367   0.245 -0.2461 -0.1010 -0.1442
13360W        W29834  13.480   9.792  14.163 -0.1062 -0.1945 -0.0567
13361W        W29835  11.660   0.611  11.457  0.0209  0.0700 -0.0319
13362W        W29836   1.910  12.529   5.553  0.1230 -0.1256  0.2383
13363W        W29837   1.026  10.356   3.570 -0.1366  0.0749  0.2539
13364W        W29838   4.537  10.690  10.926 -0.1903  0.0062  0.1625
13365W        W29839   1.082   0.212   3.229 -0.0014  0.1090  0.1814
13366W        W29840   5.718   3.432   0.743  0.1372 -0.0084  0.1055
13367W        W29841   8.433   7.652  13.585 -0.0255 -0.1758 -0.1770
13368W        W29842   7.470   1.181   3.169 -0.0454 -0.0247 -0.0076
13369W        W29843   6.602   1.855   2.421  0.2109  0.0982  0.0096
13370W        W29844  16.225  11.352  12.364  0.1703 -0.0721  0.0717
13371W        W29845   2.019   6.874  14.700  0.1405  0.2367  0.0993
13372W        W29846   3.215   5.776   1.659  0.3404  0.0884  0.1961
13373W        W29847  10.359   0.418   5.034 -0.0750 -0.1578 -0.0904
13374W        W29848   9.161   1.719   5.863  0.1978 -0.1583 -0.0191
13375W        W29849  17.941   6.427   0.508  0.0276  0.2018  0.1120
13376W        W29850   9.918  12.007   0.811  0.2749 -0.0165  0.0516
13377W        W29851   9.551   6.287  15.037  0.0850  0.0155 -0.0029
13378W        W29852  11.635  17.808  14.490 -0.1314  0.2846  0.1032
13379W        W29853   3.673   4.572  13.015  0.1358 -0.1994  0.0351
13380W        W29854   0.773   6.544  10.693  0.0659 -0.2226  0.0740
13381W        W29855   7.227  12.488   2.877 -0.2992  0.3173 -0.2474
13382W        W29856   6.337  11.821   1.043 -0.0834  0.0921 -0.2952
13383W        W29857   3.686   1.367   1.214 -0.0711 -0.2114 -0.1648
13384W        W29858   7.345   7.985  13.445 -0.0553 -0.0713 -0.1585
13385W        W29859   0.278   8.396   0.319 -0.2417 -0.0495  0.2074
13386W        W29860   1.298  15.460   0.188 -0.3171  0.1926  0.1408
13387W        W29861   4.497   6.358   1.000 -0.1955 -0.1223  0.1582
13388W        W29862  11.930   4.734  13.711  0.3081  0.6177  0.0418
13389W        W29863   0.187  14.708   1.220 -0.0461  0.1022 -0.1245
13390W        W29864  17.188  13.484   2.300 -0.1210  0.2680 -0.0030
13391W        W29865  10.140  16.233  14.315  0.0481  0.3238  0.0230
13392W        W29866  10.920   8.518  12.378  0.0508 -0.3165  0.0504
13393W        W29867   1.937  12.293   2.614  0.0511 -0.0819  0.0563
13394W        W29868  18.007   4.253   0.171  0.1756  0.1700  0.1407
13395W        W29869  18.181  17.493   5.479  0.1198  0.2509  0.0817
13396W        W29870  17.054   8.145   5.974 -0.2484  0.0343 -0.3643
13397W        W29871   6.207   9.628  12.760 -0.2165  0.0599 -0.0455
13398W        W29872   1.467   1.263   5.879  0.2683 -0.3793  0.0399
13399W        W29873  11.618  14.254   0.813  0.6579  0.0685  0.0421
13400W        W29874  16.997  10.393   4.924  0.3905  0.3262  0.2059
13401W        W29875   3.272   7.857   5.055  0.3607  0.0348 -0.0613
13402W        W29876   5.580   9.707   0.936  0.4225  0.0359  0.3268
13403W        W29877   9.053  12.272   4.575 -0.0673  0.0566  0.2639
13404W        W29878   2.569   6.848  14.274  0.0720  0.2453 -0.1894
13405W        W29879  10.061   2.545   1.533  0.0268 -0.0768  0.0298
13406W        W29880  14.614  12.739   2.617  0.1309  0.0897 -0.1756
13407W        W29881  10.250  14.099   0.322  0.1166  0.0487 -0.0237
13408W        W29882   7.815   7.446   0.409  0.1154  0.1169 -0.0201
13409W        W29883  11.449  18.469  13.596 -0.0084  0.1426  0.1659
13410W        W29884   2.530  16.622   1.980 -0.3269  0.1921  0.1885
13411W        W29885   3.103  13.594  12.107  0.2648 -0.0114 -0.1279
13412W        W29886  13.136  11.542   1.462  0.0840  0.0288  0.1917
13413W        W29887   3.642   9.788  15.054 -0.0485  0.0494  0.0734
13414W        W29888   0.742   8.623  11.077  0.2777  0.0178  0.2409
13415W        W29889  10.839   0.546  10.287  0.0960  0.0419 -0.0149
13416W        W29890  12.601   4.698  12.354 -0.0580  0.0999  0.0085
13417W        W29891   1.841   9.604   2.453  0.0254  0.0998 -0.0505
13418W        W29892  18.402   7.149   0.522 -0.1791 -0.2585  0.1104
13419W        W29893   0.387   2.331  12.349  0.0781 -0.3186  0.0508
13420W        W29894   9.372   1.071  14.798 -0.1267 -0.1834  0.0191
13421W        W29895   6.554   8.265  11.182 -0.0920  0.0711  0.0497
13422W        W29896  12.827   3.571   1.116  0.1000 -0.1479  0.1657
13423W        W29897  17.027  14.048  11.838 -0.1450  0.0039  0.3105
13424W        W29898  16.621   5.898  12.265 -0.2977  0.0604 -0.2549
13425W        W29899   3.230   6.601   2.058 -0.1505 -0.4000 -0.0248
13426W        W29900   2.843  14.702  12.583  0.0393  0.1827  0.0593
13427W        W29901  11.948   4.118  15.594  0.1151 -0.0186 -0.1300
13428W        W29902  18.245   7.702  15.372  0.1272 -0.1410  0.0818
13429W        W29903   3.903   0.116  11.204  0.1161 -0.2109 -0.2227
13430W        W29904  11.967  13.902  15.539  0.2642 -0.2040  0.0759
13431W        W29905  13.397   5.342  13.756 -0.1027 -0.2505 -0.0105
13432W        W29906   1.283   3.913   2.558 -0.3351 -0.0471 -0.1444
13433W        W29907   6.916   5.366   0.168 -0.1964  0.1813  0.0076
13434W        W29908   2.417   1.103   4.874  0.0870  0.0973  0.1266
13435W        W29909  12.118   7.228  11.475  0.0304  0.0046  0.3438
13436W        W29910  11.413  17.682   1.730 -0.0077 -0.0907  0.1778
13437W        W29911   4.948  11.943   1.407  0.1356  0.2530 -0.1985
13438W        W29912  15.743   6.666  12.474 -0.1039  0.2151  0.1844
13439W        W29913   1.717   7.564  10.846 -0.0958  0.0108  0.0323
13440W        W29914  16.529  18.111  14.576 -0.0286 -0.0676 -0.2562
13441W        W29915  11.037  10.368   1.385 -0.1128  0.4956 -0.0420
13442W        W29916   0.672  17.598   4.066  0.3146 -0.1026 -0.0339
13443W        W29917  12.249  10.925  13.883 -0.1951  0.0748 -0.0705
13444W        W29918  15.913  16.659   3.939  0.0754 -0.0755  0.0080
13445W        W29919   5.925  12.502  14.786  0.1131  0.0047  0.0449
13446W        W29920  13.221   2.313  11.666 -0.2058 -0.1526  0.0033
13447W        W29921   9.116  17.121  10.884  0.1837  0.1806  0.3316
13448W        W29922   6.235   9.069   2.185 -0.2444 -0.2644 -0.0059
13449W        W29923   7.197   8.505   1.426  0.2470 -0.1460  0.3117
13450W        W29924   7.017   9.236   4.357  0.0308 -0.1577 -0.0288
13451W        W29925   0.126   7.853   2.960  0.2049 -0.1206  0.0270
13452W        W29926   1.924  14.411   2.552 -0.1952  0.0795  0.4418
13453W        W29927  16.039  16.266   5.054  0.4071  0.1053  0.1559
13454W        W29928  16.332   0.495  13.119 -0.1013 -0.0663 -0.1514
13455W        W29929  15.503  15.396   2.398 -0.2026 -0.0687  0.5712
13456W        W29930   6.943   0.842  15.401  0.1891  0.0085 -0.3045
13457W        W29931  14.146   3.933   1.357 -0.2476  0.1909  0.1697
13458W        W29932  16.174  17.740   3.883 -0.1843 -0.1693  0.0559
13459W        W29933  11.592   6.906  13.545  0.2390  0.1437 -0.2134
13460W        W29934   3.222   5.142  11.133  0.0073 -0.0387  0.1313
13461W        W29935   0.388   3.188   0.739  0.1897 -0.1258 -0.0479
13462W        W29936  15.127  17.562   1.037  0.3039  0.0949 -0.0617
13463W        W29937   5.351   1.880  14.671 -0.1055 -0.2193 -0.2590
13464W        W29938   2.065  16.697   0.569 -0.0300  0.1428 -0.0932
13465W        W29939  12.511   6.839   2.585  0.0359 -0.2518  0.3130
13466W        W29940   0.144  10.689  12.207 -0.1620 -0.0026 -0.0217
13467W        W29941   5.420  16.223   1.303  0.2858  0.1995  0.2396
13468W        W29942   1.447  18.205   1.509  0.1591 -0.2691 -0.2949
13469W        W29943  10.186  10.739  11.374  0.0297  0.2713  0.3369
13470W        W29944   6.209   5.850   0.546  0.2795  0.2222 -0.1922
13471W        W29945   1.414  17.828  11.041  0.1776 -0.1782 -0.0689
13472W        W29946   2.323  14.676   1.621 -0.0262 -0.1539  0.1828
13473W        W29947  17.449  10.540  14.331  0.1521 -0.0591  0.0364
13474W        W29948  13.323   4.313   1.177  0.0440  0.0661 -0.0649
13475W        W29949  13.672   4.531   2.585 -0.0647 -0.0647  0.0290
13476W        W29950  14.119  13.860  12.888  0.2167 -0.1269 -0.1696
13477W        W29951   4.596   3.290  12.783  0.1102  0.0960 -0.2941
13478W        W29952   6.709  16.169   4.800 -0.1140  0.0984 -0.0596
13479W        W29953  14.004   3.560  12.675  0.2396 -0.1512  0.3135
13480W        W29954  15.616  11.659   4.561 -0.1443  0.2443  0.0851
13481W        W29955   8.273   0.998   1.494  0.0898  0.1377 -0.2048
13482W        W29956   5.751   2.221  13.755 -0.5045  0.0399 -0.0367
13483W        W29957  15.973  16.787  14.666 -0.0602  0.3638  0.2394
13484W        W29958  16.701  14.383  12.038  0.0990  0.0089  0.1813
13485W        W29959   6.559   0.749   2.441 -0.1535 -0.2151 -0.0601
13486W        W29960  13.009  11.279   2.863 -0.1274  0.0932 -0.2885
13487W        W29961  13.318   3.960  11.586 -0.1878 -0.1333  0.0920
13488W        W29962  17.586  10.043   2.565 -0.1245  0.0139 -0.2883
13489W        W29963   8.611   0.388  15.765 -0.0332  0.2373  0.1594
13490W        W29964   7.083  14.563  15.559 -0.2824  0.1721 -0.1034
13491W        W29965   0.821   8.186   4.177  0.0219  0.0769 -0.1387
13492W        W29966   9.213  16.043  13.415  0.0924 -0.1813 -0.1543
13493W        W29967   5.605  14.060  13.160 -0.2228 -0.0144  0.0736
13494W        W29968  16.381   2.837   4.980 -0.1112  0.0137 -0.1085
13495W        W29969   4.973  17.090  12.174 -0.0098 -0.0603  0.0309
13496W        W29970  16.133   4.938   0.701  0.1130 -0.1739 -0.1553
13497W        W29971  16.044   4.061  12.572 -0.0988 -0.0015  0.6368
13498W        W29972  11.247  13.996  13.329  0.0016  0.0213 -0.1577
13499W        W29973  16.941   5.789   6.048 -0.2866  0.1151  0.1025
13500W        W29974  13.534  13.213  14.995  0.0776 -0.5264  0.0441
13501W        W29975   8.232   5.975  15.135 -0.0758  0.0028 -0.0691
13502W        W29976  12.973  15.948  13.572  0.3181 -0.2831  0.1046
13503W        W29977  12.486   1.956  11.913 -0.1944 -0.1718 -0.2676
13504W        W29978  15.815   3.101   0.846  0.2465  0.0993  0.0929
13505W        W29979   8.880   9.307   0.650  0.1635 -0.1857 -0.2227
13506W        W29980   3.654  13.716   2.222  0.0392  0.1430 -0.2598
13507W        W29981   7.457   5.657   3.030  0.0617  0.2650 -0.0979
13508W        W29982  15.983  12.940  11.574 -0.0649  0.1725 -0.0375
13509W        W29983  13.589   6.627  14.950 -0.1593 -0.0528 -0.0969
13510W        W29984   0.214   3.107  15.063  0.2221  0.0037  0.1837
13511W        W29985  10.380   7.418  13.286 -0.0028 -0.0732  0.0842
13512W        W29986   7.885  11.319   0.145  0.0916  0.1373 -0.1351
13513W        W29987   1.227   1.546   2.785  0.1537  0.0690 -0.2633
13514W        W29988  18.411   1.608   3.062  0.0043 -0.1041 -0.0205
13515W        W29989   4.248   5.962  11.655 -0.0689 -0.2040 -0.1262
13516W        W29990  13.586  13.966   0.906 -0.3242  0.2720  0.0084
13517W        W29991   5.143  17.029  15.774  0.2764 -0.3224 -0.1391
13518W        W29992   2.162   3.015  15.648 -0.0398  0.0210  0.0883
13519W        W29993  13.632  14.452  14.439 -0.0659  0.1771  0.0486
13520W        W29994  16.565  13.043  15.020 -0.1663 -0.4003 -0.2255
13521W        W29995   8.666  17.245  12.136 -0.2860 -0.0626  0.1233
13522W        W29996  16.433   4.426  14.079  0.0247 -0.1433 -0.2438
13523W        W29997  12.941  15.872   0.168 -0.0271  0.2992 -0.0089
13524W        W29998   2.792   5.481   4.103 -0.0722  0.0538 -0.0372
13525W        W29999  14.731   2.787  12.118  0.3457  0.1404 -0.1217
13526W        W30000  10.089  14.118   1.537 -0.0915  0.2530  0.2755
13527W        W30001   8.121  10.807  12.460 -0.1506 -0.0590 -0.1199
13528W        W30002  12.781   9.521  13.501 -0.2225  0.0203  0.0436
13529W        W30003   0.278  14.068   4.703  0.0845 -0.3097  0.1813
13530W        W30004  14.306  17.209   4.386  0.1762 -0.2837 -0.0213
13531W        W30005   3.531  14.989  15.586  0.1855  0.1272  0.0047
13532W        W30006  17.050  10.746  15.481  0.3014  0.0124 -0.0398
13533W        W30007   5.308  13.892   2.284  0.1093  0.2572  0.0727
13534W        W30008  12.781   9.976  11.380  0.2507  0.1697 -0.0974
13535W        W30009   5.588   7.159  13.460  0.1121 -0.2188  0.1306
13536W        W30010   5.231  13.985   3.789  0.0570  0.1059  0.3276
13537W        W30011   8.648   1.742  14.333 -0.0654  0.0609 -0.3336
13538W        W30012   0.359   8.576  12.857 -0.2688 -0.0327 -0.1082
13539W        W30013   5.519  13.000  15.637  0.1166  0.1181 -0.0063
13540W        W30014   2.301  11.136   5.457  0.0374 -0.0095  0.1652
13541W        W30015  15.001   7.513   2.989 -0.0242 -0.0868 -0.2975
13542W        W30016  15.333   4.836   4.062  0.0699 -0.0560  0.0010
13543W        W30017  16.277  11.759  14.231 -0.2453  0.0458  0.3465
13544W        W30018  12.599   7.338   1.480  0.0934  0.0927 -0.3004
13545W        W30019   5.057   9.359  11.748 -0.0222 -0.1940 -0.2177
13546W        W30020   0.440  16.859   4.024  0.0110 -0.0340  0.0125
13547W        W30021  15.067   4.413  13.783  0.0406 -0.0437  0.1104
13548W        W30022  16.678   4.471  10.700 -0.2442 -0.2165  0.0038
13549W        W30023  10.122  10.284   4.153  0.3296 -0.1457  0.1427
13550W        W30024  17.518  14.454   3.617 -0.1615  0.0839 -0.0143
13551W        W30025  13.259   4.324  12.770  0.2611  0.2005 -0.0105
13552W        W30026   4.852   8.305  10.848  0.0465 -0.0373  0.2637
13553W        W30027  17.347   1.592  14.901  0.0573 -0.3795  0.2221
13554W        W30028  10.185   0.964   0.657 -0.1017 -0.0230 -0.2007
13555W        W30029  12.770  14.777   5.330 -0.2923 -0.1043  0.3173
13556W        W30030  10.975  13.395   3.766  0.1695  0.1218 -0.1228
13557W        W30031  16.663  17.890  15.096 -0.1547 -0.0520 -0.1618
13558W        W30032  13.869  13.206  11.736  0.0821 -0.1005 -0.1510
13559W        W30033   3.700  18.353   4.263  0.2711 -0.0475  0.1064
13560W        W30034   7.022   7.739   5.739 -0.0632  0.0292 -0.0441
13561W        W30035  15.353   9.963  13.994 -0.3382 -0.0938 -0.0420
13562W        W30036   8.797   3.141   4.891  0.3155 -0.3599 -0.2653
13563W        W30037   4.586   7.154  13.459  0.3842 -0.1293 -0.1167
13564W        W30038   9.966  18.369  13.521  0.0662  0.1526 -0.1366
13565W        W30039   9.825   3.622  13.816 -0.1776 -0.2347 -0.3675
13566W        W30040   2.960   1.767   1.244  0.1090  0.1852 -0.0008
13567W        W30041   8.394   1.799   1.830 -0.3387  0.2670  0.1291
13568W        W30042   8.425   7.571  14.608 -0.0914  0.0188 -0.1345
13569W        W30043  17.407  11.888   3.782 -0.0220 -0.0559  0.2481
13570W        W30044   3.089  17.023  15.327 -0.1176  0.2145 -0.1859
13571W        W30045   4.875   2.077   0.018 -0.0519  0.2407  0.1646
13572W        W30046  11.279  14.835   2.347  0.1395 -0.2397 -0.0677
13573W        W30047   5.305   3.299   0.406 -0.0329 -0.1252  0.0081
13574W        W30048   8.049   0.903  11.634  0.2144  0.0305  0.0849
13575W        W30049   5.833   8.311   0.552 -0.0514 -0.1717  0.3601
13576W        W30050  11.846   1.367   1.620 -0.1732  0.0184 -0.0540
13577W        W30051  14.985   0.210  11.764  0.0821  0.2501  0.0367
13578W        W30052  16.583   6.553   5.073  0.1081 -0.3484 -0.0894
13579W        W30053  12.056   0.516  13.320  0.3184 -0.0261 -0.3277
13580W        W30054   6.405   3.652  10.935  0.3988  0.0871 -0.1964
13581W        W30055  16.684   1.471   2.364 -0.1678  0.0144 -0.0282
13582W        W30056  15.563  11.855   5.075 -0.1015  0.2483  0.0342
13583W        W30057   3.363   0.258  15.564  0.0690  0.3575 -0.2369
13584W        W30058  12.316   2.999   2.226 -0.3470 -0.1428  0.1425
13585W        W30059   1.727  11.389   4.568  0.0347  0.2190 -0.1728
13586W        W30060  10.338   2.895   1.307 -0.0095 -0.0543 -0.1400
13587W        W30061  17.915   0.506   0.600 -0.0330 -0.0305 -0.1919
13588W        W30062   2.837   3.595  12.637  0.2460 -0.0173  0.1317
13589W        W30063   7.365   4.464   5.696 -0.2326 -0.1002  0.0398
13590W        W30064   0.935   1.262   5.365  0.0613  0.0257  0.1517
13591W        W30065   4.531   2.464   3.391  0.0663  0.3967 -0.0834
13592W        W30066  13.084   3.891  13.611  0.1180 -0.0047  0.1752
13593W        W30067   4.491   2.119  14.126  0.3020  0.0518 -0.2164
13594W        W30068  10.859   9.190   4.606  0.0840 -0.2468 -0.1179
13595W        W30069   8.946  18.321  15.803  0.1099  0.2306  0.1216
13596W        W30070  11.851   1.474  11.899  0.1071  0.0858 -0.4911
13597W        W30071   3.390  11.721   3.768 -0.1288 -0.0790  0.3933
13598W        W30072   6.515  18.343   0.794  0.1604 -0.1498 -0.0473
13599W        W30073   7.817   6.313   1.708  0.0885  0.2379 -0.0594
13600W        W30074   7.339   5.059   3.732 -0.2094  0.0230  0.2075
13601W        W30075   2.002   5.842   2.953 -0.2151 -0.0717  0.1446
13602W        W30076  11.831  16.728  15.187  0.0590 -0.3395  0.0416
13603W        W30077  13.607  12.274   5.047  0.2165 -0.0883  0.2761
13604W        W30078   0.460  14.646   0.804  0.1783 -0.0007  0.0908
13605W        W30079   8.172   4.364  13.353  0.0151  0.0222 -0.0802
13606W        W30080   5.841  17.815   1.179  0.3415 -0.1004 -0.1122
13607W        W30081   0.996   7.890   1.145  0.0183  0.1884  0.1469
13608W        W30082  16.478  12.658   5.820 -0.1662  0.0720 -0.1913
13609W        W30083   8.505   8.401  15.281  0.1025 -0.0140 -0.0362
13610W        W30084  10.621   0.876  14.186 -0.2357  0.1438 -0.1359
13611W        W30085   1.261  11.946   5.969  0.0765 -0.2081 -0.1187
13612W        W30086  12.021  13.832  10.523 -0.3459  0.2024  0.2101
13613W        W30087   0.807  11.625   1.468  0.1352 -0.1517  0.0607
13614W        W30088  12.290   6.469  14.060  0.0405  0.0644 -0.2963
13615W        W30089   4.740   3.132  15.960  0.0703  0.1404  0.2655
13616W        W30090   2.987   9.642   3.230  0.0288  0.0171 -0.0598
13617W        W30091  15.530   1.428   0.081  0.0300 -0.1402  0.0875
13618W        W30092   8.313  11.632  12.048 -0.3393  0.0219 -0.0213
13619W        W30093   9.637   5.292   1.903 -0.1598  0.0779  0.1419
13620W        W30094   5.946   3.560   2.104  0.0354  0.1871 -0.1147
13621W        W30095  10.349  16.737   0.059 -0.1908  0.0772 -0.2916
13622W        W30096   2.806   9.647  12.712  0.0254  0.0150  0.0097
13623W        W30097   3.767  12.563  10.696 -0.0825 -0.0688 -0.1954
13624W        W30098   6.078   3.211  12.771 -0.0797  0.0339  0.4330
13625W        W30099  13.118  13.021  12.275 -0.2597 -0.0568  0.0576
13626W        W30100   2.584  16.803   0.565 -0.1180  0.2242 -0.1333
13627W        W30101   0.506   1.869   4.996 -0.2393 -0.1031 -0.0454
13628W        W30102  13.143  11.796  12.578 -0.1218 -0.0843 -0.0375
13629W        W30103  16.009  14.579   0.210  0.1689  0.2844  0.3011
13630W        W30104  12.282   6.968  13.441  0.0535  0.1298  0.4932
13631W        W30105   8.181   7.177   5.140  0.0394 -0.0811  0.0833
13632W        W30106  13.190   8.127  13.420 -0.1474 -0.1761  0.0806
13633W        W30107   3.587  13.087  14.682  0.0870  0.2948 -0.0805
13634W        W30108   5.663   9.070  12.484  0.2547  0.3040 -0.1646
13635W        W30109  16.461   1.170   2.768  0.4087 -0.0534  0.1612
13636W        W30110  11.827  12.194   2.761  0.0027  0.1843  0.1351
13637W        W30111  17.832   3.222  12.474  0.1607  0.0398  0.2311
13638W        W30112  12.098   9.472  13.696  0.2383 -0.1755  0.3522
13639W        W30113   9.342   5.017   1.196 -0.0212 -0.0752  0.1462
13640W        W30114   6.388  10.081   0.432  0.3178 -0.3779 -0.1916
13641W        W30115  14.766   1.528   3.171  0.0778  0.0144  0.0518
13642W        W30116   2.485   2.651  15.560 -0.3166  0.0825 -0.0171
13643W        W30117   8.228  10.110   2.682  0.3707 -0.2223  0.0100
13644W        W30118   0.883   5.628  12.646  0.0526  0.1548  0.0576
13645W        W30119   8.829   5.261   2.073 -0.0056 -0.1369  0.1235
13646W        W30120  16.437   6.996   0.887  0.2379 -0.0583 -0.1622
13647W        W30121  17.230   3.407  12.357 -0.0721  0.2847  0.0488
13648W        W30122   0.309   0.675  14.879  0.0445 -0.1679  0.2295
13649W        W30123   4.898   1.091  15.227  0.1855 -0.3032  0.3404
13650W        W30124   5.732  17.790   2.633 -0.1443  0.2049  0.0849
13651W        W30125   9.333  17.879  11.185  0.0119 -0.1094  0.0312
13652W        W30126   3.261   9.925  12.582  0.0849 -0.0126 -0.0844
13653W        W30127  13.101  11.039  14.216  0.1314  0.2155  0.3540
13654W        W30128   9.839  16.909  12.048 -0.0308 -0.2523 -0.2933
13655W        W30129  12.883  16.243  13.141 -0.5489  0.0939 -0.2297
13656W        W30130  14.389   7.197  12.852 -0.2022 -0.0088 -0.1465
13657W        W30131   8.928  16.036   3.929 -0.3460 -0.0592 -0.3219
13658W        W30132  14.371   5.342   0.679  0.0364 -0.1375 -0.0777
13659W        W30133  16.530  15.831  11.102  0.0229  0.0486 -0.0597
13660W        W30134  13.015   0.086   4.812 -0.3927  0.0876  0.1303
13661W        W30135   8.882  17.858  13.213 -0.1481 -0.2433 -0.2005
13662W        W30136   0.996   8.030   3.082 -0.1101 -0.0538  0.0496
13663W        W30137   4.534  17.617   1.264  0.0172  0.1885  0.2425
13664W        W30138   4.337  18.207  13.409 -0.0848 -0.2918  0.1459
13665W        W30139   8.204   1.558  14.104 -0.0509 -0.1869 -0.0150
13666W        W30140   8.469   9.745   2.880 -0.1914 -0.4273 -0.1045
13667W        W30141  14.062  14.954   5.177  0.1670 -0.2142 -0.1224
13668W        W30142  11.972  15.976  11.611 -0.1431  0.2688 -0.0332
13669W        W30143  11.169   3.413  14.156  0.0391 -0.1162  0.3027
13670W        W30144  14.107   6.365   3.962 -0.3128  0.3673 -0.0799
13671W        W30145  15.306  18.139  14.884 -0.1990 -0.1598  0.3673
13672W        W30146   8.727  15.542  15.558  0.1962  0.0296  0.0131
13673W        W30147   8.604  13.821  12.425 -0.0818 -0.2660  0.1816
13674W        W30148   1.069  14.680  12.952  0.4121  0.0316 -0.1178
13675W        W30149  11.823   1.058   2.962 -0.1811 -0.1294  0.3640
13676W        W30150  10.045   3.901   3.052 -0.0300  0.3172 -0.0462
13677W        W30151   2.038  10.540   3.557 -0.2097  0.0501 -0.0505
13678W        W30152  13.583   1.214  11.288  0.4403 -0.0877  0.0562
13679W        W30153   5.576  10.616   1.477 -0.0312 -0.0100 -0.0675
13680W        W30154   6.279   6.127   1.020 -0.2515 -0.0610  0.1625
13681W        W30155   0.952  16.546   2.591 -0.0788  0.1241 -0.1568
13682W        W30156   4.588   5.656   1.728 -0.1921  0.0861  0.0239
13683W        W30157   1.792  10.907  15.819  0.2691  0.0707 -0.4416
13684W        W30158   1.472   8.213   1.872  0.0809  0.0799 -0.0320
13685W        W30159   0.197   6.441  11.240  0.1653  0.1067  0.0869
13686W        W30160  16.017   8.216   1.076  0.1536 -0.0104 -0.2786
13687W        W30161   6.561   2.686   1.519  0.0766  0.1782  0.2733
13688W        W30162   0.129   4.759   4.153  0.0103 -0.1941  0.3480
13689W        W30163   6.677  10.621   1.731  0.0154  0.3536  0.2735
13690W        W30164  18.461  16.999   3.351 -0.3255 -0.0331 -0.2273
13691W        W30165   3.834   0.661   2.966  0.1160  0.0077 -0.0883
13692W        W30166   5.686   5.727   2.695 -0.0350 -0.1294  0.0449
13693W        W30167   5.189   0.926   3.310  0.0695 -0.2824 -0.0509
13694W        W30168  17.116  11.106  12.806  0.2477  0.1040  0.2450
13695W        W30169  11.836  16.686   0.555 -0.1748 -0.1491 -0.0724
13696W        W30170   5.801  17.731   5.027 -0.0798  0.0053  0.1374
13697W        W30171  13.436   6.858   2.900 -0.0025  0.0676 -0.3415
13698W        W30172  11.532   8.926  14.713  0.0366  0.0771 -0.0709
13699W        W30173   1.521   3.656  10.965 -0.1235  0.0700 -0.1541
13700W        W30174   8.516   4.623  11.711  0.0566  0.3149 -0.1522
13701W        W30175   7.230   1.564   0.922  0.0063  0.0600  0.3888
13702W        W30176   6.475  17.046  11.126  0.1337  0.0706  0.0436
13703W        W30177  13.367   0.145  15.587  0.2140  0.0582 -0.2141
13704W        W30178   4.362  15.800  12.927 -0.2632 -0.1271  0.0369
13705W        W30179  17.944  10.136   0.349 -0.2460 -0.3946 -0.1739
13706W        W30180  18.351   1.555   1.009 -0.0498 -0.1149  0.1547
13707W        W30181   3.993   9.040  11.963  0.2425  0.0432 -0.2389
13708W        W30182   6.943   6.606  15.344  0.2395  0.0890  0.1069
13709W        W30183  16.793   4.917  12.571 -0.0053  0.0011 -0.0812
13710W        W30184   9.819   0.510   2.834 -0.4401 -0.0873 -0.1458
13711W        W30185  14.540  13.171  10.550 -0.0250  0.2005 -0.0143
13712W        W30186  10.949   4.101  14.822  0.0265 -0.3442  0.4010
13713W        W30187   9.636   7.048  15.282  0.0069  0.0340  0.1667
13714W        W30188  10.997   5.777   1.057 -0.1648 -0.0908  0.0801
13715W        W30189  15.320   1.068  11.324  0.2911 -0.1547 -0.0384
13716W        W30190  17.924   4.746  14.442  0.3323 -0.2200 -0.3761
13717W        W30191   8.522   2.466   3.820  0.4186 -0.1588 -0.0731
13718W        W30192  11.937  14.040  14.938 -0.1274  0.1331 -0.1357
13719W        W30193  11.047   2.348   5.713  0.2360 -0.2880  0.1607
13720W        W30194   8.297  16.023  13.127 -0.1736  0.1825 -0.2322
13721W        W30195  12.902  15.736   2.109  0.0630 -0.1826  0.0788
13722W        W30196  17.330  14.296  13.361  0.1047 -0.0146  0.1758
13723W        W30197   8.044  16.484   0.408 -0.1733  0.3238 -0.1273
13724W        W30198  17.626  15.905   5.093  0.1071 -0.0726 -0.2353
13725W        W30199   0.222   1.106   4.780 -0.1274  0.0674 -0.0441
13726W        W30200  17.348   3.162   3.399  0.2169 -0.0798  0.1870
13727W        W30201  14.129   2.852   4.185 -0.0589  0.2763 -0.0323
13728W        W30202   6.133   5.947  14.769  0.1991 -0.4319 -0.0543
13729W        W30203  15.072  17.123   3.677  0.2201  0.4489 -0.0954
13730W        W30204   2.004   3.580  11.025 -0.0617 -0.1919 -0.2836
13731W        W30205  13.583  13.400  13.656 -0.0495 -0.0512  0.0241
13732W        W30206   2.376  17.599  13.211  0.0162  0.0527  0.1653
13733W        W30207   8.793  13.415  12.057 -0.4546  0.0497  0.0935
13734W        W30208  16.728  12.130   2.318 -0.2238 -0.0697  0.3551
13735W        W30209  16.835   5.528  13.877 -0.2673 -0.1403  0.1529
13736W        W30210  11.540  12.651   1.783  0.2226  0.1327  0.1284
13737W        W30211   7.808  10.982  11.461  0.1790  0.0215  0.2170
13738W        W30212   6.347   5.324   2.510  0.0717  0.2727  0.0489
13739W        W30213  11.139   5.230   4.628  0.0362  0.0163 -0.2954
13740W        W30214  11.903  16.167   2.233 -0.0159 -0.1318 -0.0211
13741W        W30215  12.491  13.980   4.699 -0.1859 -0.0257  0.0595
13742W        W30216   2.620   8.605  14.423 -0.0904  0.0626 -0.1240
13743W        W30217   1.241   5.352   3.536 -0.0635  0.1453  0.2263
13744W        W30218   7.290   0.564  12.128 -0.3146 -0.2044 -0.0308
13745W        W30219   3.048   8.103  13.931 -0.0502  0.0507 -0.2217
13746W        W30220   1.255   6.002   3.296  0.0968 -0.3444 -0.1984
13747W        W30221   4.822   4.918  10.994 -0.0732 -0.0739  0.3400
13748W        W30222   9.666  11.297   3.076 -0.2081  0.0948  0.0683
13749W        W30223  13.457  16.654  11.629 -0.0202 -0.0993 -0.2567
13750W        W30224   6.423  18.105  12.336 -0.2553  0.1238  0.1043
13751W        W30225   7.217  15.451   4.007  0.1265 -0.1474 -0.0001
13752W        W30226  15.960  15.469   1.287  0.1777  0.0955  0.1394
13753W        W30227  11.563  17.100  14.118 -0.1424  0.2328 -0.4104
13754W        W30228   6.770   2.919  14.581  0.0722 -0.1996  0.2955
13755W        W30229   1.640  14.049   4.419 -0.0548 -0.2288 -0.1372
13756W        W30230  16.027   2.541  14.003  0.0166 -0.0719 -0.1591
13757W        W30231  18.119  16.034  11.378 -0.1310 -0.3680 -0.3633
13758W        W30232   5.643   5.281   1.097 -0.1722  0.0792  0.1418
13759W        W30233   3.909  15.903  12.637 -0.0126  0.1669 -0.1954
13760W        W30234  15.268   6.637  13.329 -0.1269  0.3335 -0.0323
13761W        W30235   6.552   6.907  14.089  0.0105 -0.1052 -0.0686
13762W        W30236  14.464  11.526  11.309 -0.1855 -0.2872  0.2459
13763W        W30237  15.440   2.526  11.735 -0.0619  0.0056 -0.0039
13764W        W30238   0.386   7.689  11.190 -0.0024  0.3336  0.0653
13765W        W30239  15.109  15.245  13.985  0.2902 -0.1010  0.3530
13766W        W30240  15.639  15.742   4.244  0.0175 -0.2783 -0.0202
13767W        W30241  11.666   5.438   4.551 -0.1982  0.0951  0.0316
13768W        W30242  18.069   4.705   0.459  0.1334  0.3295 -0.0204
13769W        W30243   6.587   1.847  13.806 -0.0196 -0.1209 -0.1902
13770W        W30244   9.503  16.693  15.020  0.1390  0.1918  0.1074
13771W        W30245   9.546   6.842  10.586 -0.0175 -0.1905 -0.0340
13772W        W30246  18.374   5.338  13.665  0.0699  0.0600  0.3958
13773W        W30247   3.919  17.020   1.468 -0.0212  0.1498 -0.0756
13774W        W30248   4.045   4.153   1.038 -0.0326 -0.1739 -0.2665
13775W        W30249  12.341  15.165   3.153  0.1631  0.0224 -0.0517
13776W        W30250  13.419   4.046   1.698  0.0102  0.1265  0.3396
13777W        W30251  14.326  14.350  13.629 -0.1477  0.1601 -0.0397
13778W        W30252  11.263   7.039   4.215  0.3218  0.2825  0.0585
13779W        W30253  11.546   7.294  11.738 -0.0493 -0.2680 -0.1421
13780W        W30254  15.531  11.325   2.776 -0.0729  0.1149  0.0161
13781W        W30255   2.361  17.622   2.956 -0.2481 -0.0098  0.3072
13782W        W30256  14.131   8.843   2.009 -0.0379 -0.3285 -0.0356
13783W        W30257  12.980  11.615   3.410 -0.2931 -0.2847 -0.2013
13784W        W30258   7.750   3.782   0.770 -0.2997 -0.2261  0.0770
13785W        W30259  10.894  12.711  13.748 -0.1896 -0.1779  0.3769
13786W        W30260   4.658  15.213   2.994  0.0909  0.1964 -0.0050
13787W        W30261  13.393   0.268   3.019  0.0368 -0.1626 -0.0909
13788W        W30262   6.698   1.070  15.034  0.1390 -0.1973 -0.3505
13789W        W30263   9.917  14.856  13.661  0.2792  0.1241 -0.1450
13790W        W30264  15.424  14.636   5.109 -0.2342 -0.1436 -0.1575
13791W        W30265  18.091   7.951  14.180 -0.0034 -0.0354  0.0375
13792W        W30266  16.525  11.576   4.690  0.0832 -0.0698 -0.4455
13793W        W30267  11.927   8.114  14.767  0.0215 -0.1563 -0.2221
13794W        W30268   4.978   2.244   2.633  0.5049  0.0308  0.1491
13795W        W30269  14.523   6.321   3.087 -0.4043 -0.1894  0.0563
13796W        W30270   6.169  15.923  12.620  0.1510 -0.2723  0.1135
13797W        W30271  16.008  17.286   3.823 -0.1186 -0.1214  0.2107
13798W        W30272  11.842   1.518   4.513 -0.0249 -0.1798 -0.1307
13799W        W30273   0.626   0.771   0.042 -0.1048 -0.1316 -0.1359
13800W        W30274  17.927   7.371   1.807 -0.0206  0.2067  0.0999
13801W        W30275   5.411  14.535  12.006  0.0405  0.5147  0.0566
13802W        W30276   2.394   9.626  11.949  0.1844 -0.1563 -0.2085
13803W        W30277  17.917  17.649  11.694  0.0506 -0.0119  0.0077
13804W        W30278  13.017   0.549  11.802  0.0556 -0.1992  0.0091
13805W        W30279   3.658   2.953   4.876  0.0288 -0.1048  0.1791
13806W        W30280  18.139  11.062  11.686 -0.0097  0.0567 -0.1584
13807W        W30281   6.468   2.555  13.112 -0.0190  0.1843 -0.1307
13808W        W30282  16.543   7.544   4.700  0.3420 -0.1797 -0.0836
13809W        W30283  17.895   9.628   2.388 -0.2186  0.0369 -0.0474
13810W        W30284  12.880   0.922   3.869  0.0425  0.1327  0.2854
13811W        W30285   2.589  17.209  11.150 -0.0457 -0.0927 -0.1210
13812W        W30286   2.144   3.121  11.228 -0.1182 -0.0737  0.3759
13813W        W30287   0.363   5.469   1.978  0.1918 -0.0641 -0.0203
13814W        W30288  13.220  12.209   2.897 -0.3361  0.3074  0.2318
13815W        W30289   1.777   4.212   1.073 -0.0050 -0.0484 -0.0575
13816W        W30290   9.593  13.903   0.067 -0.3375  0.0081 -0.3894
13817W        W30291   0.801   7.433  13.790 -0.1178  0.1274  0.2060
13818W        W30292   1.118  12.223   2.403  0.0738  0.1585 -0.1146
13819W        W30293   5.931  11.839  15.601 -0.1563 -0.2321  0.1515
13820W        W30294  17.579   9.772  10.021  0.1099  0.1870 -0.1459
13821W        W30295   3.520  12.680   5.709  0.0086  0.1416 -0.1090
13822W        W30296   2.815   0.058   0.900  0.1416 -0.0183 -0.2657
13823W        W30297   0.602  18.415  11.603  0.0150  0.0271  0.1540
13824W        W30298  13.779   4.151   4.122 -0.0974 -0.2767  0.1432
13825W        W30299   3.180  12.803  14.521 -0.0289  0.2409 -0.1843
13826W        W30300   7.226  13.129  13.744 -0.2031 -0.1918  0.0094
13827W        W30301   4.070  13.735  12.717  0.0898 -0.0383  0.3049
13828W        W30302   3.394  15.652   1.084  0.0252  0.1368  0.1505
13829W        W30303  10.332  10.444   1.931  0.0191  0.2829 -0.0987
13830W        W30304   3.451   4.585   4.878 -0.2550 -0.1056  0.1857
13831W        W30305   2.516   9.947  15.174 -0.2646 -0.1401  0.1924
13832W        W30306  12.135  10.854   2.545 -0.1361  0.0858  0.1956
13833W        W30307   3.572   7.233  13.310  0.2774 -0.2665 -0.0100
13834W        W30308   8.289  15.687   5.132 -0.1509  0.2047 -0.0330
13835W        W30309   8.106  15.186  12.220 -0.1441  0.1067  0.2608
13836W        W30310   9.291  16.303  12.358  0.1697  0.0377 -0.2786
13837W        W30311   8.573  12.860   4.795  0.1314  0.0984  0.2188
13838W        W30312   0.806  12.784  14.598 -0.3758 -0.0218 -0.0397
13839W        W30313  11.538   0.442  13.496 -0.3034  0.0559  0.3997
13840W        W30314  10.007  11.349   1.742 -0.0438 -0.1689  0.0755
13841W        W30315  10.060   7.281  12.703  0.1457  0.1366 -0.0538
13842W        W30316  18.283  14.414   0.757 -0.1164  0.0836 -0.1029
13843W        W30317   1.645  15.152  14.121 -0.4162 -0.1649  0.1181
13844W        W30318   0.640  11.276  11.478 -0.0782 -0.0448  0.1414
13845W        W30319  10.667   6.192  11.423 -0.1429  0.3227  0.1815
13846W        W30320  10.958   1.581  12.512  0.2048  0.1366 -0.3311
13847W        W30321  13.475   2.985  13.985 -0.1449  0.3089 -0.1705
13848W        W30322  13.072   5.243  11.499 -0.0480  0.1715 -0.1106
13849W        W30323  12.005   0.495   2.211 -0.3488 -0.0313 -0.1278
13850W        W30324   0.758   4.655   3.496  0.2761 -0.0857  0.2431
13851W        W30325   4.826   2.752  11.167  0.0600 -0.0562  0.1776
13852W        W30326   9.674   1.529  15.341 -0.0171 -0.0600 -0.0482
13853W        W30327   1.097  13.869   4.512  0.0785  0.0444  0.1629
13854W        W30328   2.907   9.985   0.516 -0.2193  0.1082  0.0597
13855W        W30329   1.711   0.816  12.170  0.1083 -0.1719  0.3656
13856W        W30330  12.773  15.804   0.630  0.0909 -0.1878  0.1433
13857W        W30331  10.444   9.515   4.162 -0.0024  0.2129  0.0694
13858W        W30332  16.220   1.069  15.365 -0.1846 -0.0758 -0.1222
13859W        W30333   5.898  13.668  12.858 -0.0358  0.1496 -0.1229
13860W        W30334  11.430   5.038  15.739  0.2430  0.2379  0.4809
13861W        W30335   7.973   5.993   5.143  0.1021  0.0062 -0.1125
13862W        W30336   6.067   2.115   0.811  0.0827 -0.0076 -0.3119
13863W        W30337   7.646  12.765   1.517 -0.0053 -0.1498 -0.2475
13864W        W30338   2.481  18.199   0.661 -0.1145 -0.1877  0.1836
13865W        W30339  16.505  16.622   4.710  0.1222 -0.3211 -0.2820
13866W        W30340   1.894  14.161   3.223 -0.0464  0.0141 -0.0299
13867W        W30341  17.061  17.188   3.219 -0.6720 -0.2348 -0.0821
13868W        W30342   0.327   3.111  14.274  0.0815  0.3098 -0.0089
13869W        W30343  16.434  10.199   0.010 -0.1708 -0.0923 -0.0469
13870W        W30344   3.920   9.357   2.388  0.2119  0.0492  0.2458
13871W        W30345  11.386   1.169  15.714 -0.0451  0.1269 -0.1090
13872W        W30346   6.954   1.967   3.829 -0.0953 -0.1858 -0.1485
13873W        W30347  15.110  14.084  14.723  0.0242 -0.0683  0.1143
13874W        W30348  15.891   1.542   5.044  0.1723 -0.1673 -0.1927
13875W        W30349  17.965  17.963   3.774  0.0513 -0.0437  0.2171
13876W        W30350  16.061   3.111  12.708  0.0784  0.0787 -0.0676
13877W        W30351  13.030   9.741   2.011  0.2272 -0.2258 -0.4268
13878W        W30352  17.842   0.139   1.823  0.1312 -0.1853 -0.1169
13879W        W30353   9.492   9.546   2.965 -0.1740  0.1573  0.0341
13880W        W30354  15.546  16.646  14.336 -0.0638 -0.1994  0.1907
13881W        W30355   3.527  17.695  13.287 -0.1033 -0.1471 -0.2952
13882W        W30356   6.317   4.331   1.496  0.0046  0.2619  0.0392
13883W        W30357   9.845   3.731   0.744 -0.0272  0.1436 -0.0219
13884W        W30358   6.875   7.120  12.498 -0.0829 -0.0172  0.0497
13885W        W30359  17.536   6.512   1.528 -0.1335  0.4035  0.4700
13886W        W30360  15.875   5.619   3.042  0.3031 -0.1577  0.0628
13887W        W30361  12.304   0.068   1.716 -0.0282  0.2555  0.0450
13888W        W30362   3.482   7.148   0.870 -0.0894  0.6771 -0.0538
13889W        W30363  11.108  12.755   6.042 -0.0477  0.0686 -0.1266
13890W        W30364   0.018  15.424  12.937  0.0315  0.0386  0.1128
13891W        W30365   5.652   5.675  15.679  0.0467  0.0446 -0.0039
13892W        W30366  11.257  10.706  12.525 -0.0673  0.2301  0.1719
13893W        W30367   9.313   7.197   0.934 -0.1243 -0.0900 -0.1379
13894W        W30368   5.161  16.385   5.971 -0.1487  0.1319 -0.0963
13895W        W30369  11.571   5.349  11.635  0.1208  0.1302  0.0076
13896W        W30370  12.689   7.260   4.016 -0.0228  0.2749 -0.1450
13897W        W30371  14.826   9.891   1.952  0.0471 -0.1114 -0.2281
13898W        W30372   4.360   1.288   2.185 -0.0423  0.0901 -0.2231
13899W        W30373   2.302  15.278   4.597 -0.7131  0.1664 -0.2208
13900W        W30374  17.844  11.299  13.496  0.0446  0.1322  0.0965
13901W        W30375  14.307   9.879   3.162  0.4012 -0.1042 -0.2995
13902W        W30376   5.015   7.835  13.015 -0.0876 -0.2236  0.1039
13903W        W30377   8.467  16.948  10.504 -0.1093 -0.2298 -0.1747
13904W        W30378   6.783  16.457  12.753 -0.2006  0.0432  0.3557
13905W        W30379   9.773  18.385  14.135  0.1157  0.1258  0.0117
13906W        W30380   6.035   3.115  14.748 -0.2526 -0.2966  0.2630
13907W        W30381   2.160   7.029   5.112 -0.0684  0.0707 -0.3505
13908W        W30382   7.572   3.401   4.594 -0.0667 -0.0614  0.0770
13909W        W30383   9.924  10.380   4.621 -0.2274 -0.2490 -0.0927
13910W        W30384  10.765  18.316  10.984 -0.1756 -0.0601  0.0382
13911W        W30385   9.835  16.259   1.390 -0.2083  0.1792 -0.3437
13912W        W30386   7.373   3.963  13.888 -0.0711  0.1124  0.0271
13913W        W30387   5.740   1.192  15.306 -0.0025  0.1338 -0.2381
13914W        W30388   7.577   6.778   1.609 -0.0874 -0.0396  0.1367
13915W        W30389  14.606   3.527   2.473 -0.0086 -0.2143  0.0732
13916W        W30390   9.355   3.708   3.757  0.1099  0.1179  0.0199
13917W        W30391   3.264  12.722  15.659 -0.0272 -0.0521  0.2345
13918W        W30392   7.325  11.466   5.534 -0.1140  0.0031 -0.0849
13919W        W30393   7.309   2.289   5.164  0.2073  0.1602  0.2268
13920W        W30394  12.993   0.079  11.973 -0.1231 -0.1046 -0.0644
13921W        W30395   7.606   5.669  11.472  0.0009 -0.0465  0.0459
13922W        W30396   3.931   7.218   1.695  0.0861 -0.0321  0.0213
13923W        W30397   5.280   1.693  13.715 -0.2498  0.1466  0.0374
13924W        W30398  17.737  13.998  12.248 -0.0996 -0.0676 -0.2084
13925W        W30399   8.441  10.128   1.553  0.1495  0.0517 -0.2242
13926W        W30400  14.225   0.007  15.477  0.1361  0.0764  0.1928
13927W        W30401   4.950   4.389  14.022 -0.1440 -0.3463 -0.0949
13928W        W30402   2.996  12.645  12.716  0.0849  0.0427  0.1045
13929W        W30403  13.514   3.268   2.630 -0.0906  0.1462  0.2405
13930W        W30404   4.252   1.557   1.707 -0.0916 -0.0320 -0.1135
13931W        W30405   4.077   3.130   4.017  0.1628  0.0950  0.2174
13932W        W30406   9.853  12.047   2.332  0.0392  0.0217 -0.2980
13933W        W30407  15.219   2.413  13.355 -0.2880  0.2001 -0.1624
13934W        W30408   8.573  13.880   2.297 -0.1932 -0.1107 -0.2174
13935W        W30409   5.134   5.856   1.971  0.0977  0.3360  0.0459
13936W        W30410   0.317  14.050  11.920 -0.0997  0.1965  0.2921
13937W        W30411  17.699   0.681   2.939  0.1404 -0.0216  0.1535
13938W        W30412  14.994  14.454  15.616 -0.0720 -0.0889 -0.0596
13939W        W30413   8.645  17.316  12.661 -0.1017  0.0557 -0.0445
13940W        W30414   0.156   7.574  14.960  0.2132 -0.1153 -0.1238
13941W        W30415  16.076   6.959   1.256  0.0880 -0.1259  0.1707
13942W        W30416   7.578   1.022  11.606 -0.2456 -0.0613  0.2859
13943W        W30417   4.100  13.039  11.243  0.0754  0.2663 -0.4517
13944W        W30418   8.485   1.208  11.030  0.0611 -0.0536  0.0923
13945W        W30419   4.092  17.068  13.983 -0.0561  0.1482 -0.2222
13946W        W30420   1.772   3.492   5.277  0.0205 -0.1230  0.1583
13947W        W30421   4.130  17.674   3.746  0.1658  0.5024 -0.2065
13948W        W30422  15.905  13.946   6.213  0.4039 -0.0860  0.1893
13949W        W30423  11.964   3.093   1.899  0.0814 -0.1060 -0.0896
13950W        W30424  13.875  10.913  12.674 -0.0321 -0.1037 -0.1855
13951W        W30425   4.423  13.042   4.129  0.1287  0.2962 -0.2258
13952W        W30426  15.258  18.324   3.620 -0.2828  0.0441  0.2547
13953W        W30427  10.970  10.320   1.915  0.0584  0.1741 -0.0227
13954W        W30428  14.109  15.066  11.394  0.3211  0.0823 -0.0218
13955W        W30429  18.258   1.388  14.486  0.0922 -0.1980  0.0583
13956W        W30430   5.864   6.861   5.940 -0.0771  0.1104 -0.2802
13957W        W30431  12.551   9.060   3.633 -0.1658 -0.0954 -0.1213
13958W        W30432   0.006   1.200   5.365  0.0399 -0.1181 -0.0383
13959W        W30433   5.109   9.891   1.960 -0.0205 -0.1950 -0.2398
13960W        W30434  10.732  11.438   4.726  0.0634  0.0346  0.1479
13961W        W30435  16.756  14.302  13.257  0.0299 -0.2347 -0.2148
13962W        W30436   1.066   9.954   3.108 -0.1203 -0.2859 -0.3548
13963W        W30437   3.596  11.517   0.659 -0.0077 -0.1907  0.1771
13964W        W30438  12.303   5.852  15.616 -0.0381  0.0116  0.0437
13965W        W30439  12.227   8.522   2.021  0.1304 -0.1485  0.1577
13966W        W30440   0.638   9.571  13.099 -0.0353 -0.0489  0.2614
13967W        W30441  12.060  14.171  12.017  0.2597  0.3244 -0.1353
13968W        W30442   6.391   7.738  14.436 -0.0760 -0.1461  0.1065
13969W        W30443  15.608   9.524   5.122 -0.0003  0.0800 -0.1774
13970W        W30444   9.395   0.836  12.868 -0.0707  0.2302 -0.3641
13971W        W30445  12.544   6.260  15.430  0.1490 -0.2652  0.1492
13972W        W30446  15.368  11.796  12.403 -0.0916  0.5416 -0.3789
13973W        W30447   1.923   1.966   2.516 -0.1498 -0.0908  0.0129
13974W        W30448  16.016   6.365  13.479  0.2961  0.2185 -0.1996
13975W        W30449   0.528   7.599  15.792  0.1857 -0.1045 -0.0833
13976W        W30450  11.849  15.989   2.977  0.0080 -0.2384 -0.3667
13977W        W30451  12.274   8.411   0.631  0.3190  0.3110 -0.0816
13978W        W30452   3.898  12.841  12.428  0.2177  0.1454 -0.2301
13979W        W30453   2.885   0.987  12.008 -0.2157 -0.1706 -0.0970
13980W        W30454   3.787   5.704   2.178 -0.2768 -0.0471 -0.1978
13981W        W30455   1.683   8.780   4.358  0.2128 -0.1620  0.0516
13982W        W30456  13.380   0.948  15.326 -0.3029  0.0431  0.1983
13983W        W30457  11.263   5.727   0.560 -0.2648 -0.0465  0.0705
13984W        W30458   3.808  14.792  14.173  0.0319 -0.1591 -0.1700
13985W        W30459   4.685   9.282  13.279 -0.3287  0.4108  0.2713
13986W        W30460  18.172   5.711   1.263  0.1277  0.0098 -0.2181
13987W        W30461  14.254   0.408   3.131  0.0843  0.2204 -0.0498
13988W        W30462  12.307   0.520   0.471  0.2045  0.0621 -0.0788
13989W        W30463   6.663   1.228  15.599  0.1988 -0.1191  0.2527
13990W        W30464  15.552  12.605   3.087  0.4866 -0.0497  0.0502
13991W        W30465  16.593   9.977  11.662  0.0703 -0.2202 -0.2401
13992W        W30466   5.503   9.403   3.671  0.2146 -0.4812  0.2803
13993W        W30467   2.593   4.660   5.275  0.2278 -0.0057  0.0519
13994W        W30468   1.128  14.830  14.212  0.1465  0.1500  0.0819
13995W        W30469  14.430   0.374  12.015  0.1617 -0.0370  0.1535
13996W        W30470   2.835  15.122  12.892  0.0121  0.1478  0.1600
13997W        W30471   7.879   5.850  14.545  0.0778  0.0283 -0.0394
13998W        W30472   9.757   2.958  15.505 -0.1274  0.2248  0.1163
13999W        W30473   1.020   7.574   1.798  0.3624 -0.2317 -0.1240
14000W        W30474   1.570  15.098   3.437  0.1071  0.0224 -0.0569
14001W        W30475   7.236  16.124   4.776  0.0626 -0.1240 -0.0720
14002W        W30476   8.232  14.320  12.595  0.0222  0.2556  0.0670
14003W        W30477  15.289   7.418  11.676 -0.2546 -0.0563  0.0381
14004W        W30478  11.198   5.989  13.512 -0.1116 -0.0697 -0.2358
14005W        W30479   4.419   5.954   4.750 -0.1626 -0.0295 -0.0425
14006W        W30480   9.270   2.092   0.817  0.1737  0.0725 -0.0156
14007W        W30481  10.342  14.488  11.782 -0.1088  0.1061 -0.1389
14008W        W30482  12.541  17.061  11.288 -0.0996 -0.2069 -0.0443
14009W        W30483   2.319   8.206  14.186 -0.0038 -0.2951  0.2011
14010W        W30484   4.369   2.228   4.638 -0.1172 -0.0359  0.1264
14011W        W30485  12.911   2.276   0.717  0.0783  0.4212 -0.0796
14012W        W30486   0.411  12.072   4.638  0.0061  0.2407  0.1634
14013W        W30487  11.281  15.311   2.465  0.2880 -0.1894  0.1457
14014W        W30488  14.106   7.043  13.509 -0.2285 -0.2569 -0.2036
14015W        W30489   6.095   3.720   6.029  0.1192  0.2399 -0.0581
14016W        W30490  16.396   9.349  15.130  0.1563 -0.0049  0.0400
14017W        W30491   7.886   5.350   1.489  0.1327 -0.0282 -0.0548
14018W        W30492  10.107   3.330   4.533 -0.0650  0.2741 -0.0257
14019W        W30493  11.547   4.209  12.855  0.3669  0.0279  0.1186
14020W        W30494   5.848   3.597   0.049  0.0054 -0.0432  0.2695
14021W        W30495   7.122  15.910   0.577 -0.0781 -0.2477 -0.1910
14022W        W30496   5.159   3.163   2.031  0.3115  0.0954  0.0662
14023W        W30497  16.482   2.243   1.072 -0.1155 -0.0622  0.1728
14024W        W30498   2.177  15.779  14.813  0.1332 -0.1569 -0.0651
14025W        W30499   2.100   7.226  15.572 -0.1158  0.1520  0.0202
14026W        W30500  13.735  15.012  11.070  0.1151  0.0180 -0.2256
14027W        W30501  16.013  18.140  11.230 -0.2021 -0.1678  0.1793
14028W        W30502   4.298  17.576   3.084 -0.3108 -0.3824  0.0266
14029W        W30503  16.130  15.238  13.962 -0.2748 -0.0805  0.1345
14030W        W30504   1.076   6.735   0.436  0.0432  0.0062  0.1571
14031W        W30505   6.597  12.892   3.358 -0.0708  0.1610  0.1124
14032W        W30506  16.818   8.451  14.184 -0.0412  0.1733 -0.1378
14033W        W30507   4.186   1.748   4.527 -0.1352  0.1111  0.0404
14034W        W30508   8.226  13.596   5.032  0.2510  0.1826 -0.3154
14035W        W30509   4.651   5.072  13.199 -0.1988 -0.2231  0.2644
14036W        W30510  15.928   5.473  11.055  0.1577  0.1319  0.2429
14037W        W30511   7.526   2.098   1.470 -0.0537 -0.4785 -0.1693
14038W        W30512  11.106  11.629  14.344  0.1201 -0.1471  0.3475
14039W        W30513  11.166  11.883  15.325 -0.3503 -0.1503  0.2992
14040W        W30514  10.851  18.411   5.858  0.2198  0.1201  0.0122
14041W        W30515   4.278   0.084  15.653 -0.1168 -0.0197  0.3217
14042W        W30516   2.521  17.365  13.778 -0.0522 -0.1708  0.1770
14043W        W30517   7.725  13.066   2.344  0.0808 -0.1214  0.0222
14044W        W30518  13.824   0.127   3.212  0.1889  0.1394  0.0681
14045W        W30519  15.320  15.372   0.883 -0.1632  0.1477 -0.2390
14046W        W30520  16.622   6.394  12.345  0.1834  0.1769  0.4501
14047W        W30521   1.560   1.721   4.094 -0.2527 -0.0725 -0.0230
14048W        W30522   5.197  15.596  12.582 -0.2242 -0.2367  0.2107
14049W        W30523  12.708   4.993  13.010 -0.2139  0.1404 -0.1286
14050W        W30524   4.169   7.830   9.604  0.2346 -0.0689 -0.0696
14051W        W30525   4.724   2.325   4.995  0.1699 -0.0538 -0.0567
14052W        W30526   2.322   9.682  13.595 -0.2003  0.3308 -0.0173
14053W        W30527   1.605  12.838   5.274 -0.0702  0.0818  0.1780
14054W        W30528   9.886  12.709   3.855 -0.1692 -0.1915 -0.0546
14055W        W30529  17.873   8.940   4.513 -0.1668 -0.0498 -0.0143
14056W        W30530   4.329  16.086   0.733  0.1306 -0.2201 -0.1018
14057W        W30531   2.320   0.239  14.740  0.2301  0.2763  0.3590
14058W        W30532  15.591   4.223   3.994  0.1862 -0.1444  0.1616
14059W        W30533   4.504   2.659  14.133 -0.1252 -0.1842 -0.1653
14060W        W30534   8.853  12.565  11.845 -0.2847 -0.2608  0.0902
14061W        W30535   3.078  18.237  11.098 -0.2493 -0.0608  0.0283
14062W        W30536   8.848  17.096  15.660 -0.0437 -0.0004 -0.0012
14063W        W30537   2.658  17.464  12.786 -0.0078 -0.0094 -0.1849
14064W        W30538  16.958   9.677   3.709  0.0824 -0.4060 -0.0507
14065W        W30539   6.730  12.280   1.642  0.1929  0.0035 -0.0288
14066W        W30540   4.195  14.771   0.394  0.0065 -0.1554 -0.2391
14067W        W30541   9.645   5.510   5.078 -0.1771 -0.2171  0.1496
14068W        W30542   7.084  10.807   2.977  0.0407 -0.0789 -0.1678
14069W        W30543   3.222  15.116   2.386 -0.1389  0.2646 -0.0259
14070W        W30544  15.397   3.293  13.372  0.0207 -0.0015 -0.1829
14071W        W30545   5.348   6.240  14.467  0.2029 -0.0502 -0.1170
14072W        W30546   8.070  14.349   2.879 -0.0285  0.0911  0.1196
14073W        W30547   6.256   2.039   5.836  0.1303 -0.1286 -0.0870
14074W        W30548   4.496  18.448  14.155  0.0498  0.0117  0.1020
14075W        W30549  18.235  15.266  12.543 -0.1557  0.0875  0.2851
14076W        W30550   5.354   8.318  11.119 -0.2351  0.0905  0.1175
14077W        W30551   1.334  13.885   1.589  0.0038  0.1549 -0.0656
14078W        W30552  14.332  13.295   1.011 -0.0641  0.0693 -0.3039
14079W        W30553   6.960   8.557   2.570 -0.2509  0.1320 -0.3739
14080W        W30554   9.818   4.110   1.446  0.0010 -0.2014  0.0681
14081W        W30555   7.913   0.925   1.919 -0.0976 -0.0545 -0.0247
14082W        W30556   6.586   2.829  14.063  0.1200  0.0430 -0.3258
14083W        W30557  15.576   9.383   1.156  0.0603  0.0719  0.3342
14084W        W30558  17.810   7.363   0.486 -0.0075 -0.1943  0.0954
14085W        W30559   7.498   1.358  13.311 -0.0772 -0.3647 -0.0822
14086W        W30560  14.418  15.423  14.667  0.0365 -0.3099 -0.0682
14087W        W30561   6.056  11.186   3.922  0.0232 -0.0276 -0.5959
14088W        W30562   7.739   8.247  15.624  0.4536  0.3513 -0.0757
14089W        W30563   5.395   6.256  12.976  0.1043  0.0764 -0.1686
14090W        W30564  18.429   5.339  12.847 -0.2046  0.0936 -0.1624
14091W        W30565  17.868   7.797  11.993 -0.0449  0.1459  0.0895
14092W        W30566   9.912  11.154   2.399  0.1254 -0.1154 -0.0405
14093W        W30567  17.882  17.598   1.284 -0.0702  0.5422 -0.1820
14094W        W30568   7.189   7.156   3.352 -0.0210 -0.0488 -0.2688
14095W        W30569  14.102  10.332   0.867  0.0029 -0.2381  0.0118
14096W        W30570  10.616  13.380   4.537  0.1533  0.3578 -0.1192
14097W        W30571   8.285   3.538  13.876 -0.0381 -0.1880 -0.2637
14098W        W30572   1.842   8.803  13.529  0.0134  0.1903 -0.1199
14099W        W30573   5.589  11.625  11.351  0.1696 -0.1964 -0.1074
14100W        W30574  16.049  14.126  14.448  0.1657  0.0296  0.4931
14101W        W30575  13.908  11.000  14.633  0.5531 -0.4039  0.1042
14102W        W30576   8.208  18.316   4.130 -0.1368 -0.3263 -0.1824
14103W        W30577   3.927  18.383   1.516 -0.3909  0.0230 -0.1895
14104W        W30578  10.658  10.555   2.336 -0.0307 -0.0340 -0.1989
14105W        W30579   1.941   7.561   1.196 -0.2643 -0.1814 -0.1966
14106W        W30580   9.463   7.466   3.188  0.0007 -0.0453 -0.1539
14107W        W30581   6.368  13.434   2.823 -0.1478 -0.2584  0.2000
14108W        W30582  13.868   6.705  14.354  0.0804  0.0988 -0.3877
14109W        W30583  13.367  10.048   4.470  0.2630 -0.0401 -0.0635
14110W        W30584  13.743   2.944   4.756 -0.1774  0.1385  0.2000
14111W        W30585   1.694   3.331  14.231  0.2251 -0.0068  0.0072
14112W        W30586   5.793   5.298  15.386  0.0334  0.0533  0.0644
14113W        W30587  12.174   1.203   4.733 -0.0630  0.1331 -0.1392
14114W        W30588  17.816   6.418  15.245 -0.1683 -0.1747  0.1393
14115W        W30589   0.121   0.468  11.223 -0.2593 -0.1255  0.1736
14116W        W30590  10.984  17.325  10.996 -0.1658 -0.1419  0.1175
14117W        W30591  16.329   9.774   4.635 -0.1638  0.1008  0.0219
14118W        W30592  14.589   1.940  13.127  0.0747 -0.0269 -0.0340
14119W        W30593  12.036   1.196   0.993  0.3936  0.3435  0.1599
14120W        W30594  13.209   4.500  14.405 -0.3738 -0.0087  0.5579
14121W        W30595   9.018   3.812   4.461 -0.0623 -0.0753 -0.1981
14122W        W30596  16.410   1.472   3.174 -0.1917  0.2056 -0.2263
14123W        W30597  16.089  14.687   3.599 -0.1732 -0.1125 -0.0341
14124W        W30598  11.457   6.426  15.227  0.0472 -0.0226  0.2636
14125W        W30599  12.486  13.929  10.642  0.1071  0.1104  0.3059
14126W        W30600  14.072   1.962   1.960  0.0403  0.1265  0.2036
14127W        W30601   0.336  17.125   2.409 -0.0827 -0.1940 -0.0300
14128W        W30602   6.132  16.842  15.837  0.1686  0.1931  0.0146
14129W        W30603  15.738  18.014  11.615 -0.0408 -0.0075 -0.0958
14130W        W30604   7.230   3.716   2.590  0.2557  0.0748  0.0215
14131W        W30605   2.982  10.468  10.974 -0.1808 -0.0400  0.3074
14132W        W30606   2.893  12.140  15.179 -0.0355 -0.2126 -0.2621
14133W        W30607  18.037  13.193  14.165 -0.1899 -0.1572  0.0286
14134W        W30608   1.708   7.632  15.444  0.4436 -0.0190 -0.0968
14135W        W30609  14.681   6.230   2.269  0.0519  0.1041  0.2076
14136W        W30610   8.344  18.197   5.321  0.0502 -0.0902  0.2842
14137W        W30611  12.160   3.191  11.730  0.1711 -0.1958 -0.3785
14138W        W30612   1.979  15.027  12.900 -0.0860  0.0427  0.1585
14139W        W30613   3.770  17.670  15.408 -0.3579 -0.2073  0.1120
14140W        W30614   6.236  18.153   4.576  0.0916 -0.0125 -0.0111
14141W        W30615   7.701  17.102   2.370 -0.2746  0.1829  0.3611
14142W        W30616   7.733   9.867   1.525  0.1268 -0.1425 -0.2234
14143W        W30617  12.146   9.747  14.783  0.1064  0.1299  0.1142
14144W        W30618   0.128  11.186   3.985 -0.0434  0.4153 -0.1047
14145W        W30619   8.756   0.518  13.932 -0.0794 -0.0125  0.0012
14146W        W30620  16.112  13.795   1.098  0.2411 -0.1197 -0.0602
14147W        W30621   8.421   6.697   5.171 -0.4120 -0.0119  0.1087
14148W        W30622  16.046   1.943  13.803  0.1927 -0.1729 -0.0919
14149W        W30623  10.330   7.776   1.449  0.0832  0.1919  0.0913
14150W        W30624   8.617  17.431   4.096 -0.0298 -0.2462 -0.3510
14151W        W30625   9.560  14.140   3.882  0.0426  0.1007 -0.3470
14152W        W30626   6.666  13.617  15.274 -0.0038 -0.0473 -0.0512
14153W        W30627   1.931   7.686   4.798  0.1754  0.0812  0.1511
14154W        W30628  11.332  10.604   6.161 -0.0800 -0.0356  0.3005
14155W        W30629   3.178  12.385   4.440 -0.0096 -0.0477 -0.4012
14156W        W30630  14.944  12.763   3.699 -0.1498  0.1624 -0.0740
14157W        W30631  18.336   2.234   1.797  0.1619 -0.0110 -0.0671
14158W        W30632  12.171   5.726  15.175 -0.0717  0.0852  0.1768
14159W        W30633   2.291  10.704   0.981  0.0267 -0.0817  0.0612
14160W        W30634  17.352  16.028  14.928  0.0567 -0.0025  0.2512
14161W        W30635   6.305   8.700  14.154  0.1694 -0.2469  0.2337
14162W        W30636  12.629   1.658   4.954 -0.0127 -0.1492 -0.0179
14163W        W30637  14.655  15.560   4.761  0.2498 -0.1462  0.4928
14164W        W30638   9.520   3.420  10.010  0.0153  0.2165 -0.1467
14165W        W30639  11.004   0.819  15.463  0.2276 -0.2098 -0.1588
14166W        W30640  13.037  15.802   3.660  0.3098 -0.2107 -0.0745
14167W        W30641   2.238  11.143  15.742  0.0485 -0.1018 -0.0941
14168W        W30642   8.133  12.948   1.437  0.0729 -0.0921  0.1307
14169W        W30643  12.720   3.290  15.807 -0.0100 -0.2469 -0.2033
14170W        W30644  14.452   5.021  13.365  0.0836 -0.1224 -0.2287
14171W        W30645  16.336   2.080  14.801  0.0972  0.1376 -0.0501
14172W        W30646  14.667  14.983  12.222  0.0519  0.3479 -0.0430
14173W        W30647   5.998  13.949  12.428  0.3749 -0.1814  0.0229
14174W        W30648   9.092   4.831   0.759  0.2299  0.3347  0.1139
14175W        W30649   2.725  12.538  13.913  0.0203 -0.2195 -0.0177
14176W        W30650   7.803  12.193  13.415 -0.0253 -0.2374 -0.2592
14177W        W30651  14.653  14.525   4.541  0.1821 -0.0226 -0.1938
14178W        W30652  18.252  11.641  14.894  0.3158 -0.1198 -0.0559
14179W        W30653  16.836   9.531   1.638  0.2354 -0.1633  0.3069
14180W        W30654   6.591  14.039   3.537 -0.0240  0.1382 -0.3200
14181W        W30655  13.462   4.054   3.446 -0.0663 -0.0999 -0.0421
14182W        W30656   3.210  17.204  14.878 -0.1794  0.0814  0.0544
14183W        W30657  14.057  15.788  14.720  0.0430 -0.2319  0.0128
14184W        W30658   5.123   3.538  14.902 -0.0680  0.1503 -0.3748
14185W        W30659  10.224   4.659   4.037  0.1399  0.0828  0.1576
14186W        W30660   8.883  11.847  14.330  0.0481 -0.1234  0.2150
14187W        W30661   2.614  16.221   2.340 -0.1160 -0.2961  0.0016
14188W        W30662   4.509  18.155  15.821 -0.0820  0.0141 -0.1290
14189W        W30663   9.538   5.280  14.897 -0.1171 -0.0308  0.0209
14190W        W30664   4.769  10.601   5.162 -0.0381  0.2514 -0.0704
14191W        W30665   8.041   5.926   4.149 -0.0819 -0.2058 -0.1112
14192W        W30666   7.376  12.352  14.090  0.1142 -0.0099 -0.1239
14193W        W30667  14.111   8.275   0.039  0.0431  0.0646 -0.1918
14194W        W30668   4.367   8.312  10.543  0.1254 -0.0134 -0.1807
14195W        W30669  17.903  16.334   0.609  0.1980 -0.1846  0.2322
14196W        W30670  17.112  15.370  12.291 -0.1829  0.0650  0.0869
14197W        W30671   1.565   8.286  11.918 -0.2078  0.2843  0.1756
14198W        W30672  17.727  15.804  11.767  0.0557  0.2652  0.0997
14199W        W30673  16.914  17.979   5.489 -0.4208  0.1418 -0.1275
14200W        W30674  11.063  17.052   2.451 -0.0417 -0.3210  0.2447
14201W        W30675   3.909   8.965   4.464  0.1246  0.2366  0.4617
14202W        W30676   1.139   3.544  11.962  0.3429 -0.1272 -0.0354
14203W        W30677  16.133   6.133  13.949  0.5914  0.0451 -0.0748
14204W        W30678  16.994   4.449   1.961  0.0069  0.1163  0.0387
14205W        W30679  10.334  12.766  12.617 -0.2759 -0.3071 -0.0739
14206W        W30680   4.397   7.488   0.105  0.0262 -0.2467 -0.0383
14207W        W30681   2.470   2.974   3.405  0.1114  0.1701 -0.0942
14208W        W30682   4.078  16.610   0.514  0.0877  0.2209  0.3871
14209W        W30683   7.277   2.619   2.503 -0.0640 -0.0427  0.3159
14210W        W30684   5.128  17.539   0.172  0.0104  0.2634 -0.0007
14211W        W30685   4.951   2.263   3.138 -0.1321  0.1866 -0.0066
14212W        W30686  13.107   3.715  15.481 -0.2797 -0.3119  0.0074
14213W        W30687  12.109   3.920  11.222  0.2768  0.2129  0.1508
14214W        W30688   5.350   0.181  12.568 -0.0514 -0.0439  0.1867
14215W        W30689  15.774   9.512  14.094  0.0501 -0.0150 -0.1470
14216W        W30690  14.086   9.777  14.277 -0.4139 -0.0961 -0.3490
14217W        W30691   8.281  13.157  15.060  0.2589 -0.2974 -0.0406
14218W        W30692   8.805   6.571   5.538  0.2756 -0.3658  0.2951
14219W        W30693   4.295  16.767  12.782  0.2685  0.0042  0.0082
14220W        W30694   6.497  18.365   5.181  0.0928  0.0893 -0.1724
14221W        W30695  17.598   3.547   0.222 -0.1705 -0.0079  0.2562
14222W        W30696  16.859  17.653   3.178 -0.1378 -0.0574 -0.3188
14223W        W30697   6.035   9.337   0.872  0.0907 -0.1610  0.2771
14224W        W30698  17.914   2.795  12.672  0.0996 -0.1782  0.0638
14225W        W30699   1.371   9.128  15.832 -0.1105  0.0709  0.2035
14226W        W30700  12.622  15.236   5.404 -0.2528 -0.0030  0.0334
14227W        W30701  13.322   2.642   1.961 -0.0984 -0.3821 -0.2114
14228W        W30702  17.547   8.620   2.169  0.0283  0.0491  0.0001
14229W        W30703   1.245   8.945   4.610  0.0410  0.3189  0.1213
14230W        W30704  10.368  13.512   1.556 -0.1883 -0.4113 -0.3991
14231W        W30705   3.379   8.471  13.869 -0.0378 -0.3548  0.1816
14232W        W30706   0.790  15.579   4.688  0.0848 -0.5356 -0.1737
14233W        W30707  11.185   6.542   3.264  0.0582 -0.1716  0.1344
14234W        W30708   0.687   2.722  10.911 -0.4491  0.2904  0.2138
14235W        W30709  13.432   5.125   0.889 -0.0633  0.1452  0.1357
14236W        W30710   1.567   0.425  15.271  0.0310 -0.0985 -0.0827
14237W        W30711   2.033  14.295   1.281 -0.1138 -0.2719 -0.0984
14238W        W30712   5.944   4.853  13.142  0.2988  0.2387 -0.1944
14239W        W30713  15.856   5.633   2.578 -0.0506 -0.2296  0.1465
14240W        W30714   7.931   6.648   5.170 -0.1648 -0.1433  0.2043
14241W        W30715   3.527  13.295   1.708 -0.0997  0.0670 -0.2160
14242W        W30716   1.623   8.709   1.953 -0.0769  0.1761 -0.0106
14243W        W30717  17.695   9.198   2.157 -0.0456 -0.2868  0.0075
14244W        W30718  11.910   2.161  13.661  0.0018 -0.1555  0.2916
14245W        W30719  14.024  13.501  14.087  0.0292  0.2055  0.1783
14246W        W30720   6.410  11.595   0.574  0.2277  0.0770 -0.1964
14247W        W30721   3.339   7.028  12.327 -0.3258  0.2664 -0.0125
14248W        W30722   5.872   7.715   4.518 -0.0129 -0.0317 -0.0830
14249W        W30723   6.544  17.041   5.554  0.0389  0.0171  0.0535
14250W        W30724  13.155   4.135   5.076  0.0309 -0.1454  0.1137
14251W        W30725  12.731  17.422   1.936 -0.1984 -0.0023 -0.0198
14252W        W30726   0.696   6.746   1.810 -0.0767  0.1439 -0.0608
14253W        W30727   1.491   9.354   3.162 -0.1617 -0.0651 -0.0980
14254W        W30728   6.762   6.121   0.918  0.1022  0.2116  0.2874
14255W        W30729  11.999   2.766  12.607  0.2260  0.1437  0.0638
14256W        W30730   4.931  14.934   4.766 -0.0235  0.0161  0.3696
14257W        W30731  15.089  11.815  11.952 -0.2869 -0.1923 -0.4198
14258W        W30732   9.421  16.579   2.467  0.1488 -0.1101 -0.2191
14259W        W30733   7.317   9.972  12.965 -0.2580 -0.2654 -0.2145
14260W        W30734   2.122  14.592  12.575  0.0892  0.1921  0.1053
14261W        W30735   0.973  15.125   4.279  0.0312 -0.1010 -0.1225
14262W        W30736  16.531  10.349   1.232  0.0354 -0.1483  0.1372
14263W        W30737   4.054   3.659   4.382 -0.2159 -0.1058  0.1385
14264W        W30738  18.213   6.853  13.723 -0.1273  0.1284  0.1210
14265W        W30739   3.897   4.516   2.283 -0.2223  0.0967 -0.0041
14266W        W30740   3.119  13.133  15.493  0.0349  0.1275  0.1750
14267W        W30741  13.404  18.379  12.937  0.1616  0.0822 -0.2307
14268W        W30742   2.673  11.104  13.414  0.0193  0.0565  0.1484
14269W        W30743   7.521   0.200   4.609 -0.0656  0.2203 -0.3119
14270W        W30744  13.184  13.278   5.170  0.0652  0.1972 -0.0828
14271W        W30745   6.568  13.971   2.188  0.1216 -0.3077 -0.1544
14272W        W30746  13.140  12.945   1.534  0.1508 -0.0685  0.0295
14273W        W30747  17.384  14.189  11.476  0.0110 -0.0216  0.0181
14274W        W30748  12.452   0.265   2.755 -0.2736  0.0049 -0.1652
14275W        W30749  14.774  16.992  14.112 -0.2137  0.0251 -0.2703
14276W        W30750   9.192   9.684   4.614 -0.1381 -0.0643 -0.0293
14277W        W30751   6.645   8.854  15.042  0.0018 -0.2874  0.0562
14278W        W30752   2.426   5.424  15.061  0.2562  0.0419 -0.0324
14279W        W30753  17.963  12.254  13.338  0.1414 -0.1693 -0.0072
14280W        W30754   7.410   8.412  13.737  0.0696 -0.0381 -0.1826
14281W        W30755  10.326   3.996   4.843 -0.1006 -0.1687  0.2221
14282W        W30756   3.130   2.509   0.487 -0.0150  0.3108 -0.0840
14283W        W30757  13.688   5.370   2.108  0.0539 -0.2359  0.1474
14284W        W30758  14.600  15.979   5.157 -0.0451 -0.2263 -0.1115
14285W        W30759  16.132   0.567  13.540 -0.2002 -0.0724 -0.1272
14286W        W30760  12.202  17.226   3.177 -0.1138  0.0077  0.2786
14287W        W30761   6.384   5.096   3.358  0.1431 -0.3180 -0.1473
14288W        W30762   0.131   9.075  13.520 -0.2139  0.2423 -0.0030
14289W        W30763   8.060   7.397  13.846 -0.0295  0.0711 -0.1772
14290W        W30764   9.510  15.442  14.671  0.0215 -0.1489 -0.5826
14291W        W30765  12.968   3.434   4.280 -0.2362  0.1579  0.2168
14292W        W30766  10.417  15.081   2.501  0.0181  0.3159 -0.0556
14293W        W30767  13.977  13.658   5.575 -0.0294 -0.1446 -0.2057
14294W        W30768  16.329   1.494  12.489  0.1102 -0.0965  0.1167
14295W        W30769   1.929   2.846  13.098 -0.1868 -0.4890 -0.1088
14296W        W30770   7.186   1.321  15.890 -0.0397  0.1193 -0.1625
14297W        W30771   3.702  17.934   1.756  0.0509  0.0524  0.2649
14298W        W30772   5.209  18.011   1.874 -0.0273  0.0027  0.0173
14299W        W30773  15.593   0.645  11.248  0.3062 -0.2238 -0.1723
14300W        W30774  10.210  10.671  13.587  0.2594  0.2337 -0.1629
14301W        W30775   9.618  14.210  15.281 -0.1240 -0.1294 -0.0010
14302W        W30776  15.521  16.083  11.745  0.1460  0.0982 -0.1558
14303W        W30777   5.541   0.654  14.456 -0.0978  0.2781  0.1914
14304W        W30778  16.796   8.003   1.352  0.0433  0.0091 -0.0337
14305W        W30779   7.239   7.171  11.469  0.0369 -0.0341 -0.0278
14306W        W30780  16.257  18.104  14.976  0.0003  0.0847  0.0335
14307W        W30781  11.723   5.825   2.718  0.2138 -0.2562  0.1097
14308W        W30782  14.923  16.596   3.575 -0.2239 -0.0239 -0.2314
14309W        W30783  17.255   6.825  12.345  0.0630  0.0011 -0.2171
14310W        W30784   5.200   2.736  15.757 -0.1275 -0.1844  0.0966
14311W        W30785  17.056  11.056   0.415 -0.0439 -0.0479 -0.0030
14312W        W30786  16.969  16.602   4.359 -0.0356  0.0298 -0.0401
14313W        W30787   7.571  17.104   1.015 -0.0739  0.2661 -0.0726
14314W        W30788  12.347   1.272   2.608 -0.2061 -0.0487  0.1497
14315W        W30789  13.797  13.280  11.133  0.2617 -0.3800  0.0759
14316W        W30790   9.502  14.689  11.722  0.1048 -0.1908  0.0422
14317W        W30791   7.481  18.394   3.722 -0.0251  0.2246 -0.0233
14318W        W30792   0.162   6.000   4.847  0.3629  0.0516 -0.0225
14319W        W30793   5.576  11.819   4.548  0.1472  0.1978  0.0508
14320W        W30794   8.564  17.091  14.658 -0.1570 -0.0859  0.4507
14321W        W30795   8.947   8.883  11.433  0.1667 -0.2342  0.1383
14322W        W30796   4.680  12.911  15.445 -0.1087 -0.0722  0.1378
14323W        W30797  10.587   7.281  12.836  0.1207 -0.0063  0.1241
14324W        W30798   9.169  11.570  11.929  0.1045  0.0709 -0.1213
14325W        W30799  18.087  12.763  13.645  0.0586  0.1939  0.1161
14326W        W30800  14.590   2.743   1.017 -0.1327 -0.0206  0.0259
14327W        W30801  12.710  16.654  12.939 -0.4260  0.0473 -0.3265
14328W        W30802  10.845   5.284   1.147 -0.1486  0.0268  0.0937
14329W        W30803   4.267   0.985   0.432 -0.0802  0.3230  0.4596
14330W        W30804  12.681  17.342   3.099 -0.1155 -0.0996  0.1380
14331W        W30805  14.873   7.147  12.471  0.3057  0.0048 -0.0969
14332W        W30806   2.076  13.971  11.157 -0.1088  0.0713  0.0269
14333W        W30807   4.655  12.593   3.573  0.0113  0.0019  0.0727
14334W        W30808  13.211  13.988   0.036  0.1612  0.2012  0.0557
14335W        W30809   6.677   7.386  14.188 -0.4025 -0.1537 -0.0982
14336W        W30810  11.103   7.822   5.560  0.0813 -0.0400 -0.1072
14337W        W30811   8.022   2.725   5.602  0.0527  0.0657 -0.0189
14338W        W30812   9.043  13.995  14.142  0.1891 -0.3642  0.1234
14339W        W30813   0.241   9.797   3.483 -0.2570 -0.1058  0.0433
14340W        W30814   4.261  16.257  14.175  0.2067 -0.0632  0.0987
14341W        W30815   6.514  11.152   3.000  0.0145  0.0552 -0.1342
14342W        W30816  13.196   0.598   1.701  0.0124  0.1066  0.1061
14343W        W30817  16.300   5.588   2.128  0.1078  0.0760 -0.0209
14344W        W30818   6.365  16.796  10.682 -0.2840  0.2109 -0.0706
14345W        W30819   2.361   8.831  13.038  0.0081  0.3582  0.1023
14346W        W30820   1.056   3.719  13.113 -0.0692  0.0858 -0.2130
14347W        W30821   3.172  12.410   5.181  0.2121 -0.2571 -0.2044
14348W        W30822   2.517   5.455  11.959  0.0867  0.0539  0.1968
14349W        W30823   5.542   3.342  11.885  0.0757  0.2135 -0.0144
14350W        W30824  13.464  15.750  12.670 -0.0344 -0.0727 -0.2480
14351W        W30825   9.391   5.824   4.497 -0.3115  0.1051 -0.2017
14352W        W30826  18.264   3.097  13.443  0.2012 -0.0422 -0.0663
14353W        W30827  13.180  10.415   6.281 -0.1057  0.1757  0.2651
14354W        W30828   4.571  10.971  14.892 -0.3140  0.0339 -0.2029
14355W        W30829  12.865  16.596  14.456 -0.2956  0.0761  0.0551
14356W        W30830   7.456   8.854  14.434  0.1051  0.2397 -0.2755
14357W        W30831  12.291   8.667  14.232  0.0306  0.1177 -0.1641
14358W        W30832   9.548  17.665   5.004 -0.0402  0.0849 -0.2047
14359W        W30833   9.047  16.732  12.207 -0.0077  0.0684  0.2467
14360W        W30834   2.679  12.452  12.279  0.2654  0.0999  0.0054
14361W        W30835   9.823   5.367  11.247 -0.0763 -0.1146 -0.1178
14362W        W30836   7.667  10.154   3.428  0.0506  0.0830 -0.1039
14363W        W30837   9.218   0.854  14.258  0.2312 -0.0426  0.0505
14364W        W30838  15.638  10.061   0.456 -0.0705  0.0964  0.0973
14365W        W30839   9.869   1.827   3.369 -0.0653 -0.0586  0.0802
14366W        W30840   3.858   4.540  14.124  0.2106  0.2030  0.1514
14367W        W30841   0.867   6.572  12.918  0.1336  0.0989  0.0581
14368W        W30842  17.472   0.056   3.826  0.2458  0.1302 -0.0546
14369W        W30843  11.119  11.940   5.355  0.2103  0.0709 -0.0613
14370W        W30844   6.304  14.416   2.064  0.2811  0.1715  0.0621
14371W        W30845  14.024  11.474   4.822 -0.1778 -0.2511 -0.1482
14372W        W30846   9.938  11.671   1.320 -0.0904  0.3157 -0.0439
14373W        W30847  15.127  17.608   4.943  0.0243 -0.1937  0.1827
14374W        W30848  14.601   7.839   3.197  0.2172 -0.0261  0.3789
14375W        W30849  11.933  11.947  15.316 -0.2687  0.0756  0.1154
14376W        W30850   9.824  17.118  14.014  0.2535 -0.1245  0.2001
14377W        W30851   6.742   7.085   3.226 -0.1312 -0.0269 -0.1303
14378W        W30852   4.858  11.483   1.221 -0.1241 -0.0660 -0.2543
14379W        W30853   1.127  10.656   4.474 -0.3831  0.0128  0.1518
14380W        W30854   0.784   5.847   0.144 -0.1057 -0.0217  0.1552
14381W        W30855  15.809  17.517   2.672 -0.0214 -0.1224  0.1967
14382W        W30856  15.226   7.314  15.616 -0.0816 -0.0775  0.0004
14383W        W30857   8.889   1.320   3.471 -0.1328  0.1834 -0.0884
14384W        W30858  17.387   0.978   2.436  0.4066  0.0877  0.0854
14385W        W30859   2.997   0.727   5.580  0.1891 -0.1010 -0.1757
14386W        W30860  11.542  16.704   5.545  0.2097  0.0054 -0.1289
14387W        W30861   0.769   0.106   0.130 -0.3379  0.0229 -0.0482
14388W        W30862   4.067  15.785   2.238  0.0991  0.0217 -0.0106
14389W        W30863   6.328   9.921   2.278  0.3277 -0.1453  0.1967
14390W        W30864  13.956  15.630  12.618  0.1436  0.0128 -0.4041
14391W        W30865  14.053   4.764  13.588 -0.4996 -0.3758 -0.0370
14392W        W30866   5.177   9.488   5.831  0.2573 -0.1140 -0.2617
14393W        W30867  13.733   7.352   2.073 -0.2464 -0.2395 -0.1891
14394W        W30868   2.164  14.241  14.055 -0.0482 -0.0915  0.1902
14395W        W30869  12.079  13.597   5.661 -0.1912  0.0104 -0.2611
14396W        W30870  14.094   2.292  11.572  0.0946 -0.0017 -0.1116
14397W        W30871   6.861   2.541   2.001  0.1591  0.0956  0.0763
14398W        W30872   9.437   4.020   2.911 -0.2431  0.0236 -0.1538
14399W        W30873   4.405   9.406  15.410  0.0798  0.0017  0.0902
14400W        W30874  15.969   4.943  15.795 -0.0896  0.1585  0.0651
14401W        W30875   2.301  12.306  10.295  0.2419 -0.0440 -0.1812
14402W        W30876  11.319   9.278  13.875  0.0913 -0.0136  0.3204
14403W        W30877   6.124  16.598  11.155 -0.0492 -0.0753  0.0969
14404W        W30878  11.798   6.890   3.639  0.0744  0.2122  0.0144
14405W        W30879  11.203  18.023  13.496 -0.2303 -0.1649  0.1436
14406W        W30880  15.805  14.317   2.390  0.0691  0.1721  0.0904
14407W        W30881   0.167  14.795  14.979  0.0152 -0.1583 -0.0611
14408W        W30882  15.939  12.766   1.458  0.1303 -0.0625 -0.0009
14409W        W30883   3.454  13.210  13.786  0.4523 -0.0355  0.1699
14410W        W30884   7.499  11.755   1.541  0.2241  0.3660 -0.0543
14411W        W30885   0.625  16.129  13.049 -0.1080  0.2564 -0.1475
14412W        W30886   3.942   2.315   5.528  0.0340  0.0047  0.3301
14413W        W30887   5.220   1.321  12.085 -0.0097 -0.0179  0.1215
14414W        W30888   9.148   6.292  11.594  0.3368  0.0131 -0.0438
14415W        W30889  14.556   5.957   5.326 -0.0184 -0.0925  0.1314
14416W        W30890   7.101   2.919  12.384  0.1247  0.1493  0.2144
14417W        W30891  12.139   6.566   2.913  0.0776 -0.2954 -0.0252
14418W        W30892  16.332   3.729   2.207  0.0603  0.0444  0.1212
14419W        W30893   2.989  14.760   1.231 -0.1463  0.3054 -0.0142
14420W        W30894   4.983  18.151  15.646  0.1494 -0.1635 -0.0077
14421W        W30895  13.154   2.922   4.949 -0.0936 -0.0084  0.1262
14422W        W30896   5.691   2.539  11.093 -0.3093  0.4798  0.1713
14423W        W30897   8.752   5.675   1.652 -0.3277 -0.0081 -0.2445
14424W        W30898   2.416   5.075  12.407 -0.1123 -0.2171  0.2955
14425W        W30899   5.307  18.048   2.354 -0.0713  0.0485 -0.1514
14426W        W30900  10.572   8.847  14.128  0.1853 -0.4167  0.0637
14427W        W30901  12.767   0.370  14.932  0.2249  0.1197 -0.0854
14428W        W30902   4.198  12.956   2.178  0.2892  0.0803 -0.1458
14429W        W30903  13.841  16.560   0.901  0.0259  0.1319 -0.1116
14430W        W30904   3.013   6.721   1.634 -0.0374 -0.1040 -0.0450
14431W        W30905  16.444   1.725   5.189 -0.1181 -0.0630 -0.0183
14432W        W30906   9.567  13.855  12.185  0.0510  0.1254  0.2104
14433W        W30907   0.409   3.376  13.771  0.2941  0.1637  0.1468
14434W        W30908   8.327   4.742   0.901 -0.1669  0.2428 -0.2656
14435W        W30909  11.890   4.695  14.227  0.1479 -0.0889  0.1017
14436W        W30910  10.737  17.226   0.162  0.0804  0.1426 -0.2175
14437W        W30911  18.450  11.537   1.241  0.0488  0.2402  0.1470
14438W        W30912   1.742   9.771   0.330 -0.1330  0.0299 -0.0497
14439W        W30913  11.608  17.212   0.533  0.0860  0.1528  0.2186
14440W        W30914   8.122   6.472  12.613 -0.1529 -0.0146 -0.0623
14441W        W30915   7.656   3.103   3.658 -0.2162  0.1436  0.0718
14442W        W30916   6.486   3.253   1.432 -0.3551  0.3062  0.1748
14443W        W30917   2.898   2.774  14.690 -0.1189 -0.1211  0.1493
14444W        W30918  15.405  13.521   4.507  0.0124 -0.0283 -0.1574
14445W        W30919   4.252   0.434   4.697 -0.1407  0.1464 -0.0464
14446W        W30920   5.427  15.742   3.143 -0.1211  0.3826 -0.1301
14447W        W30921  13.210   5.594   0.943 -0.0907 -0.0809  0.1422
14448W        W30922  15.818  15.953   0.517  0.1226 -0.0800 -0.2785
14449W        W30923   4.386   6.593  11.650  0.2815  0.4117  0.2661
14450W        W30924  13.317  14.945  13.067  0.2331  0.0580 -0.0203
14451W        W30925  16.794   4.491   4.152 -0.1317  0.0978 -0.3163
14452W        W30926  17.631  17.772   1.738  0.1178  0.0369 -0.1098
14453W        W30927  12.607  11.267  15.850  0.0846  0.0362  0.0167
14454W        W30928   8.010  12.490  11.638 -0.1931  0.1372  0.2531
14455W        W30929   1.586   0.309   3.373  0.1259  0.0413 -0.1504
14456W        W30930  10.971  14.507  15.243 -0.0238  0.0326  0.0108
14457W        W30931  14.168   9.076  15.303  0.1005  0.0837 -0.0435
14458W        W30932  13.024  18.176   3.573 -0.0538 -0.4577  0.2226
14459W        W30933  10.208  12.277  11.895  0.1919  0.0939 -0.0019
14460W        W30934   5.964   5.672   1.199 -0.1981  0.1606 -0.0977
14461W        W30935  12.499   1.371  12.612 -0.0525 -0.0556  0.3001
14462W        W30936   5.130  12.174   4.412 -0.0718 -0.4609  0.0148
14463W        W30937   0.530   0.670   1.847  0.2045 -0.0798  0.2959
14464W        W30938  12.587  11.743   0.582  0.0389  0.0521 -0.0494
14465W        W30939  12.395   9.324  14.812 -0.1712 -0.0612 -0.0618
14466W        W30940  10.830  16.871   3.345  0.0428 -0.0907  0.0495
14467W        W30941   0.968   9.394  12.351 -0.0254  0.2281  0.2054
14468W        W30942  18.003  10.676  11.356  0.4183  0.1209 -0.0209
14469W        W30943   1.449  18.237   2.089  0.0178 -0.2240 -0.0151
14470W        W30944   0.155  18.061  13.292 -0.0108 -0.1688 -0.0411
14471W        W30945   8.867   5.828  12.440 -0.2811 -0.0139  0.1757
14472W        W30946   8.293   8.418  13.944 -0.0072 -0.0855 -0.0607
14473W        W30947  10.045   4.701   5.122  0.1582 -0.1750 -0.0961
14474W        W30948  11.842   9.877   4.575 -0.1272 -0.1653 -0.0718
14475W        W30949   3.218   1.464   4.495 -0.0430  0.0584  0.3624
14476W        W30950   5.386   2.827   3.578  0.0166 -0.2020 -0.1024
14477W        W30951   8.486  10.454  12.519 -0.0278  0.2611 -0.0638
14478W        W30952   3.394   5.330  11.939  0.0116 -0.0154  0.3681
14479W        W30953   9.182  12.348   0.231  0.1693  0.0851 -0.1135
14480W        W30954   2.417   2.058  15.039 -0.0977  0.0553 -0.0957
14481W        W30955   1.274   7.181   2.973 -0.0062 -0.2258 -0.1956
14482W        W30956   0.665   5.993   4.646  0.1945 -0.0895 -0.0694
14483W        W30957   9.976  11.754  15.889 -0.0555  0.3789 -0.0371
14484W        W30958   0.698   7.217  14.849 -0.1882 -0.0382  0.2019
14485W        W30959   4.994  17.933   5.171  0.2930 -0.2613 -0.1673
14486W        W30960  17.570  12.180   0.473 -0.1618 -0.0680  0.2146
14487W        W30961  14.376  17.229   2.544  0.3334  0.0468 -0.1011
14488W        W30962  11.750  14.017   5.746 -0.0196 -0.0673 -0.1596
14489W        W30963   7.591   6.804  13.200 -0.3017 -0.1759  0.1538
14490W        W30964  12.921   4.721   3.475 -0.1282  0.0682  0.1187
14491W        W30965  14.718   8.744  12.888 -0.0091  0.3016  0.2064
14492W        W30966   2.285  11.212   1.936  0.1935  0.2450  0.0650
14493W        W30967   3.201  12.383  13.687 -0.0085  0.3501 -0.1461
14494W        W30968   0.004  13.592   3.756  0.0894  0.1931 -0.0314
14495W        W30969   9.029  18.125  13.839  0.0716  0.5431 -0.1533
14496W        W30970  14.204   7.779  15.126  0.1081  0.0769  0.1664
14497W        W30971  14.756   6.350  10.179 -0.1726 -0.0991  0.1304
14498W        W30972  15.879  11.811   1.662  0.2057 -0.3592  0.0426
14499W        W30973   2.648  12.225   5.203 -0.1472  0.0514 -0.1110
14500W        W30974  13.196  14.579   3.416 -0.1608  0.0002  0.3816
14501W        W30975   5.170   4.928  12.392 -0.2491  0.1969 -0.0210
14502W        W30976   8.867  15.035  15.597  0.0284 -0.1695  0.2579
14503W        W30977   2.631  11.351  14.712  0.0483 -0.0981  0.2614
14504W        W30978   3.731   6.628   3.431  0.1444 -0.0402 -0.0675
14505W        W30979  11.817  14.832  12.443 -0.1752  0.0602  0.1309
14506W        W30980   8.000  10.445   1.668 -0.1281 -0.0718  0.0256
14507W        W30981  12.821  13.890   3.252 -0.1340  0.0746 -0.1379
14508W        W30982  12.850   0.393  15.639 -0.1889 -0.1227  0.1734
14509W        W30983   5.225   1.029  14.460 -0.2429  0.1080 -0.0405
14510W        W30984  14.881  12.834  13.491  0.0165 -0.1052  0.0432
14511W        W30985   3.380   4.625  14.067 -0.0954  0.1231  0.0546
14512W        W30986   6.719  18.125   2.739  0.1330  0.0818  0.0226
14513W        W30987  10.174   5.559   3.386  0.1068 -0.1347 -0.0087
14514W        W30988  14.603   1.894   4.204  0.0210 -0.2089  0.0666
14515W        W30989  18.297  18.431  15.276  0.1177  0.1523  0.2292
14516W        W30990  17.871   4.294   4.230 -0.1463  0.0858 -0.1782
14517W        W30991   1.385   9.901   5.343 -0.1193 -0.0049 -0.3000
14518W        W30992   7.699  11.306   3.828  0.0139  0.0937  0.1987
14519W        W30993  10.898   9.623  13.050 -0.1007  0.1158 -0.2142
14520W        W30994   9.622  14.587  15.714 -0.2317  0.2690  0.3012
14521W        W30995  16.912   5.142   0.659  0.4765  0.0837 -0.1768
14522W        W30996  13.863   4.200  13.348 -0.0315  0.0193  0.1495
14523W        W30997  13.102  16.540   0.294 -0.0856  0.4502  0.1200
14524W        W30998  12.959   4.043  15.908 -0.1839 -0.2745 -0.3674
14525W        W30999  10.567   2.567   1.750  0.1186  0.0157 -0.2986
14526W        W31000  15.126   2.533  14.266  0.0692 -0.1944  0.4236
14527W        W31001   3.872  12.457  11.990  0.4497  0.1934 -0.2882
14528W        W31002  10.545   0.167   1.200  0.0160 -0.4970 -0.1106
14529W        W31003  11.179   6.371   1.982 -0.0961  0.2456  0.1090
14530W        W31004  16.775   0.223   2.955 -0.3296 -0.0285  0.1910
14531W        W31005  17.576   3.499   4.795 -0.0816 -0.5504  0.0271
14532W        W31006  15.830  15.891  11.434  0.2161 -0.0116  0.0585
14533W        W31007  10.568   7.735  15.657  0.0956 -0.0412  0.1439
14534W        W31008  10.347   3.610  13.873  0.0744  0.1721 -0.0408
14535W        W31009  12.460   0.237   2.250 -0.2041 -0.0403 -0.0317
14536W        W31010  11.462   3.197   2.139 -0.1522 -0.2230  0.2187
14537W        W31011  17.388  15.196   1.008  0.1173  0.1350 -0.0159
14538W        W31012  16.664  11.264  12.153 -0.2699  0.0413  0.1619
14539W        W31013  13.368  14.931   2.451 -0.4016  0.0936  0.0816
14540W        W31014   6.124   2.545  15.340  0.1001 -0.1726 -0.1733
14541W        W31015   6.190   3.117  13.976  0.0818 -0.4308 -0.0094
14542W        W31016   5.195   7.758  13.545 -0.2377  0.1072  0.1530
14543W        W31017   0.770   5.627   1.398 -0.1224 -0.1109  0.2249
14544W        W31018  10.263   7.363  15.794  0.0033  0.2188 -0.2256
14545W        W31019  14.424   4.453  14.973 -0.1734  0.2101 -0.0192
14546W        W31020  10.508   4.992   2.827  0.1123  0.0516  0.2787
14547W        W31021  15.177  16.201   1.053 -0.1309 -0.0187 -0.0638
14548W        W31022  18.228   7.951  12.345 -0.1386  0.1022  0.2770
14549W        W31023  16.317  12.723  13.405  0.0473 -0.1537  0.1851
14550W        W31024  14.780   6.696  11.836  0.3691  0.5291 -0.2782
14551W        W31025   4.323   3.465  15.248 -0.2463  0.1279 -0.2226
14552W        W31026  10.988  10.741  13.141 -0.4566 -0.0201 -0.1584
14553W        W31027  17.250  17.538   3.532  0.0513  0.1292 -0.0486
14554W        W31028   4.723  18.467   3.574 -0.0662 -0.2973  0.2801
14555W        W31029  18.042   6.760   1.231 -0.0073  0.0609 -0.3398
14556W        W31030  17.233   5.584   3.451 -0.0669 -0.1539 -0.0456
14557W        W31031  15.373   2.795   4.756 -0.0114 -0.1961 -0.2482
14558W        W31032  12.478  13.754  15.718 -0.0309 -0.3307 -0.4333
14559W        W31033   7.119   0.941  11.806  0.1920  0.1078 -0.3141
14560W        W31034   3.678   8.389   2.767  0.0352  0.0891  0.0532
14561W        W31035   8.527   0.545  12.495  0.1400  0.2094 -0.0376
14562W        W31036  15.914  17.863   3.456  0.4286 -0.2722 -0.2466
14563W        W31037  13.181  15.460   0.433  0.0151  0.0268 -0.0885
14564W        W31038  12.650   3.051   4.293  0.0622  0.0908  0.0734
14565W        W31039   1.492  16.863  12.141 -0.0742  0.1692 -0.0314
14566W        W31040   7.572   6.045   4.243  0.2269 -0.0908  0.2195
14567W        W31041   4.745   4.060   0.346  0.2167 -0.0118 -0.0578
14568W        W31042  14.577   1.510  11.897  0.1313  0.3134  0.0047
14569W        W31043   2.012  18.144   3.509 -0.2627  0.1119  0.1632
14570W        W31044   4.700   3.493   3.338  0.1270 -0.1282 -0.2215
14571W        W31045  15.657  12.946   5.628 -0.2016 -0.2794 -0.2993
14572W        W31046  17.452  13.026   3.276  0.1859  0.2644  0.0469
14573W        W31047   8.855  13.419   4.059 -0.2902  0.0908 -0.0976
14574W        W31048   8.232  17.793   1.019  0.3012 -0.0624 -0.2278
14575W        W31049   0.020  10.809  12.648  0.0719 -0.1432  0.0364
14576W        W31050   1.708   0.909   3.722 -0.0274  0.1312 -0.0720
14577W        W31051   1.887  11.954  13.733  0.0992 -0.2401 -0.1226
14578W        W31052   7.395   1.038  15.463  0.4647  0.1081  0.0911
14579W        W31053  16.407   5.358  14.416  0.0154 -0.1038  0.2712
14580W        W31054  10.866   6.384   2.865 -0.2496 -0.2355 -0.3184
14581W        W31055   3.525   1.929   1.979  0.1334  0.0716  0.0307
14582W        W31056   9.118  13.927  12.854 -0.1710  0.0443  0.3050
14583W        W31057   6.989  13.740   4.801  0.0767 -0.0764 -0.1253
14584W        W31058  10.378   7.992   1.858  0.4209  0.0717 -0.2653
14585W        W31059   2.575   8.194   2.036  0.0284  0.1281  0.1774
14586W        W31060  13.444   3.528  12.278  0.0859  0.1592  0.2094
14587W        W31061   3.321   8.463  12.950  0.3743  0.3803 -0.0611
14588W        W31062  16.828   6.048  11.374 -0.4460  0.1559 -0.3481
14589W        W31063  15.600  13.706   1.978  0.3365 -0.2533 -0.2483
14590W        W31064   1.213   4.597  11.858 -0.1392 -0.0792 -0.2539
14591W        W31065  15.645   5.548  13.194 -0.0733 -0.1200 -0.0474
14592W        W31066  15.135  10.481   4.968 -0.0310  0.0510 -0.1479
14593W        W31067  12.338   2.906   0.498  0.0879 -0.1159  0.0990
14594W        W31068   0.050  15.764   5.244 -0.0275 -0.1923 -0.0564
14595W        W31069   3.094   7.156  11.463 -0.2234  0.0564 -0.1183
14596W        W31070   6.150   8.666   0.462  0.0145 -0.2232 -0.1551
14597W        W31071   4.703  10.832  11.601  0.6253  0.2708  0.0012
14598W        W31072   0.120  13.760   3.270 -0.3074  0.2796 -0.0865
14599W        W31073  12.809  14.392   3.211  0.0991  0.2173  0.0271
14600W        W31074   9.811   4.825  12.091  0.2375  0.0216 -0.0438
14601W        W31075   3.508   2.191   0.760 -0.2854 -0.3030  0.0434
14602W        W31076  15.584   3.584   3.738 -0.0088 -0.0172 -0.2364
14603W        W31077  17.292   9.080   0.205  0.1953 -0.2930  0.1661
14604W        W31078   7.619  13.128   3.546  0.2112  0.2508 -0.1737
14605W        W31079  17.337  16.661   5.123  0.0308  0.0445  0.1242
14606W        W31080   3.823  10.121   0.495 -0.0433  0.2238  0.0335
14607W        W31081   1.399   4.875  12.472 -0.1240 -0.3553 -0.1706
14608W        W31082   5.493  15.580   2.305  0.0912 -0.2362  0.1443
14609W        W31083  13.240   0.069   4.332  0.1016  0.1037 -0.0984
14610W        W31084   9.700  12.069  14.209  0.0423 -0.1496 -0.4588
14611W        W31085  15.538  10.482   2.226  0.0124  0.1637 -0.1811
14612W        W31086   7.630   6.427  12.069 -0.1955 -0.1534 -0.4187
14613W        W31087  13.893  14.580   0.334  0.1035 -0.0072 -0.1062
14614W        W31088   7.476  10.765   5.595 -0.0586 -0.0635  0.3774
14615W        W31089  17.064   4.783   2.415 -0.2974  0.1357 -0.0284
14616W        W31090  15.500  11.833  15.756  0.1496  0.0996 -0.2750
14617W        W31091   8.021  15.361  14.846 -0.1045 -0.0953 -0.0268
14618W        W31092   3.759   8.746   3.982  0.0491  0.2707  0.2762
14619W        W31093   6.968   1.209  13.227 -0.1126 -0.3003  0.0015
14620W        W31094   9.395  10.613   5.949  0.1785 -0.2179 -0.0045
14621W        W31095   3.240  15.789   1.615  0.2624  0.0026  0.2088
14622W        W31096   8.847  11.780   0.997 -0.0607 -0.0373 -0.1843
14623W        W31097  16.614   7.367   2.539 -0.1057 -0.1304  0.0615
14624W        W31098  13.604  12.278   6.090  0.1646 -0.2575 -0.0671
14625W        W31099  13.502  18.304   2.251 -0.0180 -0.3175  0.0540
14626W        W31100  10.398   3.452  14.690  0.1269  0.0965  0.2351
14627W        W31101  13.433  13.514   0.951 -0.2671 -0.2322 -0.3299
14628W        W31102  13.945  10.090   2.270 -0.0267 -0.2180 -0.0868
14629W        W31103   5.634  11.260   5.239  0.1354  0.0874 -0.1890
14630W        W31104  11.531   8.175  12.962  0.0963  0.1078 -0.4322
14631W        W31105  17.078   5.188   1.725 -0.3855 -0.2364 -0.0247
14632W        W31106   9.108   2.866   2.710 -0.1351 -0.0217 -0.3626
14633W        W31107  11.647   5.618   0.194  0.0315  0.0356  0.0945
14634W        W31108  14.442   0.107   1.636  0.0094  0.0038 -0.3217
14635W        W31109   9.284   9.867  14.820  0.0899  0.1864 -0.2251
14636W        W31110  11.678  16.832  10.771 -0.3246 -0.1244  0.1630
14637W        W31111  10.906   1.520  14.340  0.0018  0.1545  0.1469
14638W        W31112  13.140  10.025   2.623 -0.0792  0.0850 -0.1945
14639W        W31113  12.309   6.759  11.340 -0.0622  0.2122 -0.2247
14640W        W31114  16.718   0.071  13.295  0.0611  0.0344  0.1340
14641W        W31115  18.177   7.531  14.570  0.2227 -0.0151  0.0243
14642W        W31116  18.305   4.290  10.089  0.1516 -0.2703  0.0926
14643W        W31117   0.715  11.309   4.710 -0.2078  0.1551  0.3792
14644W        W31118   3.638  11.619   4.234  0.3556  0.0900  0.2300
14645W        W31119   9.689  16.851   3.189 -0.1870  0.0263 -0.0097
14646W        W31120   5.706  11.356   0.456 -0.0340  0.2085  0.0487
14647W        W31121  13.929   5.692  14.523  0.3152  0.0077 -0.2013
14648W        W31122  10.658  17.838   3.033 -0.0436  0.0175 -0.0300
14649W        W31123   3.521   8.320   0.777 -0.2266  0.4158  0.2087
14650W        W31124   7.966   2.268   0.481  0.1573  0.4233 -0.1808
14651W        W31125  12.702   7.030   4.980 -0.1307 -0.1663  0.1530
14652W        W31126  12.411  15.587  12.829 -0.0832 -0.1528  0.0542
14653W        W31127   4.768   9.370   2.879  0.0898  0.2311 -0.1939
14654W        W31128  12.736   4.622   5.934 -0.1039 -0.0241  0.0005
14655W        W31129   1.445   8.113   0.997 -0.0008  0.1578  0.1913
14656W        W31130   7.910   0.790   3.817 -0.0791  0.0463 -0.0178
14657W        W31131  15.069  11.052  15.255 -0.2680 -0.1659  0.0185
14658W        W31132  13.779   0.506  14.784  0.0352  0.2629 -0.1075
14659W        W31133  18.474  13.360   2.851 -0.1227  0.1468  0.0517
14660W        W31134   8.631  13.240  15.362 -0.1499 -0.0526  0.2189
14661W        W31135  14.272   6.185  11.321  0.1525  0.3105 -0.0338
14662W        W31136   7.186  11.475  13.006 -0.2735 -0.4524 -0.1660
14663W        W31137  14.681   1.675  15.969 -0.2891 -0.3131 -0.1478
14664W        W31138  11.855  11.945  11.702  0.2032 -0.1722  0.1027
14665W        W31139   5.039   4.265  14.482  0.1488 -0.0335 -0.1505
14666W        W31140  15.644  13.902  14.844 -0.0192  0.3276  0.0606
14667W        W31141  14.959   0.392   2.277  0.0057  0.0427 -0.2324
14668W        W31142   0.223   2.758  13.425  0.0385  0.0770  0.0766
14669W        W31143   4.135  18.027   2.502  0.2444 -0.1190  0.3031
14670W        W31144   8.966  16.405  14.369 -0.1144  0.0798  0.2370
14671W        W31145   2.335  12.830  14.238 -0.0776 -0.3848  0.0676
14672W        W31146   2.825  17.203   0.733  0.0066  0.0062  0.3280
14673W        W31147   6.258  14.758   2.464 -0.0464  0.1052  0.0108
14674W        W31148  14.392   4.345   4.253 -0.0153  0.0439 -0.2505
14675W        W31149   6.911   9.896  12.617 -0.2898 -0.0165 -0.2567
14676W        W31150  10.049   1.902  11.961 -0.0677 -0.0649 -0.0253
14677W        W31151   4.402  13.688  14.853 -0.1798 -0.0518 -0.1134
14678W        W31152   5.376   3.775   3.844 -0.0315 -0.0897  0.2353
14679W        W31153   6.348   4.555   1.035 -0.1359  0.0988 -0.0144
14680W        W31154  13.712   2.459   3.155 -0.3349 -0.0051  0.2188
14681W        W31155   4.116   0.970   1.816 -0.1263 -0.1995  0.0468
14682W        W31156  15.531   0.970   1.120  0.2224  0.1802  0.1816
14683W        W31157   7.334   4.492   1.337  0.3758  0.0791 -0.1900
14684W        W31158   1.297  11.237   3.816  0.0684  0.0651 -0.2137
14685W        W31159   5.274  12.185   2.402 -0.0409  0.3388  0.0592
14686W        W31160  10.167  16.418   0.353 -0.0024  0.1532  0.1126
14687W        W31161  11.926   4.981   3.579  0.0549 -0.2287  0.2031
14688W        W31162  16.034   7.966   2.497  0.0498 -0.4694  0.1851
14689W        W31163   2.147  14.493  11.186 -0.0179  0.2824  0.3848
14690W        W31164   1.982  15.046  13.734 -0.1185  0.0384 -0.3615
14691W        W31165  10.015   3.328   1.116 -0.1410  0.0604  0.1324
14692W        W31166   4.756   5.145   1.543 -0.2308  0.5212  0.1722
14693W        W31167   9.936  17.076  15.483  0.0338 -0.0394  0.0351
14694W        W31168  10.200   1.538   0.703 -0.3685 -0.0384  0.1908
14695W        W31169   9.498  16.961  11.097 -0.0111  0.0378 -0.3880
14696W        W31170   6.920  15.061   0.268 -0.0040  0.1463 -0.2201
14697W        W31171   6.662   5.953   4.549  0.0406 -0.2827 -0.2675
14698W        W31172   9.208   7.027  15.504  0.0652  0.2304 -0.0071
14699W        W31173  10.977  15.420  12.699 -0.1354 -0.0123  0.1243
14700W        W31174   1.350  18.299  11.114  0.1171  0.2228 -0.2387
14701W        W31175   6.034   9.528   0.035  0.2711  0.1519 -0.1488
14702W        W31176  15.768  17.056  14.148  0.0966  0.1074 -0.0247
14703W        W31177   0.677   0.610  11.113  0.0125 -0.0507 -0.0983
14704W        W31178  18.241   1.640  11.077  0.0968 -0.3026  0.1470
14705W        W31179   7.636   0.673   0.985  0.3373  0.1494 -0.1265
14706W        W31180  15.036   6.372   3.712 -0.0267  0.2986 -0.1146
14707W        W31181  17.002  13.444  14.819 -0.2537 -0.2265  0.0331
14708W        W31182  17.106  16.808   1.818 -0.2294  0.3004 -0.0690
14709W        W31183  14.467   1.364   1.870  0.0129  0.1698  0.2372
14710W        W31184   9.851   4.244   4.114 -0.2034  0.3163 -0.2892
14711W        W31185  11.969   1.614  15.395 -0.1514  0.0301 -0.1058
14712W        W31186   8.471   3.514   4.633  0.0371 -0.2239  0.2561
14713W        W31187  12.774   8.386  11.258  0.2467 -0.1204 -0.2287
14714W        W31188  17.277  12.542   3.468  0.0913 -0.1628  0.0348
14715W        W31189  14.660  12.063  11.646 -0.3251 -0.0256  0.4472
14716W        W31190  17.862   4.152   1.125  0.0704  0.0476  0.3305
14717W        W31191  15.292  13.875   2.909  0.0474  0.1209 -0.1165
14718W        W31192   1.513   0.413   0.318 -0.0616 -0.1541  0.3699
14719W        W31193  15.591  16.414   0.726  0.0791 -0.0587  0.0072
14720W        W31194   5.877   3.866  15.591  0.2355 -0.2081 -0.0295
14721W        W31195  12.033  17.326  11.997  0.3075 -0.1541 -0.2399
14722W        W31196  14.837  14.447  12.268  0.0545  0.0659  0.0590
14723W        W31197   1.216  12.408   5.553  0.1359  0.1365  0.0085
14724W        W31198   7.775  14.602  11.612 -0.0926 -0.0582  0.1106
14725W        W31199  13.039   5.842   0.373  0.2416  0.0548  0.0278
14726W        W31200  16.036  12.984  15.909 -0.0225  0.0783  0.1564
14727W        W31201   4.964   0.047   5.154 -0.1998  0.0460 -0.2356
14728W        W31202   0.149   0.102  11.532  0.1761  0.0571 -0.2075
14729W        W31203   7.635   2.055  13.310  0.0065 -0.0771 -0.0607
14730W        W31204   8.868   2.711   5.176 -0.0535  0.1395 -0.0060
14731W        W31205  14.778   7.118   0.340  0.0131 -0.1015  0.2709
14732W        W31206  14.880   3.348   4.045 -0.0381  0.0827 -0.2487
14733W        W31207  11.090  14.676  11.659  0.2094 -0.1884  0.1251
14734W        W31208   2.795  15.328  14.437  0.2309  0.0313 -0.2225
14735W        W31209   3.010   3.589   2.643 -0.0432  0.0198  0.0536
14736W        W31210   1.049  11.371  15.374 -0.0394 -0.2374 -0.0302
14737W        W31211   3.964   5.022   5.096  0.0382  0.1918 -0.0874
14738W        W31212  16.622  16.294  11.759  0.0946 -0.2229  0.1742
14739W        W31213  18.411   9.492  13.837 -0.2923  0.2987  0.0532
14740W        W31214   6.621   7.023   0.600 -0.1450  0.2944  0.0830
14741W        W31215  13.966  10.278   3.284  0.1136 -0.0767  0.4654
14742W        W31216   6.842  11.223  12.785  0.1695 -0.1203 -0.0668
14743W        W31217  14.738  11.464   5.871 -0.2586 -0.1151 -0.0692
14744W        W31218  12.885   8.368   1.428 -0.2651 -0.2039 -0.2986
14745W        W31219  10.516  15.241   5.341 -0.2114 -0.0472 -0.0483
14746W        W31220  11.491   9.542   1.319 -0.5376 -0.1319  0.0146
14747W        W31221   6.316   3.883   3.479 -0.2650  0.1393 -0.1392
14748W        W31222   1.907  10.487   0.140  0.0100  0.2813 -0.2116
14749W        W31223   8.932   9.919  11.271  0.0766 -0.1557 -0.0295
14750W        W31224  11.646  12.744   3.978 -0.1377  0.1374 -0.0635
14751W        W31225   6.817  10.318   2.855  0.0489 -0.2168  0.2455
14752W        W31226  10.310  13.014   4.471  0.0682  0.1677 -0.0615
14753W        W31227  16.336   8.764  13.530 -0.0043 -0.0222 -0.1710
14754W        W31228  11.531   4.953   4.758 -0.1565 -0.1309 -0.1680
14755W        W31229  16.055   8.577  14.456  0.2141 -0.0680 -0.3757
14756W        W31230   6.155   5.564   4.364 -0.0278 -0.3603  0.2578
14757W        W31231   5.201   0.033  11.023 -0.0723 -0.1692  0.0277
14758W        W31232  18.147  10.474  12.794 -0.2810 -0.2082  0.0580
14759W        W31233   3.972  12.819   4.073  0.2369 -0.1956 -0.0162
14760W        W31234  14.445   6.927  14.988  0.0427 -0.0318 -0.3330
14761W        W31235  12.684  15.959  12.289  0.1227 -0.0336  0.0196
14762W        W31236   4.054   6.635   0.247  0.1835  0.0094 -0.2806
14763W        W31237   0.655   0.791  14.544 -0.1915  0.0321 -0.1034
14764W        W31238  12.153  12.111   5.475  0.2700 -0.1276 -0.0681
14765W        W31239  15.460   4.853  15.765  0.1640  0.3491  0.1039
14766W        W31240   0.511   2.946  15.862  0.3384  0.0326  0.2999
14767W        W31241   1.696   0.357   4.420 -0.1752 -0.2682 -0.0096
14768W        W31242  14.749   0.888  11.127  0.4421 -0.2871  0.0576
14769W        W31243  15.672   7.927   1.290 -0.1274  0.1211 -0.0791
14770W        W31244  12.186  13.421  12.724  0.1053  0.0637  0.1549
14771W        W31245   9.518   8.212   2.519  0.1432 -0.1136 -0.1975
14772W        W31246  14.556  15.423  11.563  0.0537 -0.1932  0.0443
14773W        W31247  17.041   6.934   3.444 -0.0171  0.2067 -0.0527
14774W        W31248   0.903  10.040   0.527  0.3257 -0.1048 -0.0829
14775W        W31249  10.396   4.259   3.813 -0.2956  0.1551  0.2258
14776W        W31250  15.453   4.711  13.600  0.3550  0.0963 -0.2371
14777W        W31251   9.959  16.522  15.731  0.2484  0.0168 -0.1198
14778W        W31252   2.163  17.201  10.928 -0.2630  0.0034  0.1610
14779W        W31253  12.102  11.895   2.056 -0.0299  0.2187  0.0252
14780W        W31254  13.474  12.457  13.599  0.1615  0.0151  0.1947
14781W        W31255  14.391   1.531  14.554 -0.0433  0.2547 -0.2453
14782W        W31256   1.109   1.579  14.427 -0.0089 -0.0098  0.0529
14783W        W31257   6.871   6.058   2.117 -0.1478  0.0481 -0.1616
14784W        W31258  11.042   0.867   2.595  0.3852  0.5025 -0.3104
14785W        W31259   7.766   8.689  14.008  0.0325 -0.5002  0.2347
14786W        W31260   9.000   2.740   3.777 -0.2578  0.0221  0.2442
14787W        W31261   2.503   8.480  15.162  0.0615  0.2617  0.0766
14788W        W31262  15.389   6.514   1.639 -0.1886 -0.0163 -0.2969
14789W        W31263  17.851  12.872  15.814  0.0513  0.1308  0.0870
14790W        W31264  12.521   1.253   3.672  0.0882  0.2398 -0.0413
14791W        W31265   5.773   3.733  12.601 -0.0038 -0.0998  0.0673
14792W        W31266   5.209  10.890  13.363  0.0717  0.3359 -0.1354
14793W        W31267   5.255   5.987  11.659  0.1731 -0.0846 -0.0110
14794W        W31268   5.565   3.742  12.191 -0.0882  0.1311  0.0224
14795W        W31269   7.667  16.336  13.923 -0.2356  0.1211  0.2648
14796W        W31270  15.267  14.184  12.151 -0.1423  0.1503  0.2640
14797W        W31271  11.424   1.499   3.597  0.0964  0.0921  0.2583
14798W        W31272   4.520   4.846   3.800  0.0090  0.1746  0.3283
14799W        W31273   0.620  12.934   0.719 -0.1352 -0.3604  0.2818
14800W        W31274   0.769  10.531   4.992  0.0667 -0.1559  0.0942
14801W        W31275   4.536   6.613   3.795  0.3212 -0.2457  0.0235
14802W        W31276  15.750   6.591  11.213 -0.2105  0.1111 -0.0353
14803W        W31277   3.576  11.800   3.249 -0.1006 -0.3077  0.0318
14804W        W31278   6.038  10.634   4.618 -0.1346 -0.4227  0.1085
14805W        W31279   8.077  16.045  12.588 -0.3892  0.0413 -0.1339
14806W        W31280   9.720  12.674   1.477  0.0815  0.1190 -0.0832
14807W        W31281   2.440   0.409   1.966 -0.5221  0.0736  0.0138
14808W        W31282  15.547   5.428   2.277  0.1903 -0.0084  0.1219
14809W        W31283   1.501   7.410   4.935 -0.3101  0.1033 -0.1097
14810W        W31284  13.443  11.995  10.990 -0.0492 -0.0962  0.0608
14811W        W31285  14.453   7.890   0.055 -0.0526 -0.0335 -0.1779
14812W        W31286   8.766  17.603  14.645  0.0941 -0.1643 -0.2428
14813W        W31287   3.863   1.175   0.228  0.2108  0.3761  0.1727
14814W        W31288  15.056   0.990   1.308  0.1861  0.2405 -0.0447
14815W        W31289   1.703   2.830   4.972 -0.2240 -0.1797 -0.1239
14816W        W31290  13.359  13.399  13.199  0.0412 -0.0817  0.2330
14817W        W31291  13.022   5.108   3.069 -0.0321 -0.1785  0.2196
14818W        W31292  15.024  17.546   4.405  0.1230 -0.1235 -0.1187
14819W        W31293  14.036   1.533   1.655 -0.1834 -0.0004  0.0077
14820W        W31294   0.488   3.605   3.063  0.2364  0.1186 -0.0627
14821W        W31295  10.466  16.575   2.044 -0.0510  0.2636 -0.0283
14822W        W31296  12.269   6.751   2.003  0.0219  0.1209 -0.0927
14823W        W31297  18.214   4.661   5.764 -0.0244  0.0681 -0.2507
14824W        W31298   9.679  12.484   4.723 -0.0109  0.2388 -0.2541
14825W        W31299  13.222  17.307   1.976 -0.1084 -0.0536 -0.2596
14826W        W31300   6.124  16.797   2.730  0.0531  0.0838 -0.0791
14827W        W31301  13.107   3.415  13.304 -0.3150  0.0185 -0.0420
14828W        W31302   8.827  13.615   1.779  0.0248  0.0508  0.1076
14829W        W31303   6.874  10.040   3.665 -0.0300 -0.2143 -0.2261
14830W        W31304   5.663  10.680  13.645 -0.2665 -0.1286 -0.0880
14831W        W31305   9.575  11.329  14.761  0.2102 -0.1635 -0.1362
14832W        W31306   9.105  10.902  12.638  0.0153  0.1022 -0.2333
14833W        W31307   9.646  16.248   5.040 -0.0266 -0.1558 -0.0259
14834W        W31308   1.623  10.902   0.506  0.2718 -0.3581 -0.0188
14835W        W31309   2.654  14.011   4.470  0.0939 -0.2446 -0.3225
14836W        W31310  15.769   7.735  15.858 -0.1084  0.0294 -0.2184
14837W        W31311   8.414   9.413   0.515  0.1056 -0.1732  0.0197
14838W        W31312   3.607  17.701   2.448 -0.0718 -0.0648 -0.0075
14839W        W31313  15.066   9.087  12.858 -0.0731 -0.0739  0.0239
14840W        W31314   3.838  11.117   4.233  0.1997  0.2452 -0.2225
14841W        W31315   3.803   4.274   0.535 -0.2422 -0.0957 -0.1363
14842W        W31316   7.798  11.546  13.913 -0.1059 -0.0075 -0.0709
14843W        W31317   3.147  15.571   5.010 -0.4366  0.1892 -0.1262
14844W        W31318   3.350   0.912  12.071 -0.2784 -0.0716 -0.0038
14845W        W31319  12.996   0.680  15.236  0.2035 -0.3773 -0.0132
14846W        W31320   7.995   9.976  14.625  0.0050  0.2775  0.0062
14847W        W31321   4.079   0.541  12.068  0.1214 -0.0588 -0.0068
14848W        W31322   0.151   2.143   0.063 -0.2183 -0.1984  0.2552
14849W        W31323  11.303   5.805  14.719 -0.0311  0.1052  0.1624
14850W        W31324   7.290  10.105   0.968 -0.0583 -0.1259 -0.3490
14851W        W31325  15.156   4.291   3.726  0.1871 -0.1374  0.0871
14852W        W31326   1.141  17.395   1.119 -0.2038  0.0278  0.1727
14853W        W31327   3.454   5.031   5.204 -0.1464 -0.1446 -0.2706
14854W        W31328  14.556   2.687   5.224  0.1315 -0.1755  0.1436
14855W        W31329  14.138   3.050   2.444  0.1798  0.0047  0.0781
14856W        W31330   2.919  16.098   0.325 -0.0194  0.0907 -0.5401
14857W        W31331   0.953  12.583   4.215 -0.0355 -0.0976  0.0583
14858W        W31332   1.946  11.086   0.984  0.0412  0.0074  0.3132
14859W        W31333   3.806  17.148  11.474 -0.2054 -0.0422 -0.0084
14860W        W31334  16.841  14.853   4.315 -0.0261  0.0286 -0.1866
14861W        W31335   6.566   1.694  10.590  0.0624  0.0996  0.2321
14862W        W31336   5.424   7.811   0.061  0.0069  0.1547  0.0342
14863W        W31337   3.053   4.790  12.134 -0.0061 -0.0524 -0.0099
14864W        W31338  11.300   3.285   0.294  0.5136 -0.0604  0.1509
14865W        W31339  11.869   0.068  15.786  0.1578 -0.2124 -0.1748
14866W        W31340   4.956   2.636  12.209 -0.0333 -0.2740  0.0595
14867W        W31341  16.406   9.816  13.163  0.2261  0.1661 -0.1364
14868W        W31342  15.744  12.220   4.863  0.0187  0.2058  0.1299
14869W        W31343   1.661  17.745   3.323 -0.2475 -0.0848  0.1683
14870W        W31344  15.478   8.345   1.074 -0.0317 -0.0424  0.1505
14871W        W31345   8.578   1.882  12.423 -0.2050 -0.1809 -0.1957
14872W        W31346   5.952   0.633  11.168 -0.0654 -0.2660  0.2383
14873W        W31347  12.096  14.054  12.855  0.4815 -0.3356  0.2135
14874W        W31348   2.687  12.706   5.309  0.3343 -0.2897  0.0018
14875W        W31349   0.581  17.440   2.090  0.0996 -0.0989 -0.0106
14876W        W31350   4.183   3.506  12.559  0.0656  0.0872  0.3846
14877W        W31351   3.429   8.019  12.723  0.2134 -0.1286 -0.0729
14878W        W31352   0.310  12.752  13.032  0.2978  0.0234  0.1524
14879W        W31353   1.993  16.573   5.925 -0.0737 -0.1346  0.2967
14880W        W31354   1.243  15.933  15.848  0.0861  0.1069  0.1985
14881W        W31355   6.872  16.645  12.165  0.1403  0.1360 -0.0074
14882W        W31356   1.830   6.357   0.666 -0.0646  0.0167  0.0984
14883W        W31357  12.034   9.496   2.077 -0.0353  0.0797  0.1958
14884W        W31358  12.236   5.339   1.901 -0.3462  0.0074  0.2533
14885W        W31359   9.529  12.505  12.549 -0.2487  0.1227  0.2351
14886W        W31360   8.412   3.112  14.290 -0.0152 -0.0032 -0.2006
14887W        W31361   2.464  12.977  14.704  0.0712 -0.0132  0.1659
14888W        W31362   6.842   2.001   3.245  0.0038 -0.0983  0.1298
14889W        W31363  11.058   5.500   4.205  0.0246 -0.1008 -0.0823
14890W        W31364  13.024  10.490   0.968  0.0683 -0.2697 -0.2924
14891W        W31365  17.865   2.912   3.912 -0.0379 -0.1390 -0.1096
14892W        W31366   7.109   9.448  12.272  0.0456  0.1282  0.0025
14893W        W31367   3.982   3.443   0.528 -0.0732 -0.1058  0.1755
14894W        W31368   0.151   0.238   4.682  0.1928 -0.0527  0.1242
14895W        W31369  13.139  13.647   3.574 -0.4450  0.1589 -0.0131
14896W        W31370  11.420  17.162  15.797  0.1763  0.1231  0.0177
14897W        W31371  16.295  12.949   1.873 -0.1120 -0.1069  0.2502
14898W        W31372   5.412   9.624  13.744  0.0208  0.0195  0.5235
14899W        W31373  15.873   9.105   4.928  0.3061 -0.0729  0.0040
14900W        W31374   4.737  16.350  14.132 -0.1979 -0.3841  0.3046
14901W        W31375  12.410   7.564  11.777 -0.1338  0.1686  0.6054
14902W        W31376   3.789   8.389  12.675 -0.0218  0.0519 -0.2607
14903W        W31377  11.111  13.543  14.964 -0.0208  0.0933  0.0120
14904W        W31378  15.392  18.070   5.587  0.2827  0.0402  0.1818
14905W        W31379   4.204   7.643   4.593 -0.3183  0.0468 -0.0115
14906W        W31380   8.567   9.594  12.118 -0.0268 -0.2898 -0.0803
14907W        W31381  14.627  12.484   3.962 -0.0091  0.1376 -0.2308
14908W        W31382  17.048   8.496   1.623 -0.1877 -0.1506  0.3693
14909W        W31383  10.008  15.365   2.284  0.1413  0.0907 -0.1643
14910W        W31384  12.138  10.685  14.848 -0.3185  0.0074 -0.4706
14911W        W31385  10.675  17.560  15.736  0.1727  0.0698 -0.0787
14912W        W31386   9.217   4.038   5.366 -0.0163  0.1395  0.1009
14913W        W31387   8.489   9.128  14.023 -0.0116 -0.0910 -0.1810
14914W        W31388   5.352   3.473   4.684  0.1839 -0.1460  0.2535
14915W        W31389   0.210  16.888   4.928 -0.1246  0.1523  0.0636
14916W        W31390   2.946   9.747  15.529  0.1962 -0.3172 -0.2368
14917W        W31391  10.413  10.441   4.499  0.0981 -0.0671 -0.1174
14918W        W31392  15.503  11.360   4.951  0.1194  0.1164  0.0010
14919W        W31393   0.843  17.788  12.180 -0.1512 -0.3983  0.1732
14920W        W31394  17.004   5.624  11.562  0.0089  0.0348  0.2252
14921W        W31395   2.662   7.756  10.653  0.2889  0.2773  0.0085
14922W        W31396   9.442   1.719   1.218  0.0209  0.0237  0.1614
14923W        W31397   8.537  18.007  15.875  0.0550  0.1186  0.0158
14924W        W31398  12.574   1.278  13.600  0.0648  0.0938 -0.4699
14925W        W31399  10.602  15.713  12.588 -0.0118  0.1612  0.2197
14926W        W31400  13.823   2.605  14.090  0.0996  0.4775  0.1631
14927W        W31401  13.376  10.421   3.915 -0.0589  0.1239 -0.0340
14928W        W31402  13.220   0.776   2.373 -0.0640  0.2140  0.1716
14929W        W31403   2.994  12.997  10.666 -0.0362  0.1625  0.2513
14930W        W31404  11.769   5.918   4.877 -0.0594 -0.1744  0.3903
14931W        W31405   4.465  13.245   1.822  0.2108  0.3581  0.1183
14932W        W31406  13.640   5.493  13.045 -0.1303  0.1178  0.2139
14933W        W31407  15.983  15.005   3.950 -0.1325 -0.1949 -0.0906
14934W        W31408  16.788  16.070   0.040  0.3245 -0.1523 -0.1122
14935W        W31409   6.577   4.242   3.759  0.2248 -0.0273  0.0471
14936W        W31410  13.254   8.648   5.313  0.2539  0.1342  0.2489
14937W        W31411  18.375  15.942   2.425  0.2825 -0.2693 -0.2015
14938W        W31412  17.066   0.686   0.574 -0.0386 -0.0141 -0.0834
14939W        W31413   1.470  14.649   1.651 -0.1409 -0.2765 -0.2887
14940W        W31414  10.343  10.531  14.378  0.0860 -0.0461 -0.1431
14941W        W31415   4.319  10.802  14.129 -0.6391 -0.0723 -0.0407
14942W        W31416   4.614   9.254  11.320  0.1428 -0.0837 -0.1611
14943W        W31417  13.470  14.095  15.579 -0.0156 -0.3127  0.0917
14944W        W31418  15.388  11.403  15.277 -0.1690 -0.1558 -0.0041
14945W        W31419   9.643   0.676  15.031 -0.2184 -0.1022  0.0710
14946W        W31420   8.520   7.857   0.087  0.2085 -0.0973 -0.2318
14947W        W31421  10.803  17.073   4.253 -0.2523 -0.1884  0.2489
14948W        W31422  14.957   1.438  13.355  0.3325  0.0182  0.1900
14949W        W31423   8.512   4.905   1.702  0.0456 -0.0664 -0.1694
14950W        W31424  13.400  10.472  15.075  0.3916 -0.2930  0.2820
14951W        W31425  18.227  16.295  15.407 -0.0072  0.4247  0.2372
14952W        W31426   0.817   9.037  13.058  0.1191  0.1757 -0.1916
14953W        W31427  14.453   7.683   1.926 -0.2862 -0.1118 -0.2047
14954W        W31428   9.181   2.523  11.246  0.1830  0.4721  0.3565
14955W        W31429   7.294   1.850  15.010  0.1511  0.0548 -0.1369
14956W        W31430   9.763   6.632  13.072  0.1477  0.0752 -0.0267
14957W        W31431   5.253   0.778   4.640 -0.1629  0.2066  0.1771
14958W        W31432   2.308   5.901   0.731 -0.0569  0.1934 -0.1741
14959W        W31433  13.667  16.214  11.323  0.1608  0.2030 -0.0207
14960W        W31434  16.814  10.615   0.339  0.0816 -0.1573 -0.3176
14961W        W31435   3.741   7.225  10.753  0.0180 -0.3471 -0.0210
14962W        W31436  15.299  10.705  13.501  0.3224 -0.1657  0.3328
14963W        W31437   9.541   0.397   0.347 -0.0428  0.1823  0.0345
14964W        W31438  14.273   9.520   1.417  0.0945 -0.3232 -0.3125
14965W        W31439   5.108  13.975  12.327  0.0497  0.1679 -0.1514
14966W        W31440  10.190  11.567  15.491 -0.0860 -0.0309  0.0233
14967W        W31441   9.711   8.218   5.182 -0.1159 -0.2052  0.3233
14968W        W31442   8.382   9.835   4.779  0.1331  0.1294 -0.1815
14969W        W31443   1.650  11.114   4.183 -0.1306 -0.1378  0.0072
14970W        W31444   8.101   4.814  14.887 -0.1206 -0.1660  0.3758
14971W        W31445   9.961   6.895  12.237  0.1543 -0.1078 -0.4398
14972W        W31446   9.041  10.159   0.541  0.2073 -0.0721  0.2000
14973W        W31447  16.118  13.691   0.036 -0.1613 -0.0874 -0.1048
14974W        W31448  14.732   9.147  13.926  0.0595  0.0214  0.0316
14975W        W31449   5.380  13.191   3.082  0.2610 -0.0603  0.1924
14976W        W31450   5.834   9.464   1.310 -0.1701  0.2547  0.0491
14977W        W31451  13.321   6.267   4.667  0.0340  0.0911 -0.1374
14978W        W31452  10.960   5.234   2.450  0.3229  0.1072 -0.0065
14979W        W31453  11.604   7.998  14.079  0.0995 -0.1206  0.0547
14980W        W31454   6.986  10.291   1.269  0.2190  0.0915 -0.0141
14981W        W31455   5.854   0.432   3.581  0.1265  0.1527  0.1440
14982W        W31456  10.846  10.418   4.719 -0.0202  0.1164  0.1506
14983W        W31457  11.162   4.801   2.435  0.3749 -0.1634  0.0488
14984W        W31458   4.839   2.063  15.326 -0.2118 -0.2294 -0.0950
14985W        W31459  16.801   1.870  15.776  0.0611 -0.0420 -0.0279
14986W        W31460  13.891  15.903  15.195 -0.0106 -0.0442  0.0636
14987W        W31461  11.309  12.410   2.393 -0.2093  0.2351 -0.4861
14988W        W31462   7.857   8.582  11.404 -0.0145  0.0071  0.0509
14989W        W31463  11.819   3.001   5.252  0.0439  0.0909  0.1720
14990W        W31464  16.610  14.885   4.759 -0.1116 -0.0362 -0.2484
14991W        W31465   8.112  12.588   4.130  0.2259  0.1681  0.0338
14992W        W31466  16.582   3.376   1.901  0.2904  0.2830  0.2699
14993W        W31467   5.296   7.635  11.597  0.1039  0.0782 -0.1264
14994W        W31468   9.943   7.451   2.360  0.1902 -0.2510  0.2066
14995W        W31469   4.671   4.133  11.028 -0.0583  0.1382 -0.0518
14996W        W31470   7.578   6.032   5.468  0.0743  0.0213 -0.0170
14997W        W31471  10.712  10.429   4.081 -0.1626 -0.0862  0.1887
14998W        W31472   0.561   3.813  12.950  0.1898  0.0576  0.1677
14999W        W31473   4.323  10.916   5.738  0.0680  0.1287 -0.1388
15000W        W31474  16.003   1.275  11.902  0.1315 -0.0593 -0.2665
15001W        W31475  10.788   8.937  12.594  0.2754  0.0342 -0.2541
15002W        W31476   1.091  11.271   1.638 -0.0745 -0.0511  0.4310
15003W        W31477   6.809  14.859  12.762 -0.1333 -0.3066  0.2070
15004W        W31478   9.404   6.470   3.840 -0.0967  0.2783  0.2822
15005W        W31479   7.589   7.887   0.727  0.0420 -0.0821  0.1765
15006W        W31480   3.758   1.311   1.730  0.3550  0.0199 -0.3351
15007W        W31481   9.833  13.543   0.391  0.0265 -0.0448  0.2864
15008W        W31482   9.444  11.768   1.127  0.3080 -0.1721  0.4401
15009W        W31483  14.018   7.838  12.386  0.1139 -0.2437 -0.0599
15010W        W31484  17.328   6.600  15.282 -0.2437  0.0735  0.1718
15011W        W31485  16.512  10.946  14.187 -0.1206  0.1039 -0.4973
15012W        W31486  11.699   2.108   1.009  0.0738 -0.2416  0.2943
15013W        W31487   3.158  17.595   5.377 -0.0053  0.0906 -0.2368
15014W        W31488   2.499   5.565   2.716 -0.2191  0.0152 -0.1485
15015W        W31489  10.453   6.316   3.922 -0.0649  0.0010  0.2623
15016W        W31490   6.695  16.631   0.049  0.3211  0.2281  0.1515
15017W        W31491   7.367  17.035  13.293 -0.1068  0.0454 -0.0137
15018W        W31492  17.481   3.273   2.259  0.0641  0.2136 -0.1896
15019W        W31493   6.429  13.996  11.161 -0.0500  0.1384 -0.0555
15020W        W31494  18.435   6.025  10.978 -0.0173  0.1323  0.0755
15021W        W31495  13.383   0.189  14.553 -0.1912 -0.0522 -0.1953
15022W        W31496  15.776   9.032  14.303  0.1059  0.2492  0.1894
15023W        W31497  11.663  17.254  11.121  0.2545 -0.0740 -0.0195
15024W        W31498   8.212  17.389  14.776  0.0283 -0.2870 -0.0685
15025W        W31499  14.318   1.001   3.839  0.0360 -0.1725 -0.2437
15026W        W31500  10.000   7.575   1.762 -0.3480  0.0220 -0.3239
15027W        W31501  16.478  13.873   0.726  0.0157  0.4177 -0.1776
15028W        W31502  13.409  11.390   2.228 -0.1311  0.1339  0.2033
15029W        W31503  16.562  12.798  12.409  0.1937 -0.0743 -0.1303
15030W        W31504   9.757  18.437  10.165  0.0653  0.2425  0.0929
15031W        W31505  17.786  11.979   4.160 -0.2463 -0.1709 -0.1149
15032W        W31506  10.325   8.639   5.803 -0.1767 -0.0967 -0.0860
15033W        W31507   6.364  16.776  14.289  0.0889 -0.1252 -0.0106
15034W        W31508  13.768  15.967   4.933  0.1693 -0.1435  0.1050
15035W        W31509  15.125   5.909  12.322 -0.1452  0.0139 -0.0760
15036W        W31510   2.682  11.612   1.889  0.4085  0.5870 -0.1332
15037W        W31511  12.865  18.329  13.644 -0.1164 -0.0034 -0.0104
15038W        W31512  14.019  15.561   1.496  0.1495  0.1467  0.1782
15039W        W31513   7.346   3.765  15.495 -0.3099 -0.0740  0.1224
15040W        W31514   9.258  10.756  13.132 -0.1463  0.3621  0.0551
15041W        W31515  17.622  16.408   3.260  0.1112 -0.1233  0.2690
15042W        W31516   6.677   2.463  14.462 -0.0834 -0.0370  0.0882
15043W        W31517  16.533   0.937   2.348 -0.1268  0.2066 -0.3385
15044W        W31518  10.512   3.422   3.592 -0.3531  0.1173  0.1270
15045W        W31519   3.123   1.292   2.566 -0.1549  0.0636 -0.1775
15046W        W31520  16.111  16.773  11.291 -0.2664  0.0585  0.4089
15047W        W31521  12.976   4.961  14.722  0.0278 -0.0644 -0.3001
15048W        W31522  18.029  15.324   4.328  0.0234  0.1999 -0.1715
15049W        W31523  14.430  18.003  12.020 -0.0209  0.0601  0.0127
15050W        W31524   5.782  14.394  10.120 -0.1981  0.5693  0.1132
15051W        W31525   7.659   3.098   0.931  0.1564  0.1438  0.0702
15052W        W31526  12.776  17.560   5.794  0.1460 -0.0018  0.0088
15053W        W31527   6.561   4.302  14.772  0.1367 -0.0942  0.0245
15054W        W31528  18.310  12.779   5.143 -0.2236 -0.1155 -0.0453
15055W        W31529  16.327   9.599  11.533 -0.2753  0.0210  0.0440
15056W        W31530  13.638  10.530  13.868 -0.3556 -0.0877  0.2129
15057W        W31531  16.030   8.737  13.158 -0.0925  0.2146  0.2624
15058W        W31532   6.000  16.876  12.222  0.3752  0.0241 -0.1620
15059W        W31533   0.650   9.638   4.796 -0.2779  0.0409 -0.1302
15060W        W31534  10.482   9.955   3.759 -0.0674  0.1183 -0.1097
15061W        W31535   2.709   4.491   0.534 -0.1306 -0.2574  0.0712
15062W        W31536   9.582  14.303  12.427  0.1769  0.2196  0.1370
15063W        W31537   3.057   1.927  12.405  0.0365 -0.4662  0.1025
15064W        W31538  14.104   3.811  13.992  0.0815  0.0674  0.0253
15065W        W31539   5.123   1.527   1.498 -0.1137 -0.1608 -0.2059
15066W        W31540   1.912   9.010   3.901 -0.3165 -0.1814 -0.3028
15067W        W31541   1.044   4.530  12.414 -0.1459 -0.3402  0.1217
15068W        W31542   4.466   1.570  14.139 -0.1661  0.1145 -0.0051
15069W        W31543   3.053  17.434   2.336 -0.0890 -0.0530 -0.0656
15070W        W31544   6.997  11.967   1.377 -0.1505 -0.1975  0.2058
15071W        W31545   6.164   5.787  10.261 -0.3020 -0.1253 -0.2525
15072W        W31546   4.030   2.289  13.984  0.3297  0.1679  0.1727
15073W        W31547  13.765   4.701  14.969  0.0526  0.0267  0.3717
15074W        W31548   5.156  11.865  14.196  0.2480  0.0718 -0.1553
15075W        W31549   9.464  14.774  12.429 -0.0074 -0.2694  0.2699
15076W        W31550   7.656  11.462  14.417  0.1723  0.0069 -0.0417
15077W        W31551   3.090   7.524  15.567 -0.1910 -0.2363  0.0655
15078W        W31552   2.912  13.965   1.451 -0.1453  0.0575  0.0352
15079W        W31553   2.906   8.939   3.862 -0.0761  0.0105 -0.3057
15080W        W31554  13.882  17.041   5.341  0.1029 -0.0498  0.2683
15081W        W31555   2.645   2.221   2.262  0.1047 -0.0443 -0.0200
15082W        W31556   0.699  17.353  12.384 -0.0379 -0.2048  0.1406
15083W        W31557   6.437  10.622   0.431  0.1190  0.0231 -0.0692
15084W        W31558  12.384   5.245  12.636 -0.0428  0.1214  0.2244
15085W        W31559  10.520  10.230   1.037  0.1730 -0.0704 -0.2377
15086W        W31560   5.955  16.964  10.283  0.1300 -0.1111 -0.0284
15087W        W31561   5.857  13.735   0.614  0.1852  0.0901  0.0879
15088W        W31562  17.769  15.492   2.937 -0.0057  0.2456  0.5628
15089W        W31563   3.586  15.923   6.190  0.2044  0.0956  0.2183
15090W        W31564  15.340  15.600  15.283 -0.3045  0.0102  0.0071
15091W        W31565  17.283   5.959  14.545 -0.3709 -0.3328 -0.3403
15092W        W31566  11.397  15.378   4.489 -0.1684  0.0756  0.2986
15093W        W31567  12.620   3.532  12.441 -0.2132 -0.4554 -0.2701
15094W        W31568   9.756   2.281  15.815  0.2121 -0.0985 -0.2907
15095W        W31569   6.391   6.705   0.184  0.0632  0.0562  0.2049
15096W        W31570  12.911   6.089   0.812 -0.0679  0.1084  0.2449
15097W        W31571   5.685   8.704   3.563 -0.1291  0.1890  0.1393
15098W        W31572  16.952   2.330   5.566 -0.3236 -0.2552  0.0827
15099W        W31573   0.123   8.998  12.604  0.0534  0.0940  0.2766
15100W        W31574   1.123   5.485   0.233 -0.1776 -0.1635  0.2202
15101W        W31575  17.608   0.739   3.404 -0.0610 -0.0731  0.1673
15102W        W31576  18.187   3.646  14.501  0.0341  0.2242 -0.0193
15103W        W31577  15.964  16.073   0.997  0.2156 -0.2580  0.1353
15104W        W31578   1.086  14.299  14.215 -0.2285 -0.0116 -0.1210
15105W        W31579  15.066   9.914  13.116 -0.0935  0.2978  0.0068
15106W        W31580  11.289  10.340  14.687  0.2606 -0.1302 -0.1564
15107W        W31581   9.029   5.534  11.855  0.0489  0.1640 -0.0621
15108W        W31582   5.192  17.504   0.669 -0.0059 -0.1624 -0.2233
15109W        W31583   3.406  12.626   4.058  0.0582 -0.2898 -0.0435
15110W        W31584   9.524  13.289   0.725 -0.1409 -0.0212  0.0927
15111W        W31585   7.112   1.055   6.183  0.0175 -0.2085 -0.4460
15112W        W31586   7.126   2.985  13.688 -0.0889  0.2682  0.2285
15113W        W31587   7.026  15.827   2.709 -0.0730 -0.1446 -0.2394
15114W        W31588   0.919  16.063   3.741 -0.1122  0.1623  0.0435
15115W        W31589   7.152  11.399  15.283  0.1271 -0.0447 -0.2815
15116W        W31590  16.450  17.711  10.045  0.3393  0.2367  0.4797
15117W        W31591   1.751  10.345   5.327  0.3076 -0.0618 -0.1776
15118W        W31592   1.021  18.391  13.223  0.3441  0.0603 -0.0622
15119W        W31593  17.862   1.729  12.614  0.0274  0.0146  0.1199
15120W        W31594  17.311  17.271  14.065  0.1070 -0.0096  0.0180
15121W        W31595  18.176   4.052  13.464  0.0339 -0.2239  0.4080
15122W        W31596   6.209  13.808  13.858 -0.0845  0.0294  0.3035
15123W        W31597  14.103  14.081   4.818 -0.1824  0.0030  0.1131
15124W        W31598   9.130  15.596   4.146  0.1547  0.1180 -0.0206
15125W        W31599   3.046   0.784  11.146  0.0578 -0.2361  0.0623
15126W        W31600   5.470  10.067   0.579 -0.1521  0.0822  0.0940
15127W        W31601   1.099   6.582   1.504 -0.1939 -0.1613  0.4088
15128W        W31602  14.087   9.242   0.113  0.0603  0.0337  0.1482
15129W        W31603  15.161   5.888  11.795  0.2132 -0.2245 -0.0844
15130W        W31604   6.835  14.672  10.428 -0.0369 -0.1494  0.1911
15131W        W31605  15.955   4.621  14.324  0.1664 -0.0086  0.0908
15132W        W31606   8.420   3.044   4.151  0.3154 -0.2434  0.0201
15133W        W31607  14.594  14.163   3.576  0.2716  0.2397  0.0572
15134W        W31608   1.264   6.068  12.556 -0.1345 -0.2515  0.1275
15135W        W31609  15.614  10.137  12.554 -0.2133 -0.1928  0.0399
15136W        W31610   6.641   3.264   4.121  0.2049 -0.2257  0.0465
15137W        W31611  11.062   1.888   3.574 -0.1525 -0.0543 -0.0056
15138W        W31612   7.495   7.176  13.970  0.0355 -0.0067 -0.3306
15139W        W31613   5.954   2.588  14.823 -0.0167  0.1364 -0.1670
15140W        W31614   7.311   8.064  14.760  0.0505 -0.0015  0.0204
15141W        W31615  14.039   7.154  15.664  0.2046 -0.2958 -0.0432
15142W        W31616  11.399   7.724  11.432  0.1075  0.3291 -0.0573
15143W        W31617  11.337  14.950   2.895  0.1058 -0.0937  0.0329
15144W        W31618   2.554   3.403  13.462  0.1934 -0.1004 -0.0291
15145W        W31619   7.792  18.370   0.669  0.0527  0.0541  0.0365
15146W        W31620   0.852  13.584   1.340 -0.1126  0.2830 -0.2262
15147W        W31621   9.881   1.047   3.755 -0.0317 -0.1532 -0.1879
15148W        W31622  16.882   5.859  13.294 -0.1593  0.2666 -0.1364
15149W        W31623  18.336   7.053   3.404 -0.0946  0.1996  0.3910
15150W        W31624   1.456   5.880  11.422 -0.0097 -0.1038 -0.1761
15151W        W31625   4.079  11.777  12.617 -0.0323 -0.1669  0.2531
15152W        W31626   5.606   1.436   5.249 -0.0464 -0.2420  0.0274
15153W        W31627   5.361  15.508   0.755  0.2000 -0.3029 -0.1489
15154W        W31628  14.605   5.131   0.165  0.0086  0.1463  0.3802
15155W        W31629   2.488   9.085  12.006  0.3827 -0.0091  0.1464
15156W        W31630   2.995  15.940  13.227 -0.1711  0.2338  0.1200
15157W        W31631   0.157  18.139  11.694  0.0684 -0.1719 -0.1580
15158W        W31632  11.088  18.426   0.018 -0.0877 -0.1397  0.0688
15159W        W31633  10.590  16.159   2.490  0.2566 -0.2608  0.2610
15160W        W31634   1.780   9.466  15.833 -0.0954 -0.1616 -0.2225
15161W        W31635  16.488  17.166   2.230 -0.2202 -0.0414  0.1306
15162W        W31636   1.085   2.195  14.232 -0.0746  0.2494  0.2565
15163W        W31637  17.168   9.973   4.746  0.2200  0.1326 -0.0989
15164W        W31638  16.780   1.737  12.411  0.1256 -0.0906 -0.1874
15165W        W31639   5.478  16.437  14.612 -0.0904  0.1731 -0.0503
15166W        W31640   4.215   3.057  14.266 -0.0356 -0.0754 -0.1057
15167W        W31641   7.252   5.976  12.779  0.1825 -0.1550 -0.0924
15168W        W31642  11.072   2.244  10.615 -0.0406  0.0151  0.0371
15169W        W31643  10.693   6.483   3.358  0.0065  0.1282  0.3320
15170W        W31644   3.271   3.427  12.327 -0.0834  0.3770 -0.0817
15171W        W31645  17.760   6.963   0.901  0.0375 -0.3373 -0.3598
15172W        W31646  12.538  10.087   5.030  0.3712  0.0023  0.0045
15173W        W31647   8.416   9.297  12.984  0.0840  0.1559 -0.0366
15174W        W31648  10.024  13.629  11.978 -0.2014 -0.0317 -0.3671
15175W        W31649  14.339  18.063   1.472 -0.2687  0.0575  0.3675
15176W        W31650  13.036  11.697  11.662  0.0845  0.1274 -0.1331
15177W        W31651   7.243   2.094  11.685 -0.1836 -0.1119 -0.0851
15178W        W31652   0.922   6.972  12.483  0.0068  0.1227  0.1551
15179W        W31653  15.832  10.332   3.916 -0.3401 -0.1011 -0.0245
15180W        W31654   5.106  17.976  15.186  0.1442 -0.2715  0.2269
15181W        W31655  13.160  14.341  11.732 -0.0231 -0.2197  0.1355
15182W        W31656  17.455  14.337   0.752 -0.0692 -0.0031  0.1040
15183W        W31657   9.562   2.989   0.402  0.1330  0.1442  0.1348
15184W        W31658  10.058   0.203  11.696  0.1080 -0.0472  0.0284
15185W        W31659  11.574  16.615  12.786 -0.3113  0.0082 -0.0682
15186W        W31660   1.424  16.145  12.534  0.2834  0.0670  0.2190
15187W        W31661   6.267  16.102   1.112 -0.0507  0.2594 -0.0176
15188W        W31662  17.696   5.556  15.460 -0.1359  0.1003  0.0712
15189W        W31663  14.533  16.591   0.419  0.0159  0.0313 -0.3559
15190W        W31664   5.903  16.677  14.629 -0.1887 -0.1548 -0.1214
15191W        W31665   1.675   3.192  15.785  0.5609  0.0299  0.0909
15192W        W31666  12.471  13.195   2.231 -0.0486 -0.2319 -0.3711
15193W        W31667   5.492   2.441  13.275 -0.2220  0.2217 -0.0960
15194W        W31668   9.906   4.216   0.449 -0.0158  0.2128  0.1534
15195W        W31669  12.097   3.762   3.952  0.1483  0.0565  0.1179
15196W        W31670   0.031   0.219   1.234 -0.1082  0.0128  0.3476
15197W        W31671   8.271  16.495   1.151 -0.2191  0.2043  0.1400
15198W        W31672  10.476  13.165   5.416 -0.0716  0.3892  0.2063
15199W        W31673  11.660   7.606  12.950 -0.0592  0.2907  0.2801
15200W        W31674   1.472   2.119  11.651 -0.2120 -0.0220  0.1789
15201W        W31675   3.484   3.641  14.194  0.0163  0.0174 -0.1150
15202W        W31676   8.228  17.617  11.173  0.0108 -0.1537  0.1537
15203W        W31677   3.278  13.923  15.393 -0.3024  0.3462  0.3176
15204W        W31678   3.167   9.768   4.837 -0.3595 -0.1771  0.1473
15205W        W31679  15.619   9.144  11.762 -0.0270  0.0949 -0.1768
15206W        W31680   6.086  12.818  12.508 -0.5322 -0.0052 -0.1265
15207W        W31681   5.847   6.204   0.511  0.0221 -0.1195  0.0258
15208W        W31682  13.480   2.686  11.431 -0.0925  0.0335 -0.2117
15209W        W31683  15.767   0.441  14.812 -0.2049 -0.2059 -0.3341
15210W        W31684   0.704   8.329   2.232 -0.0898 -0.0165 -0.1726
15211W        W31685  17.547  13.328   1.242  0.0890  0.1723  0.0642
15212W        W31686   0.015   7.578  14.085  0.0271 -0.0262  0.1122
15213W        W31687  17.085  17.816   1.014 -0.1289  0.0325 -0.1779
15214W        W31688   2.554   7.339   0.961  0.1817 -0.0211 -0.3754
15215W        W31689   7.773   4.582   5.321 -0.2084  0.0136  0.2582
15216W        W31690  10.102  10.148   2.381 -0.1418  0.0708 -0.4566
15217W        W31691   1.742   3.046   4.113 -0.1512  0.1331 -0.0631
15218W        W31692   8.239   7.899  14.038  0.0611  0.0887  0.1335
15219W        W31693  12.507  12.893  11.120  0.0530  0.0384 -0.2030
15220W        W31694  11.153  11.881   5.909  0.0577 -0.1040  0.2437
15221W        W31695  12.431   2.084   2.138  0.2244  0.0864 -0.1358
15222W        W31696   1.230   5.086   2.431  0.1852 -0.0814  0.1136
15223W        W31697  10.713  11.780  14.860 -0.1412 -0.0269  0.0532
15224W        W31698   2.847  15.501   1.796  0.0116 -0.1963 -0.0019
15225W        W31699  10.517  14.428   5.808 -0.0974 -0.0026  0.2921
15226W        W31700   1.795   2.151   4.331 -0.0841 -0.0601 -0.2951
15227W        W31701  15.416   9.273  14.587  0.1354  0.3959  0.2543
15228W        W31702  14.302  17.500   1.539  0.2122  0.1456  0.1626
15229W        W31703  12.651   6.388   2.019 -0.1176 -0.3167 -0.4217
15230W        W31704   0.793  16.178  14.772  0.4269 -0.1100 -0.2454
15231W        W31705   5.056  12.329  14.412  0.0310  0.1581 -0.1527
15232W        W31706   0.368   8.584   2.605 -0.1350  0.2751 -0.3019
15233W        W31707  18.072   8.509   4.734  0.0132  0.2578  0.0060
15234W        W31708  14.338   8.411  14.590 -0.0093 -0.1048  0.0028
15235W        W31709   2.972  14.158  11.259 -0.1467  0.2332 -0.1375
15236W        W31710  12.255   1.539   1.344 -0.0450 -0.2532  0.0312
15237W        W31711  17.715   8.494   4.384 -0.5063  0.1566  0.0424
15238W        W31712  12.752   9.088  12.389  0.0708 -0.0161 -0.2044
15239W        W31713  17.935   6.968  15.966 -0.1945 -0.2753 -0.3746
15240W        W31714   8.207  16.252   5.837 -0.0766  0.1924 -0.2130
15241W        W31715  15.278  14.987   4.816  0.5064 -0.1117  0.0568
15242W        W31716  16.072   2.515   5.363 -0.2304 -0.0432 -0.0105
15243W        W31717  17.271   2.578   3.951 -0.1943 -0.2161 -0.2542
15244W        W31718   0.360   0.696  15.403 -0.0142 -0.0396  0.5456
15245W        W31719   8.668   8.046  14.181  0.1552 -0.1753 -0.1703
15246W        W31720   4.965  10.019   0.538  0.2602 -0.1030  0.0414
15247W        W31721  10.493  15.489   3.221  0.0579 -0.1494 -0.0369
15248W        W31722  15.340  14.839   0.790 -0.1420 -0.0746 -0.0210
15249W        W31723   5.595   9.883   1.490 -0.1415  0.1719 -0.2507
15250W        W31724  16.655  18.434   3.359 -0.0664 -0.0135 -0.0931
15251W        W31725   0.235   4.627  12.309 -0.0603 -0.0473  0.0469
15252W        W31726  17.787  16.448   5.115 -0.0603  0.0093  0.2032
15253W        W31727   8.018  17.006   4.093 -0.1081  0.1677 -0.0500
15254W        W31728  13.493  14.750  11.512 -0.1226 -0.0115 -0.0609
15255W        W31729   3.058   6.821  15.058 -0.2336 -0.0154  0.0329
15256W        W31730   2.418  13.931   1.306  0.3016  0.1912  0.0494
15257W        W31731  14.685   0.292  12.971  0.2561  0.0379 -0.0566
15258W        W31732   8.310   7.707   3.963 -0.0436  0.3655 -0.0040
15259W        W31733  10.122  11.771   4.106  0.1378  0.0584  0.0029
15260W        W31734  12.639   3.752  11.486 -0.1233 -0.1418 -0.1761
15261W        W31735   4.847   7.938   4.509 -0.1633  0.0145 -0.1431
15262W        W31736   0.343  16.345   0.795 -0.1481  0.0050  0.1070
15263W        W31737   9.553  18.314   9.750  0.1052  0.0606 -0.3380
15264W        W31738  14.612   5.843  13.201  0.0952  0.3091  0.0678
15265W        W31739  15.184  17.460   3.291  0.1456 -0.1850 -0.2280
15266W        W31740   6.733  17.426  15.473 -0.0250  0.2345  0.0087
15267W        W31741  10.833   5.446  12.152 -0.0142 -0.2970 -0.1790
15268W        W31742  12.751  18.083  14.092  0.2057  0.1582 -0.0920
15269W        W31743  17.495  11.962  11.921  0.2971  0.1298 -0.1151
15270W        W31744   2.325   5.416   3.199 -0.2492 -0.1900 -0.2109
15271W        W31745  13.642   8.874   0.097 -0.1359 -0.1465  0.1721
15272W        W31746   5.458  15.796   1.140 -0.2444  0.1613  0.0117
15273W        W31747   0.483  13.502   2.955  0.1222  0.2020  0.1781
15274W        W31748   9.657   8.513  11.911 -0.0153 -0.1776  0.0593
15275W        W31749   0.216  15.162   3.110  0.2003  0.0377  0.0052
15276W        W31750  16.897  18.379  12.849  0.0334 -0.3366  0.2057
15277W        W31751  11.025  11.928   0.844  0.1920  0.0045 -0.2051
15278W        W31752   3.088  10.069   1.750  0.2843  0.3562  0.2471
15279W        W31753  15.118  17.831   5.891  0.1289 -0.0366 -0.1099
15280W        W31754  16.323   4.189  13.669 -0.0902 -0.1978  0.1627
15281W        W31755   3.177   8.427  11.942  0.0369 -0.1279 -0.3195
15282W        W31756  14.013  16.272   6.278 -0.2931 -0.1118 -0.0696
15283W        W31757   6.992   6.038  14.639 -0.3254 -0.0910 -0.1248
15284W        W31758   3.868   9.688   3.715 -0.1548 -0.3375  0.0888
15285W        W31759   3.648  12.805   3.699  0.1292 -0.1307  0.1879
15286W        W31760   1.065   1.258  13.617 -0.3689  0.2776 -0.0155
15287W        W31761  17.911   3.715   4.155 -0.0386  0.4018  0.0191
15288W        W31762   7.904   1.371  11.930 -0.1269 -0.3678 -0.1607
15289W        W31763   3.421   9.573   3.916  0.0477 -0.2253  0.0421
15290W        W31764  12.257  15.057   0.094  0.2091  0.0420  0.0022
15291W        W31765  14.281  15.789   5.540  0.2171  0.2516 -0.1061
15292W        W31766  18.069   7.941  15.806  0.0189 -0.1379 -0.3930
15293W        W31767   8.712   9.414   3.370  0.1849  0.0556 -0.2309
15294W        W31768   3.215  14.406   5.082  0.1740  0.0028 -0.2063
15295W        W31769  13.515  15.515   1.685 -0.3116  0.4119  0.0186
15296W        W31770  17.579   0.569   1.492  0.1104  0.1558  0.0128
15297W        W31771  13.983   6.341  11.920  0.0254 -0.1507 -0.0691
15298W        W31772   4.404  16.392  14.689 -0.0182 -0.0022 -0.1670
15299W        W31773   1.722   8.522  15.504 -0.4223  0.2140 -0.2668
15300W        W31774  17.899   6.244   5.103  0.0225  0.2135 -0.5559
15301W        W31775   2.234   9.283   2.667  0.2531 -0.0357  0.1518
15302W        W31776  16.861   8.755  14.612 -0.2725 -0.0718  0.2190
15303W        W31777   3.271  11.715  12.367  0.2293 -0.0004  0.2710
15304W        W31778   4.112   7.968   0.085 -0.0370 -0.0659 -0.1452
15305W        W31779   6.489   5.928  11.022  0.1231  0.0305  0.0539
15306W        W31780   5.424  15.426  13.055  0.0678  0.1535  0.4375
15307W        W31781   7.774   2.627   3.273  0.1502  0.3592  0.1965
15308W        W31782   1.649  14.287   0.810  0.1156  0.0457 -0.0896
15309W        W31783  10.744  14.728   2.351 -0.2048  0.3224  0.2947
15310W        W31784   3.176   5.798  11.740  0.0624 -0.0416 -0.2285
15311W        W31785   2.894  15.159  15.878 -0.0829 -0.1083 -0.3368
15312W        W31786   1.531  15.097   0.476  0.1091 -0.2314  0.1301
15313W        W31787   2.011   4.208  13.957 -0.0043  0.0347 -0.2466
15314W        W31788  17.544  17.079   3.453 -0.0407 -0.0925  0.0881
15315W        W31789   4.185   7.927   0.844  0.2175 -0.2893 -0.0181
15316W        W31790   6.032   1.195   5.154  0.2483 -0.1914 -0.2966
15317W        W31791  14.449   7.284  14.496  0.1664  0.3377  0.1201
15318W        W31792   7.894  15.044  15.305 -0.1001 -0.0711  0.0013
15319W        W31793  11.372   0.395   0.928  0.0692 -0.1981 -0.2423
15320W        W31794  10.983  16.051   4.366  0.1412  0.2248  0.0199
15321W        W31795   4.905   5.633  15.109  0.0537 -0.1860  0.1201
15322W        W31796  12.382   8.740  13.053  0.0404  0.4104 -0.0093
15323W        W31797   8.839  16.798  14.153  0.3611 -0.0767  0.0568
15324W        W31798   3.889  12.664  15.136  0.2944  0.0626 -0.3151
15325W        W31799  13.296   6.921  13.147  0.0259  0.1010 -0.3336
15326W        W31800   7.865   5.578   5.579 -0.1136  0.2355  0.2623
15327W        W31801  15.752   1.041   2.254 -0.2064 -0.3673 -0.0900
15328W        W31802   0.774  11.032  13.203 -0.4570  0.2443  0.2800
15329W        W31803  15.278   6.821   4.784 -0.2525  0.2013  0.0519
15330W        W31804   2.069   5.071  11.844 -0.1096  0.0149 -0.2918
15331W        W31805  16.075   8.078  11.134  0.1086 -0.2809 -0.3085
15332W        W31806   7.352   8.109   5.646 -0.0971 -0.2249 -0.2842
15333W        W31807  15.160   5.063  11.301  0.2076  0.0199 -0.0530
15334W        W31808  16.804  14.157   2.153  0.0290 -0.2360  0.1028
15335W        W31809   5.331  10.524  15.760  0.1607  0.2056  0.0622
15336W        W31810  12.563  15.815   3.510 -0.0393  0.1370  0.1113
15337W        W31811   2.587   7.190   3.023  0.1370 -0.0534  0.0313
15338W        W31812  15.058   0.607   3.947 -0.3224  0.0877 -0.1339
15339W        W31813   6.718   9.961   5.568  0.1114  0.2014  0.1070
15340W        W31814  17.523   6.909  11.275 -0.1249 -0.0730 -0.2770
15341W        W31815  15.980   4.098  14.176  0.3218  0.1454 -0.0288
15342W        W31816   8.035  13.654  11.670 -0.1280 -0.1522  0.2449
15343W        W31817  14.643  17.635   5.616  0.3569 -0.0076 -0.0192
15344W        W31818  11.270  15.698   4.081  0.2326  0.1091 -0.0386
15345W        W31819   5.851   7.607   3.620  0.0677 -0.0127  0.1859
15346W        W31820   2.205   3.042  12.641  0.0815 -0.0235  0.1904
15347W        W31821   8.297   1.126  13.171  0.1491 -0.1527  0.0115
15348W        W31822  14.417   6.059   1.382  0.1114  0.1581  0.0155
15349W        W31823   9.919  10.832  11.795  0.1303 -0.0527 -0.1659
15350W        W31824  15.671   6.077   0.397  0.0903  0.0487  0.1618
15351W        W31825   1.040   0.279  11.096  0.2484 -0.1572 -0.1050
15352W        W31826  14.380   9.578  15.776 -0.0899  0.3249  0.1290
15353W        W31827  13.028  17.446   2.393  0.0481  0.2333 -0.1148
15354W        W31828   4.868   5.483  13.700 -0.1880  0.0654 -0.2573
15355W        W31829   6.235  12.901   3.688 -0.1687 -0.1674  0.1124
15356W        W31830  15.789   8.742   4.143  0.4125  0.1436  0.0300
15357W        W31831   6.235  12.802  12.959  0.2255  0.0291  0.0068
15358W        W31832  13.943   5.202  14.841 -0.0808 -0.1962  0.0278
15359W        W31833   4.806  18.429  13.191  0.3360 -0.4223 -0.1177
15360W        W31834   9.643  17.964   4.585  0.1079 -0.0153 -0.2008
15361W        W31835  17.310  15.345   3.457 -0.0781  0.1467 -0.3778
15362W        W31836   7.864  13.736   4.102 -0.0343 -0.2014 -0.2658
15363W        W31837   3.478  13.896   1.141  0.1418 -0.1883 -0.0753
15364W        W31838  16.926   0.062   4.761 -0.0211  0.1521 -0.0228
15365W        W31839  13.745  15.531   2.958 -0.1740  0.0750  0.1669
15366W        W31840   8.201  18.290   3.668 -0.0691  0.1335  0.2305
15367W        W31841   8.166  13.179  10.753  0.0017 -0.1457  0.2684
15368W        W31842   3.415   5.569  11.402 -0.2188 -0.0640 -0.2437
15369W        W31843   2.920   6.706  11.707 -0.0942  0.3941 -0.0028
15370W        W31844   1.828   6.388  13.220  0.3869  0.0594 -0.0993
15371W        W31845  10.803   3.510   1.637 -0.0365  0.0986 -0.0308
15372W        W31846   9.223   8.616   1.754 -0.1584  0.0286 -0.2556
15373W        W31847  15.738   9.591   2.367  0.0548 -0.1907  0.0989
15374W        W31848  14.273   9.902  12.077 -0.0625 -0.4128 -0.0322
15375W        W31849   4.744   2.079   0.850 -0.0183  0.2791  0.0583
15376W        W31850   9.048  15.834   3.333  0.0504 -0.2567 -0.0737
15377W        W31851   7.032  17.468   4.938  0.0824  0.1453  0.1082
15378W        W31852  11.964   3.251  14.639  0.1902 -0.1641 -0.3154
15379W        W31853  13.381  18.214  14.833  0.0258 -0.4415  0.0302
15380W        W31854  11.556   4.025  11.884 -0.1479  0.0505  0.0496
15381W        W31855   2.433  13.672  15.692  0.1136  0.0265 -0.0847
15382W        W31856   3.263   4.989   9.827  0.0036  0.3484 -0.2051
15383W        W31857   4.813  17.816  11.547  0.2324 -0.2125 -0.4248
15384W        W31858  14.614   7.731  14.205 -0.0639  0.0364  0.0354
15385W        W31859   4.149   4.105   1.904  0.1418  0.0443  0.1738
15386W        W31860   0.145   8.124  12.009 -0.0972 -0.0799 -0.3648
15387W        W31861  17.240  17.623  11.001  0.2564  0.1582 -0.2118
15388W        W31862   1.546   8.153   2.333  0.0014 -0.1265 -0.0090
15389W        W31863  10.111   5.567   2.236 -0.0301  0.0275 -0.1967
15390W        W31864   5.676   2.490  14.255 -0.1617  0.0882 -0.0508
15391W        W31865  15.963   3.612  12.851  0.1821  0.1615  0.0374
15392W        W31866   3.936   0.439  13.870  0.1365 -0.0465  0.0220
15393W        W31867   4.150   2.644  14.468  0.2104 -0.3777  0.1093
15394W        W31868   8.549  16.675  14.967  0.1298 -0.0564 -0.0225
15395W        W31869   6.480  18.393   1.761 -0.1010 -0.0809  0.0104
15396W        W31870  13.884   5.574   4.535  0.3681  0.1601 -0.0636
15397W        W31871  13.174  14.910   4.299 -0.3407 -0.1223 -0.2169
15398W        W31872   9.466  15.089  12.025 -0.1312  0.4474 -0.1222
15399W        W31873  16.104   8.354   4.220  0.0918 -0.0964 -0.1864
15400W        W31874   2.526   3.235  12.923 -0.0489 -0.0681 -0.1237
15401W        W31875  16.977  10.039  12.609  0.0772 -0.0421 -0.0279
15402W        W31876  16.102   3.085  15.659  0.1599  0.1353 -0.0470
15403W        W31877   2.187   6.700  15.668 -0.0557  0.1169 -0.1420
15404W        W31878   5.806   0.734   5.039  0.0422  0.1795  0.0233
15405W        W31879  12.656   2.704  15.142 -0.2568  0.0461 -0.1786
15406W        W31880  17.030   9.567   0.196  0.0556  0.2041 -0.0455
15407W        W31881   1.732  13.217  11.227 -0.1346  0.3214 -0.0839
15408W        W31882  10.321  16.270  12.570 -0.1580 -0.1420 -0.0130
15409W        W31883  11.113  10.412  11.155 -0.1770  0.1197  0.0345
15410W        W31884   9.553   6.729   1.142 -0.2428 -0.2824 -0.0098
15411W        W31885  10.836  13.624  14.114 -0.0690 -0.0200 -0.2078
15412W        W31886   5.522   6.965  15.134 -0.0897 -0.2944 -0.2292
15413W        W31887  12.261   3.870  15.209  0.4832  0.2351 -0.0324
15414W        W31888   0.393   6.416  13.022 -0.2248  0.0197  0.2959
15415W        W31889   9.180   7.215  13.113  0.0869 -0.0786  0.4336
15416W        W31890  17.735  17.361   4.555 -0.2001 -0.0984 -0.2402
15417W        W31891  13.244   2.622  15.804 -0.1036  0.2313 -0.4489
15418W        W31892   2.357  10.143   2.886 -0.0491 -0.0117 -0.1372
15419W        W31893   5.838  18.272  10.056 -0.2862  0.2956 -0.1670
15420W        W31894   0.237   1.690  15.799 -0.0813  0.0681 -0.1752
15421W        W31895  16.547   0.898   4.128 -0.1069  0.0947 -0.0451
15422W        W31896  12.444   5.603  13.945 -0.0059 -0.0264  0.1148
15423W        W31897  16.891  14.106  10.523 -0.2041  0.3509 -0.0425
15424W        W31898  16.418  13.925   1.941  0.3351 -0.0397 -0.0829
15425W        W31899  17.477   2.363  11.855  0.0699  0.1075 -0.1010
15426W        W31900  13.125   4.707  13.147  0.1117  0.2324 -0.2096
15427W        W31901  13.409  11.049   3.118  0.3224 -0.2051 -0.0705
15428W        W31902   3.687  10.376   3.000 -0.0068 -0.0244  0.1276
15429W        W31903   6.506   5.270  14.667  0.0724 -0.2266  0.0010
15430W        W31904   8.905   5.187   1.474  0.0254 -0.1895  0.1795
15431W        W31905  17.350   7.344  14.730 -0.2667  0.1541  0.1008
15432W        W31906   8.516  13.286  12.498 -0.0827  0.5079 -0.0049
15433W        W31907   9.598   5.685  14.155  0.1221  0.3084 -0.0317
15434W        W31908   5.000   1.289   0.704  0.0573 -0.0050 -0.0335
15435W        W31909  10.335   8.930   1.758  0.1465 -0.0198  0.0070
15436W        W31910   0.528   8.620  13.342 -0.1751  0.0851  0.1343
15437W        W31911   4.599  10.423   0.606  0.2201 -0.1057  0.0508
15438W        W31912   1.004  18.029  12.796  0.2194 -0.2068  0.2677
15439W        W31913   7.774  13.786  14.003 -0.1593 -0.0738  0.2285
15440W        W31914   4.079  12.478   2.041  0.0389 -0.0528  0.2901
15441W        W31915   9.318  14.748   3.447  0.2789  0.0740 -0.1601
15442W        W31916   5.676  10.057  12.337 -0.0976 -0.0090 -0.1795
15443W        W31917   8.296   2.762   1.378 -0.1617 -0.0197 -0.0287
15444W        W31918  16.960  13.538   0.723  0.0042 -0.1352  0.2146
15445W        W31919   5.401   3.404  13.514  0.1949 -0.0196  0.1247
15446W        W31920   4.157   4.287  12.745  0.2153 -0.0004 -0.0658
15447W        W31921   5.895   5.810  13.095 -0.2244 -0.0650 -0.0723
15448W        W31922  11.100  16.314  14.345 -0.1270  0.3284 -0.1053
15449W        W31923   7.524   6.702   4.551  0.0648  0.1319 -0.0938
15450W        W31924   1.904  17.516  14.542  0.1129 -0.1472  0.0565
15451W        W31925  18.464  17.282  14.844  0.1934  0.2918  0.1431
15452W        W31926  13.788  15.096   1.587  0.2108  0.0042 -0.1986
15453W        W31927  12.643  12.473   0.434 -0.3400  0.0477  0.1716
15454W        W31928  17.782  17.619  13.701 -0.0672 -0.1587  0.1459
15455W        W31929   9.959  12.705   0.615  0.1284 -0.1090 -0.0764
15456W        W31930   4.064  13.963   2.139 -0.1523  0.2963  0.2719
15457W        W31931  10.300  12.342   0.757  0.0435  0.1101 -0.0714
15458W        W31932  17.978   4.082   2.122 -0.0570 -0.0334  0.0350
15459W        W31933   3.339  15.479   1.991 -0.0830 -0.3450 -0.0640
15460W        W31934  16.970  12.159   5.413  0.0125 -0.0643 -0.0375
15461W        W31935  14.878  17.643  12.824  0.2829 -0.0176  0.2812
15462W        W31936  13.855  10.881   2.996 -0.0693 -0.2072 -0.1284
15463W        W31937  15.744   2.128   0.719 -0.1239 -0.3299  0.0446
15464W        W31938  15.246   5.400  12.256  0.0676 -0.2971  0.1156
15465W        W31939   1.962   4.396  12.377 -0.3694  0.3836  0.3586
15466W        W31940   4.487   0.869   4.581 -0.2422 -0.0110  0.1549
15467W        W31941  11.060   1.174   3.373 -0.0840  0.0366  0.0802
15468W        W31942  16.608  17.849   5.099 -0.1537 -0.1104  0.2594
15469W        W31943   8.200   2.001   3.204  0.0343 -0.1906 -0.0965
15470W        W31944  17.489   0.907   3.864 -0.1597 -0.0911  0.1383
15471W        W31945   0.410  13.652  13.115 -0.1682 -0.3012  0.3764
15472W        W31946   3.524  14.076   5.474 -0.3288 -0.0322  0.1627
15473W        W31947   3.596  15.869   1.965  0.2401 -0.0714  0.0491
15474W        W31948   7.099  15.054  13.902 -0.2640 -0.2685 -0.1207
15475W        W31949   6.930   2.977  15.601 -0.0644 -0.4223 -0.2317
15476W        W31950   4.252   2.121  11.675 -0.3867 -0.1695  0.0768
15477W        W31951  11.089  15.762  13.617 -0.0832  0.1597 -0.0538
15478W        W31952  13.530  17.913  14.161  0.2618  0.0929  0.2407
15479W        W31953   4.823  13.637   2.947  0.2067  0.2533 -0.1808
15480W        W31954  13.994  16.009  10.602  0.0112 -0.0011 -0.4001
15481W        W31955  11.260   7.253  15.965 -0.2129 -0.3542  0.0399
15482W        W31956   1.273   0.961  12.531 -0.2400 -0.0609  0.1500
15483W        W31957   3.948   4.488   0.108  0.5423  0.0020  0.2029
15484W        W31958   2.421  17.780  11.838  0.4108 -0.2221 -0.0288
15485W        W31959  11.744   9.389  14.049 -0.2198 -0.3529 -0.1073
15486W        W31960   8.987   2.138  13.039  0.0645  0.1113  0.0127
15487W        W31961  10.993   9.050  12.173  0.1252  0.2990 -0.1058
15488W        W31962   2.847   2.490   1.876  0.1352 -0.0407  0.0989
15489W        W31963  13.871   7.376   1.105  0.0580  0.1910  0.0222
15490W        W31964  11.390   6.238   2.912  0.1401  0.1600 -0.1687
15491W        W31965   2.148  16.052   5.057 -0.2034  0.1202 -0.1524
15492W        W31966   7.728   5.624   0.705  0.2094  0.0653  0.0168
15493W        W31967   4.412   9.603  13.500  0.1068 -0.0060  0.0009
15494W        W31968  10.486   1.112  15.589 -0.1518 -0.4167 -0.1669
15495W        W31969  10.333  15.751  14.340  0.1432  0.1080 -0.2645
15496W        W31970  11.243   8.025   6.089 -0.1893 -0.0119  0.1876
15497W        W31971   0.179  10.212  14.043  0.1855 -0.2392 -0.1807
15498W        W31972   1.188  15.902   4.740  0.2523 -0.0790  0.1764
15499W        W31973  17.627   8.463  11.112 -0.0447 -0.2984 -0.2405
15500W        W31974   8.794  17.106   4.768  0.3365  0.2107  0.0533
15501W        W31975  13.613  16.343   1.285  0.0523  0.1434  0.1608
15502W        W31976   0.945   7.083   2.124 -0.0069  0.1258  0.0439
15503W        W31977  16.800   2.206  14.953 -0.1540  0.3778  0.0137
15504W        W31978   8.043   3.435   4.824 -0.0586 -0.3291 -0.0351
15505W        W31979  17.369  14.889   3.961 -0.4660 -0.0618  0.0267
15506W        W31980  13.934   2.738   1.052  0.4046  0.0523  0.0178
15507W        W31981   7.924  16.045  15.488  0.1742  0.0177  0.0628
15508W        W31982   0.503  15.280  11.239 -0.0956  0.1479 -0.1690
15509W        W31983  12.865   8.649  12.173 -0.1041  0.0120 -0.2317
15510W        W31984  16.561  17.802   2.827 -0.2689 -0.0987  0.0327
15511W        W31985  14.583   6.073  13.757 -0.2978  0.3728 -0.0798
15512W        W31986   9.595  12.569   0.144  0.0111 -0.2050 -0.0771
15513W        W31987  10.692  11.865  14.239  0.2816 -0.0381  0.1747
15514W        W31988   0.926   7.244   3.619  0.1785 -0.0502 -0.2394
15515W        W31989   1.043  13.034   5.554 -0.1238  0.1865 -0.1235
15516W        W31990  10.220   8.002  12.545 -0.0527 -0.0728 -0.0204
15517W        W31991  14.941  15.321  12.390 -0.0048 -0.0332  0.1513
15518W        W31992  12.334  12.384  12.819 -0.0138 -0.2979 -0.1840
15519W        W31993   7.626  12.816  14.135 -0.3515 -0.1081 -0.3090
15520W        W31994  13.102  10.929  15.180  0.0427 -0.0556 -0.1116
15521W        W31995  12.958  14.345   6.241 -0.2267 -0.1854  0.1526
15522W        W31996   9.680   8.686   2.408  0.0594  0.0214 -0.2149
15523W        W31997   0.736  14.228  12.749 -0.1228  0.1553  0.1262
15524W        W31998  16.640   8.133  12.007  0.1038 -0.0372  0.0591
15525W        W31999  12.721   8.967  14.756  0.4424 -0.1926  0.5200
15526W        W32000  10.067   5.317  11.953  0.2095 -0.1391 -0.2396
15527W        W32001  12.100   4.505   3.569  0.1956 -0.0557 -0.0829
15528W        W32002  14.673  11.556  15.870 -0.4311  0.2358  0.0471
15529W        W32003   1.139  16.303   1.288 -0.0893 -0.0160  0.3363
15530W        W32004   9.368  15.574  14.170  0.0045  0.0246  0.0305
15531W        W32005   4.843  18.032   0.268  0.0269 -0.2112 -0.3117
15532W        W32006   4.220  11.339  14.995 -0.3238  0.0937  0.2981
15533W        W32007  11.316   3.634   1.623 -0.2304  0.2985  0.2004
15534W        W32008   7.797   6.483   2.381  0.0492 -0.2018 -0.1632
15535W        W32009  14.811  13.211   2.193  0.0400 -0.3300 -0.0732
15536W        W32010  11.553   0.643   4.327  0.0156  0.3286 -0.0360
15537W        W32011   1.620   5.580   5.654 -0.1120  0.0462  0.3184
15538W        W32012  14.679   4.360   3.885 -0.0012  0.3095  0.1987
15539W        W32013   4.840   7.960  11.300 -0.2348  0.0247 -0.1263
15540W        W32014  16.155   3.989  11.079 -0.1294 -0.4117  0.0155
15541W        W32015  14.875   0.423  13.419  0.0523 -0.0040 -0.2299
15542W        W32016   3.012   7.126  11.966 -0.2256  0.3052 -0.1425
15543W        W32017   4.847   8.796   4.611 -0.4624 -0.0356  0.0311
15544W        W32018   8.727   3.993   1.246 -0.0735  0.0878  0.0397
15545W        W32019  15.111   9.509   5.316 -0.5572  0.2579 -0.1699
15546W        W32020   3.235   1.535  13.651 -0.0872  0.0494  0.1389
15547W        W32021   3.402  14.579   5.566 -0.2161  0.1249 -0.3319
15548W        W32022   7.374  14.876   3.113  0.1333 -0.2958  0.1475
15549W        W32023  17.644   1.695  10.137 -0.0605 -0.0391 -0.1543
15550W        W32024   7.746   6.833  12.626 -0.3195 -0.2599  0.0407
15551W        W32025   7.772   8.829  12.932  0.4203 -0.0663 -0.4612
15552W        W32026   3.106  16.482  15.377  0.1262 -0.0561  0.2328
15553W        W32027  16.204   7.355   4.018  0.1637  0.3018 -0.2962
15554W        W32028   8.681   8.544  11.690 -0.3455  0.1126 -0.2976
15555W        W32029   0.821   0.169  11.988 -0.0109 -0.2563  0.0864
15556W        W32030   6.634   9.100  14.154 -0.1266  0.2486  0.0539
15557W        W32031   8.296   1.964   0.171  0.2287  0.0698  0.0173
15558W        W32032   1.829   7.345  11.844  0.0534  0.0416 -0.1369
15559W        W32033  12.340  10.794  12.987  0.2622  0.2987  0.5085
15560W        W32034  15.744   3.005   4.399  0.0238 -0.2493  0.0330
15561W        W32035  11.644  14.561   2.691 -0.1538 -0.0556 -0.3686
15562W        W32036   7.729   9.661  14.190  0.0372 -0.1365 -0.0962
15563W        W32037  12.346   6.052   3.806 -0.1000  0.1423  0.1700
15564W        W32038   3.349  10.118   4.559 -0.3083 -0.0920  0.0556
15565W        W32039  11.925   1.910   4.245  0.0023 -0.1727  0.1166
15566W        W32040  12.214   0.221  12.021 -0.0079 -0.2700  0.3524
15567W        W32041  12.645  15.335   0.271 -0.1205  0.0954 -0.3823
15568W        W32042   2.324   4.782   0.001 -0.0082  0.4745 -0.0531
15569W        W32043  10.747  16.631  14.221 -0.4809  0.2821  0.1861
15570W        W32044  16.538  12.581   4.086 -0.2630 -0.1236 -0.0379
15571W        W32045   3.992   6.173   0.019 -0.0154  0.1126  0.4096
15572W        W32046  11.638  16.683  10.327  0.0332 -0.0975  0.1094
15573W        W32047  11.216  10.654  11.973 -0.0353  0.0223 -0.0030
15574W        W32048  14.251   1.901  11.289  0.1578 -0.2230 -0.1186
15575W        W32049   5.414  17.188  15.337 -0.2350 -0.1429  0.2886
15576W        W32050  16.854   6.084   1.153  0.1716 -0.1825  0.0463
15577W        W32051   9.057  15.638   0.638 -0.5060  0.1035  0.2076
15578W        W32052   1.851  17.938   1.888  0.0650 -0.2487  0.0375
15579W        W32053   2.691  12.819  11.506  0.1946  0.2662  0.0160
15580W        W32054   3.386  14.575   4.633 -0.3523  0.0772 -0.0720
15581W        W32055  11.670   7.893   2.102 -0.3472 -0.3018  0.1724
15582W        W32056  11.354  13.889  15.703  0.0152 -0.1933 -0.0432
15583W        W32057  13.244   5.510   5.046  0.0504 -0.1064 -0.0316
15584W        W32058  11.024   1.800  11.958  0.5130  0.0713 -0.3951
15585W        W32059   0.957  16.344  13.403 -0.2623 -0.3786 -0.0157
15586W        W32060  13.043  13.045  13.105  0.1335 -0.1303  0.0443
15587W        W32061   1.572  18.390   2.585  0.0942  0.0078 -0.2433
15588W        W32062   6.652   0.501   4.959  0.1208 -0.1608 -0.0080
15589W        W32063   2.036   7.690  12.682 -0.0160  0.1695  0.1782
15590W        W32064  16.815  11.823  13.267 -0.2223  0.0215  0.1418
15591W        W32065   1.101   1.581   3.914 -0.2171 -0.1123  0.0138
15592W        W32066   8.006   4.831   3.092 -0.2950 -0.0941  0.0025
15593W        W32067   4.374  10.188   1.845 -0.0689 -0.1715  0.2320
15594W        W32068   9.516  17.421  10.938  0.2367 -0.2146  0.1151
15595W        W32069   0.915   6.365  15.172 -0.1528  0.3029 -0.1148
15596W        W32070  12.424  10.048  14.314 -0.3413  0.2412 -0.1602
15597W        W32071   6.461   5.807   0.116 -0.1889 -0.0558  0.1064
15598W        W32072  17.991  12.743   1.594  0.0166  0.0236 -0.4782
15599W        W32073   5.433   6.120   5.630 -0.0138 -0.1050 -0.0540
15600W        W32074  17.738   8.910  13.280 -0.1294 -0.1213  0.1599
15601W        W32075   7.043   7.040   2.047 -0.2179 -0.1402  0.1591
15602W        W32076   3.740   2.549   0.413 -0.1877 -0.0977  0.1162
15603W        W32077   4.779  17.223   1.546 -0.0401 -0.2314  0.1710
15604W        W32078   9.159  11.626   1.928 -0.1079  0.2402 -0.1991
15605W        W32079   0.657  11.237  14.855  0.2288 -0.1725  0.2542
15606W        W32080  12.576   8.261  12.429  0.0260  0.1274 -0.1949
15607W        W32081  14.237   7.858   2.738 -0.1986  0.1917 -0.1766
15608W        W32082  10.839  11.243   5.331  0.1129  0.1361  0.0950
15609W        W32083  17.828  17.288   2.097 -0.1194 -0.0535  0.0054
15610W        W32084   4.057  16.081  15.821  0.3966 -0.3350  0.2882
15611W        W32085   3.947   5.327   3.296 -0.0718  0.2887 -0.0224
15612W        W32086   5.877  17.818  14.068 -0.0181 -0.3032  0.1305
15613W        W32087   5.142  18.092  14.300  0.2421 -0.0831  0.0830
15614W        W32088   0.526   9.203   5.749 -0.1882  0.0028 -0.0923
15615W        W32089   3.727  11.924  15.620  0.0851  0.2154 -0.0633
15616W        W32090   9.663   4.930   3.922  0.1205  0.2044  0.2717
15617W        W32091   2.062  11.649   1.883 -0.0088 -0.1217 -0.1901
15618W        W32092   0.104   3.375  14.622  0.1737 -0.1208 -0.1363
15619W        W32093   9.411   2.469   2.758  0.2327  0.5862 -0.2717
15620W        W32094   6.863  12.789   2.919  0.1426 -0.0716 -0.3018
15621W        W32095   7.318  11.195   9.872  0.2395 -0.3785 -0.2899
15622W        W32096   0.217   9.666  11.758 -0.1051 -0.2771  0.0575
15623W        W32097  13.249   5.487  15.430 -0.0056 -0.3851  0.1487
15624W        W32098   8.024   4.912   1.671 -0.1219  0.1396  0.0804
15625W        W32099   1.951   1.752   0.528 -0.0844 -0.0700  0.2021
15626W        W32100  17.390   8.021   3.680 -0.1717  0.0191  0.0054
15627W        W32101   4.701   8.209   5.957  0.2183 -0.1631 -0.0864
15628W        W32102  13.962   3.278   0.645  0.1067  0.0522 -0.3194
15629W        W32103  18.100   2.546   3.673 -0.2546 -0.0856  0.2004
15630W        W32104   6.613   7.624  15.673 -0.2927  0.0368  0.0985
15631W        W32105   7.020   4.180  12.705 -0.0430  0.0683 -0.2413
15632W        W32106   0.649  18.250  13.500  0.0344 -0.2150  0.0660
15633W        W32107   5.643   9.326   4.999  0.2248  0.1335  0.2936
15634W        W32108  16.442  14.081  13.549 -0.0029  0.0826  0.1532
15635W        W32109   0.585   0.090  11.053 -0.1369 -0.0323  0.1513
15636W        W32110  10.401  13.377   1.078  0.0699  0.0425  0.3026
15637W        W32111  17.346   6.681  10.745 -0.0962 -0.0664 -0.0018
15638W        W32112   5.116  18.462  15.141  0.6546  0.1058  0.1714
15639W        W32113  12.992  16.638   3.737 -0.0347 -0.0278  0.0979
15640W        W32114  12.121  12.982   4.108  0.0178  0.0791  0.0492
15641W        W32115  15.551  10.123   1.871 -0.1774  0.1671 -0.1062
15642W        W32116  13.670  17.963  11.757  0.0034  0.2779 -0.1659
15643W        W32117  12.673  16.155  14.761 -0.1845  0.0468  0.1085
15644W        W32118   1.699   8.910  11.341  0.1495  0.1353 -0.2604
15645W        W32119   4.119   8.912   4.913  0.3158 -0.2067  0.0404
15646W        W32120   8.424  16.984   3.833  0.0862  0.2144 -0.1546
15647W        W32121   2.294   8.373   2.926 -0.3612  0.2152 -0.2566
15648W        W32122  18.026   1.402  11.503 -0.1178  0.0644 -0.1527
15649W        W32123  11.934  14.946  11.355 -0.1607 -0.1776  0.0837
15650W        W32124  11.464   1.665   4.080  0.3218 -0.2047  0.2737
15651W        W32125   6.162   0.433   2.297 -0.0232 -0.1368 -0.0493
15652W        W32126   2.736  15.350   4.147 -0.1430  0.1264 -0.1556
15653W        W32127  10.166   0.780   2.038  0.3603  0.0873 -0.2266
15654W        W32128   9.093   7.042  11.713  0.1103  0.1175 -0.0919
15655W        W32129  10.944  11.837  12.833  0.3048 -0.0595 -0.3848
15656W        W32130   9.422   8.534   2.863  0.4362  0.1094  0.0735
15657W        W32131   1.155  18.138   5.447  0.1710 -0.0612  0.0919
15658W        W32132   3.438  11.751  14.715  0.1118  0.0280  0.2915
15659W        W32133  13.333   1.906   3.664 -0.2048 -0.0961  0.0615
15660W        W32134  11.693  10.712   2.226  0.1477 -0.1884 -0.1423
15661W        W32135   1.525  18.371  15.032  0.1606 -0.2780  0.2262
15662W        W32136  16.359  11.084  15.817 -0.0640  0.1628  0.0557
15663W        W32137  16.787  13.979   4.382 -0.0591 -0.0224  0.2401
15664W        W32138  16.121  17.700   3.057 -0.0986  0.1924 -0.1673
15665W        W32139  13.378  15.274   1.289 -0.1087 -0.0830  0.1352
15666W        W32140  14.022  14.367  14.019  0.1531 -0.1709  0.1930
15667W        W32141   0.943  12.913  13.793  0.3427 -0.0704 -0.0448
15668W        W32142  16.580   2.996  14.472  0.0438 -0.0228 -0.2138
15669W        W32143   7.804   7.444   3.970 -0.1590  0.0093 -0.1438
15670W        W32144  14.952  15.113  11.779 -0.0775  0.0380 -0.2886
15671W        W32145  18.371  12.108   2.162  0.3288  0.0437  0.2186
15672W        W32146   3.178  13.143   1.131  0.1752  0.3817 -0.2787
15673W        W32147   6.252  11.192  14.889 -0.1361 -0.1064  0.3646
15674W        W32148   5.003  16.535   0.883 -0.1472  0.0938  0.2842
15675W        W32149  17.535  14.226   1.225  0.0954  0.0806  0.1724
15676W        W32150  12.283   6.850   4.765 -0.0920 -0.2376 -0.3461
15677W        W32151   2.197   8.653  14.043 -0.2347  0.2756 -0.0131
15678W        W32152   2.462   5.411   1.097  0.0895 -0.0849 -0.1209
15679W        W32153   2.019   1.083  14.532 -0.0257  0.2030 -0.0132
15680W        W32154   5.342  12.700  12.034  0.1783  0.1375 -0.0130
15681W        W32155  14.327  11.040  11.274 -0.0674  0.0327  0.0361
15682W        W32156  12.807   7.700  13.681 -0.2873 -0.1897 -0.1435
15683W        W32157   6.168   3.342  11.382 -0.1120  0.4057 -0.1955
15684W        W32158  12.376   8.516  15.160 -0.1224 -0.2967  0.4047
15685W        W32159   9.369  16.233  15.266  0.2497  0.0105  0.0942
15686W        W32160  13.967   6.876  10.760 -0.0247 -0.2786  0.2143
15687W        W32161   4.786   1.272  12.390  0.0808 -0.0136 -0.1901
15688W        W32162   3.737  14.858   4.381  0.2924 -0.0747 -0.0509
15689W        W32163  12.683  11.162   2.149 -0.1333  0.1804 -0.0857
15690W        W32164  11.238  13.107  15.351 -0.0814  0.1398 -0.0340
15691W        W32165  14.638   5.796  15.239  0.0042 -0.1829  0.1004
15692W        W32166   6.644   5.639  15.455  0.0668  0.1178 -0.2796
15693W        W32167   9.917   8.075  15.127 -0.0002 -0.2220  0.2967
15694W        W32168  10.608   5.189   1.608 -0.1754 -0.0237 -0.0768
15695W        W32169   1.355  17.453   3.058  0.2278 -0.1079  0.2785
15696W        W32170   5.669  12.132   3.264  0.3346 -0.1565 -0.1117
15697W        W32171  12.102  10.515  12.584 -0.0371 -0.0132 -0.0650
15698W        W32172   6.140   8.331  12.090 -0.2163  0.1063 -0.1051
15699W        W32173  14.150   7.020   2.384  0.1930  0.0919 -0.0082
15700W        W32174   7.562  18.132  14.235  0.0191  0.1893 -0.2983
15701W        W32175   3.985   5.641  15.148 -0.0737  0.0023  0.1387
15702W        W32176  14.602  12.146   3.025 -0.1724 -0.1837 -0.3622
15703W        W32177  18.404  15.580  10.391  0.0847  0.1142 -0.1095
15704W        W32178   3.043   7.123   2.857  0.0104  0.2030  0.1160
15705W        W32179   4.236   4.370   5.545  0.1519  0.3988 -0.0568
15706W        W32180   6.554  12.675  12.389  0.0904 -0.1780  0.1700
15707W        W32181  12.266  17.974   4.672  0.1104  0.1706 -0.1489
15708W        W32182  14.455   8.553   3.311  0.2560 -0.0984 -0.0475
15709W        W32183   0.571  14.828  15.475 -0.1008 -0.0343 -0.0105
15710W        W32184  18.054  13.219  15.383 -0.1893 -0.0564 -0.2613
15711W        W32185  16.972  16.350   4.853  0.1423  0.0388  0.0073
15712W        W32186  10.098   3.550  14.270  0.1570 -0.0668 -0.0158
15713W        W32187  11.455   6.227  13.135  0.1862 -0.1839  0.1767
15714W        W32188   0.326  15.722  14.869 -0.0050 -0.2619 -0.0427
15715W        W32189  12.438  16.251  10.372 -0.0938  0.0167  0.0416
15716W        W32190  12.598   2.208   1.240 -0.2080 -0.2489  0.1481
15717W        W32191  17.971   9.723  13.723  0.1320 -0.1190  0.1876
15718W        W32192  15.140  16.038   5.428 -0.1991 -0.0919  0.0006
15719W        W32193   0.210  18.058   2.906 -0.2098 -0.0226  0.2051
15720W        W32194   1.401  16.780   4.764 -0.1942  0.1661  0.1510
15721W        W32195   3.065   0.485   1.022  0.0160  0.1312  0.1662
15722W        W32196  11.060   4.392  11.193  0.0508  0.1538  0.0366
15723W        W32197  14.690  10.342   5.055  0.6042 -0.0619 -0.0873
15724W        W32198   2.207  14.550  10.272 -0.0124  0.2918 -0.0029
15725W        W32199  12.258  12.806  12.478 -0.2647  0.0086 -0.1132
15726W        W32200   8.133   3.807  15.425 -0.3200 -0.1902 -0.0593
15727W        W32201  10.425  12.353  14.913 -0.0332  0.3711 -0.0626
15728W        W32202  16.937  15.067   1.247  0.0024  0.0498 -0.0493
15729W        W32203   4.397   7.066  11.645 -0.2753 -0.0174  0.1816
15730W        W32204  15.202   6.360   2.221  0.0036  0.0804 -0.1536
15731W        W32205  15.073   0.608   3.450 -0.0263 -0.0479  0.0712
15732W        W32206   2.361  10.780   4.211 -0.0065 -0.2840 -0.2231
15733W        W32207  12.913  14.907   0.578 -0.1020 -0.2111  0.2904
15734W        W32208   5.917   1.018  13.654 -0.1996 -0.1226  0.3049
15735W        W32209  15.830  10.872   3.658 -0.1624 -0.1893  0.0660
15736W        W32210  10.735  14.659   2.919  0.0029 -0.2085  0.1740
15737W        W32211   1.067   3.640   0.328  0.0562 -0.0093  0.1491
15738W        W32212   8.889   1.855   0.618 -0.0630  0.1769  0.3182
15739W        W32213   7.581  14.443  15.356 -0.1814  0.1999 -0.2002
15740W        W32214   0.744   6.177  13.332 -0.0016  0.2398  0.0341
15741W        W32215  15.106   6.150  13.543  0.0081 -0.0156  0.1810
15742W        W32216   5.245  11.608   2.526 -0.3381  0.1755  0.1431
15743W        W32217   5.771  10.971  12.546  0.0514  0.0602  0.2785
15744W        W32218   7.606  13.350  15.928  0.0074 -0.2737  0.1357
15745W        W32219   3.362   4.883   1.162 -0.0434  0.2460 -0.1463
15746W        W32220  13.313   8.236  14.900  0.0590 -0.1188  0.1321
15747W        W32221  15.252  12.814  11.632 -0.0109 -0.0239 -0.0681
15748W        W32222  12.835   2.636   5.198  0.2027  0.0362  0.1816
15749W        W32223  14.448   7.720  11.920 -0.0148 -0.4763 -0.3625
15750W        W32224   2.819   8.999  13.744  0.0961  0.0054 -0.0089
15751W        W32225   2.988  16.368   5.509  0.3032 -0.2545  0.1511
15752W        W32226   5.240   2.196  13.648 -0.3559 -0.0693 -0.0267
15753W        W32227  17.110  15.190   5.228 -0.0426 -0.2023  0.1107
15754W        W32228  12.701   9.474   4.320  0.0231 -0.3468  0.0624
15755W        W32229  12.197  12.423   5.128  0.1306 -0.1260 -0.4010
15756W        W32230   4.265   6.843  12.072 -0.1381 -0.1959  0.0010
15757W        W32231   6.816   7.021  15.043  0.0114  0.0100  0.2440
15758W        W32232   7.044  13.137   3.373 -0.0821 -0.0616 -0.2593
15759W        W32233   1.324   9.891   3.707 -0.0715  0.1437 -0.1257
15760W        W32234  10.481   3.976  11.704 -0.0836 -0.1873  0.0628
15761W        W32235   2.301   3.433   3.379 -0.0309 -0.4736 -0.1384
15762W        W32236  13.461   9.782   1.114  0.1279  0.0513 -0.2561
15763W        W32237   4.666  13.899  11.056 -0.2837 -0.0017 -0.1307
15764W        W32238   7.716   3.903   2.537  0.0988  0.2216 -0.4191
15765W        W32239   4.154  15.220  15.057 -0.1082 -0.3148 -0.1308
15766W        W32240   7.823   8.038  14.707 -0.1006 -0.0217  0.1331
15767W        W32241   4.851  13.458  14.046 -0.0670 -0.0743 -0.3144
15768W        W32242   9.978  17.899  13.892  0.0074  0.0532  0.0518
15769W        W32243   1.697  13.434  11.916 -0.1367 -0.2729 -0.0297
15770W        W32244  12.024   6.438  14.546  0.2098  0.3351  0.0167
15771W        W32245   7.829   9.500   5.085 -0.3626  0.0233 -0.1184
15772W        W32246   7.935   1.055   5.562 -0.0140  0.4253 -0.0300
15773W        W32247   2.751  17.901   4.611 -0.0706 -0.2095 -0.0120
15774W        W32248  14.535  17.924   3.042  0.1013 -0.3164 -0.0956
15775W        W32249  16.379  18.025   1.545 -0.2313 -0.0945 -0.0872
15776W        W32250  18.025  18.064   0.059 -0.1300 -0.0468  0.2511
15777W        W32251   6.477   9.972   4.072  0.0100 -0.0687 -0.0478
15778W        W32252  15.859  16.345   3.531  0.0035 -0.0033 -0.1247
15779W        W32253   8.395  13.607  14.789 -0.2060 -0.1515 -0.0385
15780W        W32254   5.336  16.197  13.432 -0.1639  0.1152 -0.2930
15781W        W32255   2.994  17.027  11.972  0.2199  0.1163  0.1567
15782W        W32256   5.465  11.776  12.312  0.2347 -0.0752  0.4223
15783W        W32257   5.415  14.647   1.980  0.1306  0.0365  0.0045
15784W        W32258   8.159   4.877   2.622 -0.2908  0.2385  0.1529
15785W        W32259   3.475  13.579  14.652 -0.0625 -0.0437  0.1672
15786W        W32260  18.119  16.300  13.345 -0.0311 -0.0039  0.0149
15787W        W32261  16.024   5.838  15.627 -0.0357 -0.0678  0.0543
15788W        W32262   5.033   1.505  14.492  0.2100  0.1587 -0.0914
15789W        W32263   3.089  10.245  15.491  0.0347  0.1357  0.2243
15790W        W32264  11.767   2.309  11.345  0.0759  0.0855 -0.0143
15791W        W32265   6.825  13.813  14.047  0.1603  0.0191 -0.3615
15792W        W32266   8.017  13.803  15.718 -0.2614 -0.0866 -0.1316
15793W        W32267  18.437  11.953   4.794  0.1035  0.0676 -0.1704
15794W        W32268   8.505  17.450   2.787  0.0915  0.1413 -0.2276
15795W        W32269   5.479  11.759   0.670  0.2680 -0.0298 -0.1934
15796W        W32270   2.726   6.559   3.008  0.4259  0.0180  0.0700
15797W        W32271   9.666   5.761   2.246  0.1403 -0.0722  0.2496
15798W        W32272   2.427   1.919  14.457  0.1677 -0.0602 -0.0335
15799W        W32273  11.725   2.422  11.830  0.2587 -0.1187  0.3640
15800W        W32274   8.197  17.594   1.755  0.2484 -0.1861 -0.2069
15801W        W32275   1.258  11.082  13.069  0.0512  0.0010 -0.0166
15802W        W32276  12.139  13.716   5.190  0.2943  0.1748 -0.0756
15803W        W32277   6.209   0.608  12.323 -0.3325 -0.2533 -0.3621
15804W        W32278   7.804   8.353  10.960  0.0538 -0.0581  0.1037
15805W        W32279  15.240   6.504   0.401 -0.1171  0.0056  0.1263
15806W        W32280  16.853   3.563   0.017  0.0258  0.0512  0.3665
15807W        W32281  14.283  11.669   0.165 -0.0437 -0.3868  0.2377
15808W        W32282  11.360  13.735   3.187 -0.3765  0.0312  0.2741
15809W        W32283   9.887   4.704   0.482 -0.0126  0.1126 -0.0372
15810W        W32284  11.271   0.829   3.753  0.0666  0.0110  0.0539
15811W        W32285   5.959  14.231  11.095 -0.3085 -0.0689  0.2611
15812W        W32286  10.459   5.641   0.990 -0.0903 -0.1436 -0.0733
15813W        W32287  16.013  12.635  14.488  0.0077  0.2027  0.1446
15814W        W32288  18.105   2.424   0.665  0.0149 -0.0074 -0.1412
15815W        W32289  15.018   1.855   4.558 -0.0923 -0.1867 -0.0498
15816W        W32290   4.054   7.511  10.976 -0.1039  0.5303  0.0370
15817W        W32291   3.444   4.443  15.937 -0.0796 -0.0737 -0.1321
15818W        W32292  17.289  17.745  12.184  0.0338 -0.3045 -0.2268
15819W        W32293   3.618   3.091   0.531  0.2544  0.0482  0.0396
15820W        W32294   0.279   4.038   2.908 -0.0303  0.3806 -0.1605
15821W        W32295  14.727  12.224  12.909  0.2122 -0.0612 -0.1107
15822W        W32296   9.132   9.242   5.186 -0.2385  0.6309  0.2139
15823W        W32297   6.761  12.861  11.967 -0.0362 -0.0424  0.2217
15824W        W32298   6.235   6.000  15.318 -0.0031 -0.0347 -0.2102
15825W        W32299   5.385  15.840  15.910  0.0854 -0.0199 -0.0356
15826W        W32300   0.241  10.412  10.336 -0.1873  0.2735  0.1760
15827W        W32301  14.234  12.894   0.651 -0.2374 -0.1468  0.1731
15828W        W32302   4.303   3.589   4.820  0.1281  0.1383  0.2985
15829W        W32303  11.827  17.174   3.961  0.1687  0.3347 -0.0505
15830W        W32304   9.475   1.696  14.003  0.0261 -0.1116 -0.0246
15831W        W32305   0.978   8.517   1.901 -0.1728  0.0499  0.2725
15832W        W32306  15.678   6.214  12.144 -0.0425 -0.1389  0.3055
15833W        W32307  13.445  14.355   3.804 -0.0533  0.0200 -0.1672
15834W        W32308   3.381   4.917  14.780  0.0038 -0.1275  0.2781
15835W        W32309   3.377   9.058  12.280 -0.0030 -0.2107 -0.0352
15836W        W32310  13.674   2.089   2.794  0.1430  0.1656  0.1002
15837W        W32311   4.595  12.483  15.246 -0.1793  0.3943  0.1155
15838W        W32312  11.539  18.293   3.978 -0.0684  0.2535 -0.1837
15839W        W32313  12.168   9.452   0.147 -0.0082  0.4291 -0.1928
15840W        W32314   0.119   3.055  15.561  0.0288 -0.0097  0.1175
15841W        W32315   8.582   7.056   5.643 -0.0523  0.1897 -0.0051
15842W        W32316  14.161  11.630  13.398 -0.2399 -0.1046  0.1520
15843W        W32317  12.304  16.952  13.116 -0.3192  0.0091  0.1249
15844W        W32318   4.664  15.526   3.361  0.2317 -0.1166  0.1004
15845W        W32319   9.399  14.969   1.204 -0.2145 -0.1769  0.1064
15846W        W32320   9.144   0.249  12.196  0.0615 -0.3534  0.2324
15847W        W32321  11.969   0.464  11.057  0.5558 -0.1432  0.0129
15848W        W32322  11.092  16.252   2.547  0.1701  0.0598 -0.0795
15849W        W32323  13.872   7.714  11.006  0.0524 -0.1726 -0.2242
15850W        W32324  18.220   7.948  11.689 -0.1366  0.1082 -0.2295
15851W        W32325  12.447  15.882   0.116 -0.0215  0.2124  0.0197
15852W        W32326  18.244  15.171   2.857  0.2404  0.1422 -0.0980
15853W        W32327  14.575   7.436   4.399 -0.2762  0.0880  0.4048
15854W        W32328  11.707   5.072   0.813 -0.0023 -0.1616  0.1108
15855W        W32329  16.713  10.451  12.415  0.1907  0.2359 -0.2755
15856W        W32330  14.879  14.812  14.128  0.0404  0.4474 -0.1559
15857W        W32331  17.546  10.826   5.406 -0.3014 -0.0046  0.1173
15858W        W32332  12.495  17.326  11.885  0.2487  0.1084  0.2314
15859W        W32333  15.533  15.047  13.243 -0.1610  0.2932  0.1927
15860W        W32334   3.939   0.931  13.583 -0.0101 -0.1698  0.0347
15861W        W32335   2.799   5.049   1.296 -0.1357 -0.0052  0.3860
15862W        W32336  17.489   6.028  15.257 -0.0892 -0.1297  0.3742
15863W        W32337   9.337   7.329  15.864  0.3780 -0.0505  0.0782
15864W        W32338  16.325   9.959   0.920 -0.0084  0.1271  0.1646
15865W        W32339   6.772   1.029   1.181  0.1958 -0.1380  0.2588
15866W        W32340   3.341  12.893  13.174 -0.0644  0.0350 -0.1135
15867W        W32341  15.739   4.757   5.477  0.1096  0.0178 -0.0416
15868W        W32342  10.343   4.331   1.319 -0.0247  0.2139 -0.0154
15869W        W32343  10.136   7.840  13.356  0.1093 -0.2639 -0.1043
15870W        W32344  10.638   7.732   3.900 -0.2257 -0.1458 -0.3494
15871W        W32345   0.957   9.846   4.384 -0.0634 -0.0181  0.0661
15872W        W32346  14.691  10.908  12.912 -0.1450 -0.1423  0.0587
15873W        W32347   5.082  16.467   1.711 -0.1400 -0.0351  0.1726
15874W        W32348   7.762  17.061  12.419 -0.2569 -0.0358  0.2105
15875W        W32349   3.822  13.496  14.296 -0.2250 -0.0872 -0.1648
15876W        W32350   7.098   3.598   4.038 -0.0966  0.0436 -0.3189
15877W        W32351   1.267  11.870   1.159  0.1139  0.3401 -0.2590
15878W        W32352  14.783   8.494  13.583 -0.0189  0.4472  0.0754
15879W        W32353   7.981   7.581   0.881  0.0547 -0.0386  0.0137
15880W        W32354   0.817   3.559   0.759  0.0510  0.0880  0.0813
15881W        W32355  10.882   3.513   0.549 -0.0571  0.1356 -0.3027
15882W        W32356   1.314   6.063   0.438  0.1059 -0.1821  0.1994
15883W        W32357   2.972  12.245   1.059 -0.0789 -0.0999 -0.1764
15884W        W32358   2.571   1.702   1.550 -0.0910  0.3451 -0.1841
15885W        W32359   0.564   3.288   3.595 -0.2007  0.0015  0.0569
15886W        W32360  17.139  15.868  12.643 -0.1126 -0.1445 -0.0694
15887W        W32361   0.513  10.634   0.310 -0.2720 -0.0271 -0.2371
15888W        W32362   3.398   7.008   4.048 -0.1350  0.0712  0.1499
15889W        W32363   9.066  11.004  14.884  0.0961 -0.0250 -0.1208
15890W        W32364  10.841   3.088   3.780 -0.0995  0.3794  0.1207
15891W        W32365   7.244  17.846  10.982  0.0472  0.2978  0.0282
15892W        W32366  15.755   2.957  15.126 -0.1597 -0.4819  0.2684
15893W        W32367   5.754  16.236   0.927 -0.0006 -0.0349  0.1865
15894W        W32368  10.160  17.982  15.097  0.0317  0.2221  0.1039
15895W        W32369  14.426   7.039   3.716  0.0737 -0.0210  0.2085
15896W        W32370  13.142   5.718  14.014 -0.0472 -0.1277 -0.0481
15897W        W32371   7.604   8.129   0.307 -0.0637  0.1908  0.0727
15898W        W32372  17.808   9.296  12.367  0.0891  0.2108  0.0746
15899W        W32373  12.941   4.124  13.194 -0.1905  0.1872  0.2537
15900W        W32374   3.139  13.165   4.695  0.0249  0.1541  0.0118
15901W        W32375  16.345  12.935  12.909 -0.1389  0.1314  0.0504
15902W        W32376   9.386  10.848  13.656  0.0941  0.1617 -0.0159
15903W        W32377  17.190  15.690   4.907 -0.1515  0.0739 -0.0896
15904W        W32378  15.450   6.360   3.429  0.4131 -0.2947  0.0826
15905W        W32379   5.725   2.585  12.130 -0.1593  0.1926  0.1630
15906W        W32380   6.628   7.439   4.051  0.2685 -0.1391  0.2802
15907W        W32381  16.563   6.668   4.571  0.0971 -0.2844 -0.1057
15908W        W32382   0.989   0.948   1.859 -0.1249 -0.0591  0.0547
15909W        W32383   2.867  17.893  15.890  0.1620  0.0447 -0.1525
15910W        W32384   0.919  13.873  13.103  0.0130  0.0491  0.1233
15911W        W32385   1.123   1.945   0.015  0.0612 -0.3406  0.4317
15912W        W32386  10.339   5.245   1.225  0.0375 -0.2343 -0.0835
15913W        W32387  16.174  17.052   4.645  0.1026 -0.0389 -0.4040
15914W        W32388   3.379  14.649  10.184 -0.3511  0.1500  0.1495
15915W        W32389  11.750   3.929   1.621 -0.5145  0.0102  0.2265
15916W        W32390  11.505  11.085  15.056  0.1335 -0.1049  0.2195
15917W        W32391   1.833  18.113  11.053  0.3505 -0.1280 -0.2018
15918W        W32392  11.901  11.534   5.361 -0.3249 -0.1708  0.1946
15919W        W32393   8.660   7.926   1.515  0.0243  0.2547 -0.1916
15920W        W32394   5.235   6.003   3.396  0.0455 -0.0626 -0.1347
15921W        W32395   5.173  18.208   3.805  0.3837  0.0900  0.1717
15922W        W32396   5.019   4.017  12.379 -0.1278 -0.1894  0.1983
15923W        W32397  15.881   0.796  12.014  0.3449 -0.2586  0.1323
15924W        W32398   9.150  14.859   4.316 -0.0970  0.1946 -0.0137
15925W        W32399   0.700   1.763   1.241  0.3282  0.1623 -0.1379
15926W        W32400  14.220  14.289  11.740  0.0593  0.3422 -0.3416
15927W        W32401  10.028   1.095  15.438  0.1237  0.3046 -0.2734
15928W        W32402   5.888  14.522   1.250  0.0458 -0.0395 -0.0843
15929W        W32403  14.721  13.188   4.881 -0.0916 -0.1444  0.0067
15930W        W32404   5.628  15.795  13.331  0.1643 -0.1613 -0.1818
15931W        W32405   9.721   1.875   0.778  0.1707  0.0348  0.0436
15932W        W32406   8.071  11.871   3.023 -0.2379  0.3622  0.0113
15933W        W32407  17.839   4.906  12.321 -0.0216 -0.5503  0.0529
15934W        W32408   3.270   5.333  12.963 -0.0800  0.5228 -0.0804
15935W        W32409  17.013  12.438  13.863  0.3978  0.1237  0.0466
15936W        W32410   2.624   1.543  11.166 -0.1398  0.0108  0.0237
15937W        W32411   8.096  14.459   5.232 -0.0276  0.0328  0.0964
15938W        W32412  15.565   2.183  13.088 -0.2573 -0.0351  0.1920
15939W        W32413  14.704  13.624  10.641 -0.2096  0.1771 -0.0773
15940W        W32414  10.250  12.391   3.694 -0.0880 -0.0976  0.2023
15941W        W32415   2.154   7.594   2.097  0.2338 -0.1823 -0.1361
15942W        W32416  13.572   2.205   4.352 -0.0925 -0.0764  0.0085
15943W        W32417   7.445   8.201   5.111  0.0151  0.5337 -0.0986
15944W        W32418  11.725   3.382   1.593  0.2738  0.1750  0.0979
15945W        W32419   6.099   1.363  14.425  0.1260 -0.1013  0.1867
15946W        W32420  10.360  18.069   3.394 -0.1050  0.0153  0.3388
15947W        W32421  16.525   6.650  13.346 -0.0793  0.2204  0.2364
15948W        W32422   8.535   4.246   3.533 -0.2048  0.5055  0.0950
15949W        W32423  16.115  15.169  12.362  0.0114 -0.3443 -0.1973
15950W        W32424   1.310  15.791   3.040 -0.0528  0.1198  0.2096
15951W        W32425  11.333  14.414   4.547 -0.0211  0.3038  0.1830
15952W        W32426   7.696  15.317   5.713  0.3340 -0.0014  0.1102
15953W        W32427  18.413   8.559   2.135  0.0850  0.0656 -0.0371
15954W        W32428  13.475   4.940  14.604 -0.0914  0.1500  0.2604
15955W        W32429  10.819  11.317  12.756  0.0627 -0.1670 -0.0935
15956W        W32430   9.175  10.255   1.000  0.2439  0.5573 -0.1287
15957W        W32431  11.521   5.762  12.407  0.0706  0.1146  0.0328
15958W        W32432   0.344  14.305   3.587  0.0338  0.0967  0.1200
15959W        W32433   0.564  17.420  15.068 -0.0957  0.0441 -0.2605
15960W        W32434   4.019   1.814   2.888  0.2461 -0.0555 -0.0558
15961W        W32435  15.458  14.085   4.320  0.2198  0.3628 -0.1341
15962W        W32436  12.153  17.717  13.627 -0.1092 -0.1399  0.0370
15963W        W32437   1.429  10.121  13.555  0.0347  0.2102  0.2290
15964W        W32438   4.406   2.242   2.644  0.2737 -0.1414  0.0823
15965W        W32439  17.647   0.742   4.451  0.1517  0.1475 -0.4344
15966W        W32440   6.149   1.412  12.478 -0.0974  0.0699  0.1402
15967W        W32441   7.777  10.779  13.820  0.2320 -0.2205 -0.0231
15968W        W32442  13.874   4.380   1.517  0.0001 -0.2274 -0.1392
15969W        W32443   1.656   2.305   2.798 -0.1134  0.0844 -0.1298
15970W        W32444   8.941  15.875  14.558  0.0811  0.1336 -0.0176
15971W        W32445  12.503  15.198  15.279 -0.0291 -0.2809  0.0502
15972W        W32446   3.211   7.876   3.009 -0.0810 -0.1862  0.0345
15973W        W32447  14.168   4.163  11.561  0.1266  0.1158  0.0860
15974W        W32448   9.970   9.924   0.391 -0.0862  0.1465 -0.2362
15975W        W32449   2.594   7.175   4.152 -0.1102 -0.0588 -0.1090
15976W        W32450   3.271   5.847  13.802  0.0042 -0.2248 -0.1095
15977W        W32451   7.831  16.412   0.917  0.4176  0.0545  0.0598
15978W        W32452  16.648   9.916   2.541  0.0338  0.0082 -0.3365
15979W        W32453   0.704  11.504  12.924  0.1625  0.1419  0.3444
15980W        W32454   5.501   0.083   4.426  0.1225  0.3350  0.0454
15981W        W32455   3.059  17.424   0.267 -0.0064  0.3655 -0.1401
15982W        W32456   2.344   3.968   1.346  0.0922  0.2181 -0.1201
15983W        W32457  15.930  17.826   1.650  0.0586  0.0311 -0.0258
15984W        W32458   1.184  10.064  11.219 -0.2102 -0.1479  0.0021
15985W        W32459   3.797   8.894  13.338 -0.1776  0.2503  0.2675
15986W        W32460  13.656   3.822   1.322  0.1824  0.3566 -0.1045
15987W        W32461   7.208   5.932   4.628  0.0419 -0.2026  0.1745
15988W        W32462   2.722   1.477   4.446  0.4396  0.0299  0.3284
15989W        W32463  13.002   8.362  12.654 -0.1728 -0.2917 -0.0780
15990W        W32464   1.783   2.635  12.649  0.0794 -0.1432 -0.2323
15991W        W32465   0.816  13.468  11.628 -0.3263  0.0225 -0.1274
15992W        W32466   6.674  15.945  14.741 -0.2415 -0.0866  0.1997
15993W        W32467   0.815  11.623   0.962  0.0871 -0.2381 -0.1935
15994W        W32468   8.664   5.756  15.524 -0.5273 -0.0488 -0.0696
15995W        W32469  11.235   0.911  10.444 -0.0193  0.0244 -0.2322
15996W        W32470   1.520  10.603  12.714 -0.1913  0.0488 -0.1784
15997W        W32471   0.001  16.300  12.313  0.0302 -0.2392  0.1514
15998W        W32472   9.116  10.829   3.449 -0.4056  0.0051 -0.0282
15999W        W32473   0.570  10.064   2.370 -0.1531 -0.0489 -0.0118
16000W        W32474   3.493   2.358  12.295  0.1042  0.0915 -0.0596
16001W        W32475   2.070  16.610   1.630 -0.0649 -0.2359 -0.2113
16002W        W32476  13.171  13.707   4.451  0.0886  0.1320  0.0707
16003W        W32477   7.717  15.738   3.171  0.0595 -0.1985  0.0944
16004W        W32478   5.284  16.830   5.105  0.1910 -0.0135 -0.3245
16005W        W32479   8.841  18.227  12.169 -0.0377 -0.1480  0.1792
16006W        W32480  18.174   9.111  15.114  0.0922  0.1723  0.0088
16007W        W32481  15.695  18.185   3.862  0.1599 -0.2128  0.0350
16008W        W32482  10.960  16.324  13.808 -0.0108 -0.0751  0.0949
16009W        W32483   9.153  10.262  11.848 -0.3083  0.1021 -0.0588
16010W        W32484   1.679  15.186   4.874 -0.0669 -0.1430  0.3179
16011W        W32485  13.530   3.518   1.731  0.1973 -0.1239  0.0047
16012W        W32486   5.203   9.009   4.881 -0.2062  0.0838  0.0118
16013W        W32487   0.286   4.052   3.808  0.2225  0.0486 -0.0641
16014W        W32488  13.371   4.702   0.037 -0.1540  0.1626  0.1316
16015W        W32489   0.964   2.824   1.936  0.3088 -0.2117 -0.0971
16016W        W32490  12.336  16.086  15.186  0.2067  0.1346 -0.5371
16017W        W32491   5.119  14.848  13.629  0.1701  0.0245  0.0764
16018W        W32492   5.857  17.241   2.588  0.1140  0.2784  0.0941
16019W        W32493  15.980   7.040  11.150 -0.1160  0.1758 -0.2842
16020W        W32494   6.899  13.756   1.019  0.0981 -0.0823 -0.1475
16021W        W32495  15.937  18.078  13.369  0.0879 -0.3945  0.2753
16022W        W32496  10.129   6.050  12.412  0.0386  0.0749  0.2302
16023W        W32497  13.563   3.560  11.804 -0.0754 -0.1927  0.0679
16024W        W32498  15.076   3.050   2.594 -0.0147 -0.2061 -0.1195
16025W        W32499  16.870  14.658  14.092 -0.5995  0.0977 -0.0731
16026W        W32500  16.640  11.444   1.100 -0.0537  0.0773  0.1306
16027W        W32501   3.203   0.332   0.090 -0.1296  0.1416  0.1160
16028W        W32502  14.664  10.331   1.557 -0.0956  0.0827  0.2742
16029W        W32503   9.743  13.419  13.922 -0.2293  0.1867 -0.2105
16030W        W32504  15.592   3.574   2.723  0.2332 -0.0181  0.1277
16031W        W32505  14.137  15.097  13.742  0.0882 -0.2557  0.1343
16032W        W32506   2.717  17.896  14.114  0.3536 -0.0096 -0.1113
16033W        W32507  18.310   6.691   0.834  0.2117  0.0313  0.3354
16034W        W32508  13.053   0.265  12.765  0.3055 -0.0035 -0.1194
16035W        W32509  12.436  11.782   1.097 -0.0434 -0.0096 -0.0718
16036W        W32510  17.779  12.978   4.219 -0.0730  0.1185  0.0839
16037W        W32511  12.893   8.492  15.814  0.2152  0.2399 -0.4865
16038W        W32512  10.837  10.986  11.875  0.0860 -0.1593  0.5426
16039W        W32513  14.254   4.745  11.825 -0.1148 -0.2711 -0.0707
16040W        W32514   4.963  13.083   2.213  0.0680  0.1029 -0.1454
16041W        W32515  12.001  14.480  15.372 -0.0390 -0.0811 -0.1216
16042W        W32516  14.993   2.528  11.278  0.0826  0.0136  0.1509
16043W        W32517  15.096  12.280   2.877 -0.1738  0.0094  0.2538
16044W        W32518  11.474   8.525   4.451  0.2165 -0.3647 -0.0039
16045W        W32519  14.030  17.436  13.735 -0.0647 -0.3640 -0.0985
16046W        W32520  10.203  17.674  14.390  0.1417  0.0815 -0.0874
16047W        W32521   0.579  13.026  13.403  0.1620  0.0852  0.1262
16048W        W32522   0.641  12.399  15.081  0.4588 -0.1595 -0.0580
16049W        W32523  18.459  10.739  14.628  0.1871  0.0293 -0.2640
16050W        W32524   9.491  14.602   4.050 -0.0875 -0.1098  0.1618
16051W        W32525   5.960  10.180   4.800  0.0232  0.1095 -0.0913
16052W        W32526  15.477   5.191  14.428  0.3727  0.1097  0.3989
16053W        W32527  12.301   7.198  15.676  0.0539  0.0882  0.1410
16054W        W32528   4.482   5.041   3.025  0.0481  0.0964 -0.1998
16055W        W32529  10.979   9.677  12.329  0.0640  0.1836 -0.0452
16056W        W32530   4.407   1.084  15.529 -0.0964  0.1583 -0.1101
16057W        W32531   6.593   5.800   1.433 -0.2558  0.0812  0.0627
16058W        W32532  11.241  13.517   1.976 -0.1481  0.1252  0.0137
16059W        W32533  13.822  12.837   4.423  0.2514 -0.1983 -0.1393
16060W        W32534   1.745   6.304  10.113  0.1164  0.1864  0.0231
16061W        W32535   7.664  11.477   5.132  0.0425  0.0720 -0.2306
16062W        W32536   1.071  15.627  13.838  0.1130  0.2787 -0.0178
16063W        W32537  11.973   3.578  15.509 -0.0223  0.0723 -0.1688
16064W        W32538   3.714  10.956  11.045 -0.4412 -0.0289  0.2011
16065W        W32539  10.814  15.395   3.649  0.1100  0.1480  0.2062
16066W        W32540  10.564   3.262  12.482 -0.0667  0.2220  0.0738
16067W        W32541  14.999   2.239  12.936  0.2290 -0.1973  0.0274
16068W        W32542   3.047  17.752  12.497 -0.1295 -0.3965 -0.0193
16069W        W32543  18.115  12.792  14.987  0.2294 -0.0737  0.1688
16070W        W32544   8.212   3.995  14.462  0.0259  0.0393 -0.0054
16071W        W32545  17.723   1.485   2.468 -0.0243 -0.1155 -0.3482
16072W        W32546  15.512  16.528  10.056 -0.2765  0.2092 -0.0610
16073W        W32547   8.678   5.229  15.629 -0.0835  0.1945  0.0559
16074W        W32548   3.064   0.249   4.635 -0.0996  0.1338  0.0663
16075W        W32549  15.182  15.135  11.316  0.0080 -0.0410  0.0503
16076W        W32550   2.379   6.135  11.752  0.0450 -0.1494  0.0646
16077W        W32551   3.887  11.449   3.296  0.3428 -0.3324  0.2243
16078W        W32552   0.234   6.000  15.292 -0.1017  0.0481 -0.1495
16079W        W32553  13.659   9.602  12.699 -0.0038  0.3811  0.4973
16080W        W32554  14.371  13.213   2.393 -0.1120 -0.2735  0.0057
16081W        W32555   2.881  11.684   0.290 -0.0920 -0.3650 -0.0407
16082W        W32556  18.023  15.712   0.506 -0.0667  0.3207 -0.0410
16083W        W32557   9.912  18.342   4.277  0.1162 -0.0047 -0.1641
16084W        W32558   6.148   8.736   3.726  0.0072 -0.1247  0.2157
16085W        W32559   6.103   6.795  15.628 -0.2114  0.3960 -0.1919
16086W        W32560   8.459  11.986  10.318  0.0425  0.0328 -0.2295
16087W        W32561  18.013   1.104   3.140 -0.0123 -0.0422 -0.0482
16088W        W32562  14.069   0.432   1.945  0.3251 -0.1135  0.2204
16089W        W32563   0.407   9.457   2.580 -0.0303 -0.1435 -0.0316
16090W        W32564   0.109  10.920  15.508 -0.2182 -0.0250 -0.2130
16091W        W32565  12.724   1.819  10.487 -0.0036  0.3089 -0.0160
16092W        W32566  12.589  16.374  13.808 -0.2904  0.0683  0.0008
16093W        W32567   5.366   4.481   1.032  0.1379 -0.0016 -0.1346
16094W        W32568  16.887  16.757   2.578 -0.1050 -0.0479 -0.1774
16095W        W32569  15.984   4.625   2.335 -0.5353  0.3126 -0.0846
16096W        W32570  10.283   6.025   2.534 -0.0237  0.1827  0.0898
16097W        W32571   1.262   0.096   4.228 -0.1210 -0.1147  0.3912
16098W        W32572  13.667   7.040   5.468 -0.1989  0.1743 -0.2189
16099W        W32573  11.565   0.985  10.073 -0.1943  0.2481  0.0154
16100W        W32574  12.914  10.425  15.522  0.2343  0.0733 -0.0132
16101W        W32575  11.377  15.989  15.075 -0.1525 -0.4944  0.0210
16102W        W32576   6.365   1.982   5.387 -0.0060 -0.1732  0.1275
16103W        W32577  12.196   3.515   0.483 -0.0823 -0.2806  0.0554
16104W        W32578   2.085  16.943  15.163  0.1371  0.1206  0.1831
16105W        W32579   3.932   0.786   4.969 -0.2952  0.0693 -0.1057
16106W        W32580  10.294   2.119   3.089  0.2054  0.2714  0.0329
16107W        W32581  10.232  16.863   3.066  0.0606  0.3112 -0.0179
16108W        W32582   6.529   7.511   0.921  0.3593 -0.0406  0.0567
16109W        W32583   5.967   8.411   1.081  0.2142 -0.1205  0.0398
16110W        W32584  15.551  13.132  11.367  0.1575 -0.1532 -0.4657
16111W        W32585   2.304  10.400   4.488  0.1907  0.0423  0.0951
16112W        W32586   4.316  17.798  11.448  0.1188  0.2144 -0.5109
16113W        W32587  16.141   3.032  14.245  0.0147  0.2230 -0.0533
16114W        W32588   9.962   3.643   4.885  0.3277  0.3081 -0.2084
16115W        W32589  16.648   2.557   2.457 -0.1654  0.0583 -0.1049
16116W        W32590   6.023   9.770   5.804  0.1685  0.4333 -0.1711
16117W        W32591  17.318   5.773   2.785  0.1462 -0.5625 -0.0340
16118W        W32592   1.426   6.049  13.342 -0.1501 -0.1884 -0.1473
16119W        W32593   2.233   7.624  12.148 -0.1148 -0.1144  0.0635
16120W        W32594   2.527  12.887  12.503  0.1643  0.1005  0.2516
16121W        W32595   5.637  12.368   2.032 -0.2875 -0.0903  0.1476
16122W        W32596   8.813   3.548  12.019  0.4219  0.2271  0.4174
16123W        W32597   7.230   4.625   4.314 -0.3505  0.1463 -0.1554
16124W        W32598   5.334   9.942  15.576 -0.0527 -0.1072  0.0647
16125W        W32599   4.195   6.139  14.035 -0.0594  0.1181  0.2303
16126W        W32600   3.429   1.025   4.345  0.2240 -0.1244  0.0680
16127W        W32601   3.615  12.091  10.434  0.0774 -0.1429 -0.2563
16128W        W32602   6.497  14.177  13.120  0.1898 -0.0899 -0.0712
16129W        W32603   5.867  14.139  13.654  0.0121  0.0137  0.2837
16130W        W32604  17.901   3.397   5.147 -0.0653  0.1215 -0.0816
16131W        W32605  13.766   6.430   3.510 -0.0843 -0.0736  0.2546
16132W        W32606  17.154   5.999  13.691 -0.2072 -0.6507  0.1504
16133W        W32607   1.715   4.532   5.824  0.1930 -0.2670 -0.1367
16134W        W32608  16.015   1.277   1.118 -0.1956  0.1675  0.0790
16135W        W32609  16.304   8.424  12.230 -0.1920  0.0969 -0.0555
16136W        W32610   0.732   7.252  12.873 -0.0008  0.1888 -0.2108
16137W        W32611   8.195  12.973  11.748 -0.0693 -0.2843  0.2104
16138W        W32612   1.286   0.186   1.615 -0.3269  0.0257  0.0898
16139W        W32613  11.181   4.941  10.279  0.0688  0.0760  0.0357
16140W        W32614   8.397   9.773   3.404  0.1327  0.2648 -0.3179
16141W        W32615  16.431  12.964   3.735  0.0965  0.2158 -0.3920
16142W        W32616   7.205  17.088   1.985 -0.2192  0.0944  0.2416
16143W        W32617  13.022  15.619  12.442 -0.0243 -0.0254 -0.1087
16144W        W32618   1.982   7.097  13.422  0.0344  0.0916  0.0411
16145W        W32619  16.180   2.320   0.297  0.1014 -0.0059  0.2580
16146W        W32620   5.741  16.346  13.671 -0.0510 -0.0058 -0.1623
16147W        W32621   0.983   6.895  11.588 -0.1797 -0.0423  0.1368
16148W        W32622  12.152   3.454  14.222  0.1680  0.3524 -0.3528
16149W        W32623  10.571  11.936   0.613  0.1222 -0.1727  0.1811
16150W        W32624  11.150  11.590  15.819  0.1421 -0.3344 -0.1970
16151W        W32625   1.201  12.633   3.247 -0.1787 -0.3365 -0.1926
16152W        W32626  14.395   8.362   4.635 -0.0313 -0.1106  0.1040
16153W        W32627  10.254   9.119   0.005 -0.1569 -0.1847  0.1627
16154W        W32628  18.347   4.175   5.399 -0.0197  0.0301  0.0427
16155W        W32629  15.701  16.687   3.004  0.1777  0.3088  0.2215
16156W        W32630   5.488  18.275   3.358 -0.0648  0.3694  0.1033
16157W        W32631  11.288   0.323   4.714 -0.0355 -0.1209  0.0601
16158W        W32632  13.103  10.022   0.792 -0.0473 -0.1813 -0.2332
16159W        W32633   9.087   8.251  13.387  0.2572  0.1066 -0.1263
16160W        W32634  13.523  11.779  14.337 -0.3659  0.2220  0.1741
16161W        W32635   9.820   5.144   1.442  0.0525 -0.2615 -0.1492
16162W        W32636  16.099  10.647   5.010 -0.2640 -0.1157  0.0537
16163W        W32637   7.495   2.228  14.002  0.0117 -0.1974  0.0419
16164W        W32638   3.553   7.488  12.519 -0.0338 -0.1494 -0.1508
16165W        W32639   8.749  17.655   0.396  0.2048 -0.1295 -0.0100
16166W        W32640   4.676   8.769  12.717 -0.1463  0.1352 -0.0601
16167W        W32641   8.047   1.766   0.603  0.1023 -0.0252 -0.2561
16168W        W32642   3.607   3.448   1.382 -0.0494 -0.1916 -0.2352
16169W        W32643   6.636  17.518   5.366  0.2201  0.2472 -0.0683
16170W        W32644  16.023   6.351  14.354 -0.2990 -0.0544 -0.0859
16171W        W32645  17.269   9.499  11.218  0.0565 -0.0431 -0.2800
16172W        W32646  14.846   4.634   4.998 -0.3523  0.2593  0.2596
16173W        W32647   9.016   6.515   2.301 -0.3986 -0.2499  0.2393
16174W        W32648  18.167  15.778   1.060 -0.2099 -0.2147  0.0827
16175W        W32649   4.635   6.090   1.989 -0.1411  0.2442  0.1969
16176W        W32650   9.895   8.237   6.198 -0.1856 -0.1404  0.2421
16177W        W32651   5.491  15.467   3.609 -0.1221 -0.0846  0.0397
16178W        W32652   3.289   2.271   1.247 -0.1638 -0.1442 -0.0284
16179W        W32653   4.987  14.618   1.093  0.1828  0.2140 -0.0522
16180W        W32654  14.381   4.959   3.132 -0.4121 -0.0191  0.0615
16181W        W32655  12.376   0.163   0.087 -0.0417 -0.1146 -0.0960
16182W        W32656   3.765  17.660  11.339 -0.0468  0.0346 -0.0636
16183W        W32657   4.646  15.474  12.551  0.1581  0.0614 -0.1498
16184W        W32658  15.829   9.600  12.673  0.3035  0.4187 -0.0846
16185W        W32659  14.153  13.476  13.550  0.3210 -0.1269  0.0233
16186W        W32660   6.955  18.046   0.220 -0.2665  0.2865  0.2662
16187W        W32661   7.833  13.913  12.065 -0.2362 -0.0287  0.1213
16188W        W32662  12.516   0.648  11.847 -0.1529  0.3178  0.0618
16189W        W32663   3.295  14.864  12.328 -0.0185 -0.1080 -0.1983
16190W        W32664   6.379   9.278  11.933  0.1121  0.1541  0.1460
16191W        W32665  16.739  15.040  15.099 -0.1421  0.1630  0.0361
16192W        W32666  15.452  15.518   5.269  0.1601 -0.0836 -0.0003
16193W        W32667  11.797  14.338  12.515 -0.2128 -0.0205  0.0361
16194W        W32668   0.721  13.465   5.382 -0.0323 -0.1123  0.0813
16195W        W32669  15.697   1.204  13.551  0.2720  0.0076  0.0369
16196W        W32670   4.209   4.602   0.826  0.1069 -0.2235  0.0315
16197W        W32671  14.843   4.164  13.476 -0.1792 -0.1715 -0.2030
16198W        W32672   7.854  10.651   0.428 -0.2087  0.0049  0.0185
16199W        W32673   6.439  16.461   3.865  0.1407 -0.2280  0.0462
16200W        W32674   4.425  13.511   4.016  0.0464  0.0296 -0.2397
16201W        W32675  17.800  14.273  10.702  0.0236  0.1730  0.2343
16202W        W32676  15.155  17.077   4.376 -0.0130 -0.1660  0.0231
16203W        W32677  12.580   0.846  15.610 -0.0188  0.0451 -0.1617
16204W        W32678   5.341  15.189  10.772  0.1257  0.0811 -0.1330
16205W        W32679   6.093  12.708   3.182  0.0336  0.1244  0.1093
16206W        W32680  10.278  12.157  14.088 -0.1133 -0.1558 -0.3604
16207W        W32681  17.015  10.846  12.285  0.1419 -0.0444 -0.2143
16208W        W32682  13.393  10.696  14.605 -0.0182 -0.1276 -0.0682
16209W        W32683   6.957   9.707  15.594  0.0229  0.1992 -0.4504
16210W        W32684   2.064  15.531  13.792  0.0340 -0.1284  0.0668
16211W        W32685   2.539   4.424   3.495 -0.1334  0.2433 -0.2973
16212W        W32686   8.121   0.654   1.160  0.0998  0.0185 -0.2468
16213W        W32687  15.375   7.891  13.151  0.1290 -0.3380  0.2423
16214W        W32688  17.164  12.919  13.868 -0.1333 -0.0805 -0.2493
16215W        W32689  16.929  10.874  14.973  0.0364  0.0324  0.1368
16216W        W32690   1.253   8.422  15.163  0.2256 -0.2834 -0.2417
16217W        W32691  18.095  18.326   4.358  0.0795 -0.1507 -0.0127
16218W        W32692  16.358  10.666   2.265 -0.0077 -0.1519  0.2042
16219W        W32693  14.248   4.463   3.734  0.0696 -0.2510  0.2755
16220W        W32694   5.295  17.319   5.107 -0.0887 -0.2984 -0.0371
16221W        W32695   9.575  17.245   2.889  0.0291  0.2816 -0.0361
16222W        W32696  13.816   1.658  11.254 -0.0797 -0.1411  0.1924
16223W        W32697   0.103   0.715   1.282  0.0457 -0.3079  0.2656
16224W        W32698  12.390  11.808   4.764 -0.2888 -0.1920 -0.1615
16225W        W32699  17.891  14.921   1.785  0.4258  0.0385  0.2722
16226W        W32700   6.458   0.662  13.355  0.0899 -0.1275  0.1007
16227W        W32701   9.713   9.867   4.850  0.3584  0.0369 -0.0219
16228W        W32702   5.001  16.566  13.368  0.0041 -0.3240 -0.2264
16229W        W32703   1.659  13.126   6.098  0.1235  0.0822  0.1767
16230W        W32704   6.433   4.299   2.477 -0.0851 -0.2586 -0.1422
16231W        W32705   6.099  17.744   4.325 -0.0840  0.2172  0.1811
16232W        W32706   1.664   0.683  14.395 -0.4142  0.0238 -0.0109
16233W        W32707  16.937  13.607   0.129  0.0944 -0.0285  0.2649
16234W        W32708   8.553  10.115   0.480  0.3858  0.0081 -0.4370
16235W        W32709  16.774   6.843   1.752 -0.0160 -0.0794  0.1296
16236W        W32710  16.355  16.650  10.311 -0.0897  0.2113 -0.1129
16237W        W32711   3.077  14.459   3.700 -0.0911 -0.0421  0.0938
16238W        W32712  18.427   2.965  11.220  0.3308  0.0076 -0.2220
16239W        W32713  12.227  13.907  11.646 -0.3324  0.0825 -0.1546
16240W        W32714   2.293  15.172  15.634  0.0646 -0.1138  0.0081
16241W        W32715  14.765   7.078   2.114 -0.2186 -0.1690 -0.0280
16242W        W32716  16.699  10.700  15.816  0.1310  0.0109  0.1548
16243W        W32717  13.233  10.863   4.639 -0.0778 -0.0712  0.2211
16244W        W32718  13.203   8.288  11.406  0.1153 -0.2830  0.0117
16245W        W32719  11.174   8.236  15.208 -0.0265 -0.2354 -0.1473
16246W        W32720   0.994   7.553   4.960 -0.3437  0.0018  0.0590
16247W        W32721   6.649  16.392  11.545 -0.2386 -0.1218  0.1277
16248W        W32722   0.831  11.789   4.678 -0.1517 -0.0011  0.0449
16249W        W32723   2.746  17.063  14.122 -0.0750  0.1855 -0.1021
16250W        W32724   8.445  13.009  15.749 -0.1548 -0.1828  0.1292
16251W        W32725   6.822  17.750   3.551  0.1549 -0.1290  0.3737
16252W        W32726  18.150  17.136  14.379 -0.0222  0.0792  0.0619
16253W        W32727   9.991   6.571  10.749  0.2906 -0.0040  0.0049
16254W        W32728   2.667   3.204   2.394 -0.0729 -0.0106  0.0226
16255W        W32729   9.150  17.349   5.006 -0.0781 -0.0869 -0.0035
16256W        W32730   2.197   6.966   0.566  0.0267 -0.0445 -0.3015
16257W        W32731  15.156   5.148   3.283 -0.0450  0.2382 -0.6311
16258W        W32732   8.409   0.059  13.719 -0.0922 -0.0907 -0.0589
16259W        W32733   4.455   0.196   1.401 -0.3101 -0.0035  0.1197
16260W        W32734  13.917  18.287   0.547  0.1043 -0.1592 -0.0850
16261W        W32735   1.262   9.655  15.678 -0.1483 -0.2006 -0.0236
16262W        W32736  17.801  17.850  15.585  0.3014 -0.0795 -0.0368
16263W        W32737   9.664   2.142  14.195  0.2773 -0.1828  0.2080
16264W        W32738   0.431   8.189  13.588 -0.1438  0.0215 -0.0837
16265W        W32739  15.302  15.751  13.890  0.1305  0.0210  0.1628
16266W        W32740  16.116   4.050  13.206  0.0730  0.2578  0.0612
16267W        W32741   3.674  17.798  12.636  0.3111  0.1662 -0.3033
16268W        W32742  14.311   6.411   5.506  0.1204  0.2365 -0.3538
16269W        W32743   1.206  11.380  12.245  0.0662  0.0956 -0.1847
16270W        W32744   2.208   2.359  14.676 -0.3957  0.0791  0.1951
16271W        W32745   1.033  18.264   1.716  0.3400  0.0161  0.2205
16272W        W32746  11.992   6.327   3.563 -0.1305  0.0228  0.0780
16273W        W32747   6.730   4.792   4.528  0.0224 -0.3265  0.0957
16274W        W32748   7.820  16.379  12.947 -0.4435  0.1925  0.1047
16275W        W32749  13.796  11.646  15.533  0.0410 -0.2488 -0.0050
16276W        W32750  17.057   1.918   1.522 -0.0879  0.0981  0.0897
16277W        W32751   9.032  11.787  15.265 -0.1460 -0.0474  0.3855
16278W        W32752   0.235   3.390  11.440  0.0703  0.3001 -0.2005
16279W        W32753   9.244   2.286   1.919 -0.0352  0.2074  0.2492
16280W        W32754  15.646  13.125  15.360  0.0031  0.3716  0.3008
16281W        W32755   7.784   7.029  13.602 -0.3599  0.2182 -0.0924
16282W        W32756  13.345   8.828   3.151  0.0022  0.0275  0.0795
16283W        W32757  11.045   6.599  13.892  0.0184  0.0908 -0.2909
16284W        W32758  13.142  15.696   4.704 -0.1203 -0.1517  0.0910
16285W        W32759   4.468   9.838  13.018  0.0533  0.2043 -0.0473
16286W        W32760   2.825  14.236  15.783 -0.0369 -0.1386  0.0619
16287W        W32761  17.022  14.056  11.135 -0.1437  0.1167 -0.0432
16288W        W32762   0.909  17.839  14.318  0.1948 -0.1011  0.3371
16289W        W32763   5.125   4.131  13.547  0.0168  0.0768  0.0129
16290W        W32764   9.288   5.861   0.859  0.2867 -0.1619 -0.3633
16291W        W32765  10.424   4.068  13.624  0.0686 -0.2122  0.1237
16292W        W32766  16.441  18.323   2.795 -0.1282  0.1890 -0.0134
16293W        W32767  12.662   0.174  11.647  0.0402 -0.0135 -0.0180
16294W        W32768   0.480   9.307  14.283  0.3389 -0.1607 -0.1486
16295W        W32769  18.112   0.589   5.314 -0.1180 -0.1449  0.0010
16296W        W32770   3.287   6.935   1.271  0.0275 -0.1460  0.1353
16297W        W32771  16.827   4.202  15.829  0.1735  0.2109  0.2539
16298W        W32772   4.599   6.675  13.276  0.0377 -0.0178  0.2229
16299W        W32773   1.704   4.603   4.777  0.1945 -0.2685  0.4022
16300W        W32774   9.667  10.719  12.234 -0.0880  0.0398 -0.1227
16301W        W32775   8.955  15.976  12.846  0.2107  0.1351  0.3005
16302W        W32776  13.505   3.351  14.427  0.1531  0.2213  0.0583
16303W        W32777  17.073  11.694  14.411 -0.1430 -0.0764 -0.0454
16304W        W32778   1.375  12.271   0.874  0.1932 -0.2783 -0.3220
16305W        W32779  12.324   2.102  15.535  0.3780 -0.0294  0.0306
16306W        W32780   1.920  17.860   4.346  0.0282 -0.0070  0.2156
16307W        W32781  10.068  14.168  15.042  0.1130  0.3542  0.2069
16308W        W32782  13.589  17.878  15.141 -0.0629  0.1809 -0.2176
16309W        W32783  11.347  14.510   0.431  0.0211  0.0031 -0.1342
16310W        W32784   8.037  11.927  14.331 -0.0257  0.2758 -0.4074
16311W        W32785   6.852   0.798  13.028  0.0253 -0.4132  0.3072
16312W        W32786   0.898  16.521  13.851 -0.2887  0.2178  0.0312
16313W        W32787   0.717   5.081  12.926  0.1934  0.1930 -0.0859
16314W        W32788  15.991  15.071   1.566  0.0196 -0.3081 -0.2171
16315W        W32789  18.362   8.004   0.313  0.2721  0.0782 -0.0114
16316W        W32790   0.110   2.341   0.568  0.0864  0.0516  0.0507
16317W        W32791   0.827  16.795  15.882 -0.0011  0.1429 -0.0619
16318W        W32792   0.971   1.479   4.377  0.1665 -0.1688  0.1097
16319W        W32793   8.026  14.863   0.121  0.2232  0.2303 -0.1344
16320W        W32794  11.007  13.236   6.370 -0.0324 -0.1168  0.2529
16321W        W32795  16.036   0.988  13.293 -0.0151  0.0660 -0.3238
16322W        W32796   7.615   7.058   3.709  0.1515 -0.1194  0.0980
16323W        W32797  16.286  16.910  12.374 -0.1861 -0.1616 -0.0304
16324W        W32798  15.001  10.847   0.854  0.0713 -0.3567 -0.1342
16325W        W32799  17.702  12.301   2.658 -0.2061 -0.1343  0.1529
16326W        W32800   1.619   8.617   2.513 -0.0071  0.2567  0.2691
16327W        W32801   6.929  11.478  15.797  0.0979 -0.3561  0.2157
16328W        W32802   6.471  11.739  11.417  0.1721  0.2083 -0.1378
16329W        W32803   6.365  15.344  14.911 -0.0316  0.0504 -0.0231
16330W        W32804  13.581  13.842   3.584  0.1731 -0.0603 -0.0005
16331W        W32805  15.618  17.195  13.308 -0.1100  0.1854  0.0561
16332W        W32806  11.888  10.172  15.653  0.2480  0.3004  0.1631
16333W        W32807   4.207   7.448  13.245  0.1308 -0.1768  0.2802
16334W        W32808  17.453   6.998   1.709  0.0244  0.1063 -0.1707
16335W        W32809  17.865  12.923   2.064 -0.0480  0.0048  0.1800
16336W        W32810   4.962   1.892  14.082 -0.0808 -0.1444  0.2148
16337W        W32811  17.643  14.648   2.274  0.1014  0.1137 -0.1162
16338W        W32812   6.158  17.899  10.199  0.1972 -0.3480 -0.2343
16339W        W32813   9.569   7.268   4.282  0.2364  0.0152 -0.2448
16340W        W32814   6.015  17.692  14.739  0.1504 -0.1711 -0.1608
16341W        W32815   3.445   9.451   4.540  0.0803  0.0763 -0.1296
16342W        W32816  14.623   0.258  13.880 -0.0484 -0.2082 -0.2762
16343W        W32817   6.803   3.580   5.291 -0.3536 -0.0181 -0.1232
16344W        W32818   9.809  14.949  11.229  0.1442 -0.1866 -0.1068
16345W        W32819  15.104  10.533  11.651  0.1601 -0.0753 -0.1303
16346W        W32820   7.631   0.864  13.931 -0.1248 -0.0830  0.2569
16347W        W32821   2.639   7.718   4.183  0.2317  0.2020  0.0726
16348W        W32822   1.857   8.096   1.374  0.2479 -0.0933 -0.1634
16349W        W32823   1.780  12.930  12.702 -0.1682  0.4753  0.1046
16350W        W32824  12.269   6.065   5.668  0.0044 -0.3458  0.0391
16351W        W32825   4.977   3.725   1.987 -0.0089  0.2026 -0.0497
16352W        W32826  12.161  10.251   3.993  0.0016 -0.5497 -0.2542
16353W        W32827   1.469  10.983  11.299  0.2532 -0.0398 -0.2889
16354W        W32828   9.635   2.568  11.490 -0.3774  0.0840  0.1299
16355W        W32829  13.333  15.134   4.767 -0.0269 -0.1681  0.1429
16356W        W32830   1.783  15.294   2.010 -0.2564 -0.0094  0.1770
16357W        W32831  16.996  13.964  12.883  0.2584  0.0463 -0.0521
16358W        W32832  10.226   7.686  12.906  0.0367  0.1615 -0.0847
16359W        W32833  17.694   2.945  14.345  0.0656 -0.1443 -0.0570
16360W        W32834  10.319   2.803  13.082  0.0716  0.0554  0.0857
16361W        W32835   5.809  13.298  14.924 -0.3521  0.1194 -0.0390
16362W        W32836   3.183   0.953   3.595 -0.0272 -0.0084 -0.0830
16363W        W32837  13.229   1.339  15.815 -0.1379 -0.0427 -0.1276
16364W        W32838  12.559   9.292   1.174 -0.2206 -0.0395 -0.0125
16365W        W32839  14.776  17.181   4.067  0.1497 -0.0003 -0.0471
16366W        W32840  12.741  14.443  14.523  0.0455 -0.0638  0.4171
16367W        W32841   1.041   0.052   2.223 -0.1855  0.1861  0.1070
16368W        W32842  15.442   8.784   0.540 -0.0927 -0.0260 -0.2411
16369W        W32843  17.045  13.108   3.621  0.1628  0.4212  0.0915
16370W        W32844   4.581   8.015  14.727  0.0663 -0.0536 -0.0281
16371W        W32845   0.864   2.112   3.382  0.0850  0.0726 -0.3048
16372W        W32846   1.248  12.231  15.809  0.1210  0.1434  0.2224
16373W        W32847   5.851  11.547   4.260 -0.1428  0.0864  0.0278
16374W        W32848   6.655   1.885  11.984  0.0383  0.2283  0.1351
16375W        W32849  13.644   0.721   2.032  0.2599  0.3784  0.3430
16376W        W32850  15.608   8.241   4.039 -0.1168  0.0582  0.1562
16377W        W32851  12.321   5.387  11.709 -0.1154 -0.1780  0.1383
16378W        W32852  14.793  12.697   3.172  0.0422 -0.3213  0.2360
16379W        W32853   8.333   3.297   2.018  0.0944  0.0889  0.1110
16380W        W32854   8.791  17.918   5.814  0.0743 -0.1336  0.0078
16381W        W32855   6.822   2.791   3.821 -0.0486 -0.0373 -0.0771
16382W        W32856   0.308   9.124  11.669  0.1334 -0.3737  0.0126
16383W        W32857  18.103  17.371  15.368 -0.3029 -0.1841  0.1040
16384W        W32858  16.169   9.758   2.517 -0.1485  0.2973 -0.1813
16385W        W32859  17.028  13.767  13.952  0.0756 -0.0558  0.4882
16386W        W32860   3.017   0.259  11.324 -0.0722 -0.2407 -0.2593
16387W        W32861   2.609   7.487  13.548 -0.3706 -0.0012 -0.2501
16388W        W32862  18.339  14.320   0.249 -0.0258 -0.0371  0.2220
16389W        W32863  10.462   1.999   3.592  0.0063 -0.0310 -0.1467
16390W        W32864   9.278  13.341   4.301 -0.1693 -0.0911 -0.0623
16391W        W32865  15.480   6.775   2.055  0.3776  0.0949 -0.1012
16392W        W32866   6.963   4.369   0.561  0.0484  0.1935 -0.1497
16393W        W32867  11.401  15.384   5.027 -0.0184  0.3266  0.1999
16394W        W32868   0.250  15.270  14.165  0.3562 -0.2902 -0.0939
16395W        W32869   2.192   6.553   2.496 -0.0754  0.2360  0.3334
16396W        W32870  14.389   3.999   0.848  0.1150 -0.1718  0.0807
16397W        W32871  16.196  16.511  13.688 -0.0626 -0.0333  0.2462
16398W        W32872  17.031   7.375  12.414 -0.0580  0.0936  0.2322
16399W        W32873  13.188  13.295   0.083  0.2330 -0.1115  0.0296
16400W        W32874   1.935   2.629  11.310  0.2000  0.2375  0.0289
16401W        W32875  15.906  17.212  12.032 -0.0282 -0.0358 -0.0832
16402W        W32876   6.962   9.343  13.786 -0.0636  0.1265 -0.1894
16403W        W32877  13.361   2.984   9.698  0.2172  0.0508  0.1541
16404W        W32878  18.472  13.977   1.642  0.0748  0.1838  0.1994
16405W        W32879   1.505   6.891   1.439  0.1966 -0.0201  0.0209
16406W        W32880   7.139  12.353  15.082  0.2416  0.3763  0.0348
16407W        W32881   2.905   8.050  12.881  0.4346  0.2502  0.0288
16408W        W32882   5.206   5.295   0.127  0.0372 -0.4723  0.3237
16409W        W32883   7.784  15.626  12.401 -0.0889 -0.1003  0.0047
16410W        W32884   7.143   4.157   3.525  0.0961  0.0118  0.1836
16411W        W32885   4.787   5.024  15.968 -0.3254 -0.2536  0.0687
16412W        W32886   9.510  18.140   3.470  0.3693 -0.1263  0.1786
16413W        W32887  12.340   1.751   4.582 -0.1535  0.0358  0.1243
16414W        W32888   5.599   2.378   4.795 -0.1383 -0.1623 -0.2059
16415W        W32889   5.864  11.164  10.850  0.2463 -0.2900 -0.2114
16416W        W32890  17.050   0.858  15.082 -0.1101  0.1086  0.0119
16417W        W32891   0.234   0.673  12.295  0.0010  0.0428 -0.2406
16418W        W32892   3.074   4.804   0.693  0.0259  0.1264 -0.2124
16419W        W32893  13.553   1.132  14.215 -0.0029  0.0635  0.2335
16420W        W32894  11.037   9.382  15.883 -0.1439 -0.1169  0.1375
16421W        W32895   9.731  13.324   4.972 -0.1992 -0.0626  0.2710
16422W        W32896  15.002  12.778   1.345  0.0742  0.2706  0.0350
16423W        W32897  11.312  13.370  14.427 -0.3242 -0.1947  0.3717
16424W        W32898   3.534  15.733  14.953  0.0066  0.1229 -0.1359
16425W        W32899  11.504  12.902  14.409 -0.1397 -0.0071  0.3291
16426W        W32900  11.913   5.339  12.473  0.0357  0.0372 -0.0402
16427W        W32901   6.566  16.536   5.130  0.0860 -0.1220  0.2078
16428W        W32902   0.649  13.837  15.394  0.3582  0.0808  0.0228
16429W        W32903   1.081  11.018   5.072  0.2411 -0.1551  0.0935
16430W        W32904  12.376   9.788  12.281 -0.0537 -0.2238 -0.2113
16431W        W32905  12.275  12.245  14.280 -0.0407 -0.1709  0.0318
16432W        W32906  17.538   1.402  12.885 -0.1534  0.0949 -0.0993
16433W        W32907  16.938   6.668   1.358 -0.0203  0.2784  0.1825
16434W        W32908   7.003   4.379  14.889 -0.2044 -0.0751  0.1828
16435W        W32909  13.215   2.936   2.430  0.3379  0.0704  0.0879
16436W        W32910  16.120  12.373  12.935 -0.0481  0.1548 -0.0711
16437W        W32911   6.826   4.296   4.462 -0.2452  0.1260 -0.1475
16438W        W32912   0.387  17.574  11.376  0.0642  0.0288 -0.0059
16439W        W32913   7.096   3.865  13.505  0.2129 -0.1534  0.4016
16440W        W32914   7.428   9.963  11.338 -0.1909  0.3597  0.0614
16441W        W32915  15.813   2.329   2.210  0.1503  0.2414 -0.1249
16442W        W32916   9.615  14.848   2.106  0.1273 -0.2693  0.0207
16443W        W32917   1.610  18.094   0.433 -0.0451  0.2824 -0.2985
16444W        W32918   4.713   5.488   3.858  0.3555 -0.4220 -0.0423
16445W        W32919  12.227  10.022   3.244  0.0538  0.1793 -0.1569
16446W        W32920   5.267   0.861   1.246  0.3060  0.0501  0.0134
16447W        W32921  11.703  11.754   1.640 -0.1100  0.0491 -0.2830
16448W        W32922  11.324   8.598   6.035  0.3592  0.0760 -0.0195
16449W        W32923  17.961  10.638  11.878  0.0328  0.1281 -0.1474
16450W        W32924  16.210  12.449   3.700  0.0795  0.2080 -0.2060
16451W        W32925   0.196  10.730   2.362  0.1743  0.0921  0.3372
16452W        W32926  12.542  18.449   1.144 -0.1703  0.0008  0.0271
16453W        W32927  12.154   7.473  12.890  0.0177  0.2258  0.2570
16454W        W32928  13.034  14.868   1.061 -0.2424 -0.2828 -0.0003
16455W        W32929  14.248   5.219   4.267  0.1239  0.0699 -0.0244
16456W        W32930   8.343  11.301  11.639 -0.1920  0.2141  0.2342
16457W        W32931   9.190   7.906   4.010  0.0794  0.3573  0.0444
16458W        W32932  12.730   2.672  12.247  0.0666 -0.2695 -0.0712
16459W        W32933   0.007   3.155   2.262  0.0299  0.0516  0.1690
16460W        W32934   5.981  15.800   2.451  0.0892  0.0713  0.2973
16461W        W32935   7.997  13.166   0.543 -0.0292 -0.0133 -0.3862
16462W        W32936   2.871   7.007   4.553  0.1732 -0.1603  0.4366
16463W        W32937   9.477   6.907   5.227 -0.0631  0.0823  0.0615
16464W        W32938   8.612  14.308   3.755 -0.2769 -0.0002  0.0662
16465W        W32939   1.524  11.350  13.803 -0.0844  0.0430  0.0205
16466W        W32940   8.684   2.943  15.211 -0.0517 -0.0653  0.1017
16467W        W32941   2.673   9.557   2.770  0.2764  0.2689 -0.2590
16468W        W32942  14.839  14.608   0.124  0.1750 -0.0743  0.3746
16469W        W32943  13.159   7.858   0.663 -0.1026 -0.1180  0.1901
16470W        W32944   8.682   4.417   0.888 -0.2435 -0.0441 -0.1740
16471W        W32945   3.434  17.141   3.825  0.2054  0.3353  0.2117
16472W        W32946   2.434  14.305   0.343  0.0281 -0.1255  0.1542
16473W        W32947   8.137   2.866   3.732 -0.1049 -0.1943 -0.0058
16474W        W32948  15.867  10.550   0.446 -0.1026 -0.2522 -0.1394
16475W        W32949   6.143   4.348  11.390  0.2685 -0.1851 -0.0306
16476W        W32950   7.372   9.903   3.803  0.0427  0.0409  0.1884
16477W        W32951  11.439   3.398  14.690  0.2150 -0.2500  0.3314
16478W        W32952   6.405   0.190  15.701  0.2352  0.1291 -0.0975
16479W        W32953   5.246   4.328   0.176  0.2569 -0.3470  0.1935
16480W        W32954   6.174   0.920   2.150 -0.0490  0.0182 -0.0328
16481W        W32955   4.092  13.781   0.357 -0.1687  0.0822  0.1528
16482W        W32956   2.285  16.286  15.051  0.2732  0.0607  0.3716
16483W        W32957  10.386  12.310   2.748 -0.1064 -0.0915 -0.0029
16484W        W32958   7.728  14.898   1.345  0.2195 -0.1695  0.1514
16485W        W32959  15.338   6.396  15.416 -0.1012  0.0760 -0.1175
16486W        W32960   4.874  17.895   2.240 -0.0892  0.0126  0.2255
16487W        W32961   7.134   6.756  11.186 -0.2035  0.5460  0.1741
16488W        W32962   3.348  12.229  15.685 -0.0995 -0.3128 -0.2330
16489W        W32963  17.415   9.828   0.682 -0.0631  0.1364 -0.1813
16490W        W32964   9.886  17.845   3.473 -0.0796 -0.1475 -0.1225
16491W        W32965   8.930   4.914   4.019  0.1969 -0.1176 -0.2359
16492W        W32966   5.338  13.548   2.682  0.0376 -0.0681  0.1393
16493W        W32967  12.556   3.676  14.170 -0.1932 -0.1900  0.0358
16494W        W32968  11.613   9.852   1.783 -0.1085 -0.0469 -0.0961
16495W        W32969  17.181  14.814   5.578  0.1052  0.1106  0.0670
16496W        W32970   9.131  14.399  10.391 -0.0317 -0.1224  0.0127
16497W        W32971  14.276   6.855   1.020 -0.2577  0.1555  0.0604
16498W        W32972  15.380  14.803  14.003  0.3293  0.1721 -0.0920
16499W        W32973  16.945  14.604   3.889 -0.3222  0.1110  0.1630
16500W        W32974   9.432  12.698   0.634 -0.2023  0.0864 -0.1460
16501W        W32975  15.276   6.052  11.275  0.0355  0.0781  0.0657
16502W        W32976  12.318  14.918   5.688 -0.0969 -0.0987 -0.4659
16503W        W32977   3.480   0.980  15.950 -0.2221  0.0794  0.2383
16504W        W32978  12.388  15.266   3.659 -0.1491  0.0803 -0.2429
16505W        W32979   2.752  11.807  11.521  0.0002 -0.1600 -0.3317
16506W        W32980   6.047   0.082   0.211  0.2131  0.1483  0.3369
16507W        W32981   0.238   4.860  10.993 -0.0978  0.2464 -0.0414
16508W        W32982  16.731  12.365  11.702 -0.0329  0.1701  0.3531
16509W        W32983   6.099   0.905  14.161  0.0393  0.0995 -0.1354
16510W        W32984  17.222   8.250   2.057 -0.0162  0.1622 -0.1450
16511W        W32985  13.955  12.843   5.220 -0.0799  0.5341 -0.0218
16512W        W32986  12.645  10.580   1.354 -0.1735  0.0534  0.2577
16513W        W32987   8.408   9.736  14.809 -0.1193 -0.0818 -0.1709
16514W        W32988   5.341   8.440  12.375  0.1163 -0.2206  0.1979
16515W        W32989  16.772  13.980  12.376 -0.2552  0.0710  0.1191
16516W        W32990  18.219   8.368  10.957 -0.1611 -0.1943 -0.1141
16517W        W32991   5.794  14.154   0.949 -0.4639  0.0117 -0.3528
16518W        W32992  14.852   4.895  15.726  0.3991 -0.0639 -0.3079
16519W        W32993   5.908  12.245  15.266 -0.0842  0.1051  0.0478
16520W        W32994  18.284   8.988  11.606 -0.0305 -0.0645 -0.0198
16521W        W32995   5.113   5.098  13.443  0.2790  0.3828 -0.0965
16522W        W32996  17.296   2.017   3.948  0.2424  0.4119  0.2047
16523W        W32997   1.592   6.702   2.705  0.2537 -0.0879 -0.0641
16524W        W32998  13.777  18.312  14.126  0.0851  0.0032 -0.1389
16525W        W32999   6.696   2.121  12.879  0.0566  0.0328 -0.3574
16526W        W33000   7.160  14.701   5.512 -0.0538  0.1790  0.2180
16527W        W33001  17.248  13.007   0.848  0.2913 -0.0617 -0.2877
16528W        W33002   7.413   5.031  14.212  0.0371 -0.0630  0.0326
16529W        W33003   6.436  17.103  12.049 -0.0196  0.0557  0.0042
16530W        W33004   1.313   1.249  11.650  0.0707  0.0143  0.2758
16531W        W33005  13.568   0.763  12.985 -0.0580 -0.1646 -0.3797
16532W        W33006  10.316  14.178   2.326  0.0042 -0.2471 -0.3313
16533W        W33007   8.128   4.370  15.490 -0.0865 -0.3015  0.0478
16534W        W33008   4.814   8.498  14.941 -0.4705  0.1316  0.1544
16535W        W33009  18.359  12.306  14.250 -0.0341 -0.1184  0.0923
16536W        W33010  13.240   8.888   2.354 -0.2933  0.2722  0.1883
16537W        W33011   0.366   1.334   3.068  0.2534  0.1165 -0.2141
16538W        W33012   1.238   8.053  12.708 -0.0864 -0.0618 -0.0324
16539W        W33013   1.794  16.234   4.091  0.0262 -0.1970 -0.3085
16540W        W33014  15.037  16.606   0.799  0.0584 -0.3775 -0.3204
16541W        W33015   7.104  13.132  15.957 -0.0119  0.0695  0.0891
16542W        W33016   9.761   1.477   0.360  0.2341 -0.5116 -0.2724
16543W        W33017  10.726   6.247  13.344 -0.0293 -0.1005  0.2384
16544W        W33018  17.722   3.297   1.636 -0.1993  0.1908 -0.4058
16545W        W33019   0.512   9.201   4.162 -0.2303 -0.2988 -0.1199
16546W        W33020  14.916   4.576  12.575 -0.1565 -0.2562 -0.0807
16547W        W33021   4.971  14.234   4.092 -0.1041 -0.0198 -0.0442
16548W        W33022   4.010  15.666  10.872 -0.2202  0.3868 -0.1941
16549W        W33023  10.148   2.747  15.749  0.1239 -0.0434  0.0519
16550W        W33024   8.617   2.118  12.008  0.0675  0.2467 -0.0451
16551W        W33025   8.106  14.787   2.655  0.0926 -0.0484  0.0643
16552W        W33026  15.360  15.126  14.989  0.2456  0.0665  0.0280
16553W        W33027   8.023   1.853  13.774  0.3834 -0.2276 -0.2027
16554W        W33028   1.812  10.862  14.282  0.3539 -0.0521 -0.0372
16555W        W33029   2.864  10.297  15.055 -0.1337 -0.1529  0.0052
16556W        W33030   8.635   3.485   1.066 -0.1188  0.0913 -0.0345
16557W        W33031   1.820  10.543   0.807 -0.3120 -0.3118  0.0881
16558W        W33032   6.647  16.535  11.039 -0.1441  0.1071  0.0831
16559W        W33033  17.838   3.063   3.221  0.1552  0.1688  0.0454
16560W        W33034  18.318   0.257  15.804  0.2270  0.1201 -0.0602
16561W        W33035   4.666  12.840  13.623  0.0689  0.0153 -0.3305
16562W        W33036  17.292   2.098   0.694  0.2091 -0.2365 -0.0396
16563W        W33037   4.892  10.973  14.084  0.0250  0.0408  0.3573
16564W        W33038   4.094   5.614  13.941  0.0160 -0.2573 -0.0181
16565W        W33039   7.445   2.608  14.864 -0.1426 -0.1181 -0.0615
16566W        W33040   3.297  15.890  15.949 -0.0373 -0.1589 -0.1394
16567W        W33041   3.576  14.865  15.082 -0.1310 -0.0741 -0.2220
16568W        W33042  11.252  12.297  12.588 -0.1137 -0.1758  0.2976
16569W        W33043   2.604  17.361   3.644 -0.1372  0.3043 -0.3422
16570W        W33044   7.408  12.798   0.808 -0.0645  0.0826 -0.2469
16571W        W33045  11.253   4.908  15.200 -0.2721  0.0784  0.0875
16572W        W33046  13.143  17.043   1.106  0.0557 -0.2613  0.1351
16573W        W33047  16.255  10.109   4.261  0.0922 -0.0585  0.2193
16574W        W33048  16.295   3.231   0.140 -0.1272  0.0041  0.4145
16575W        W33049  16.929   0.803   0.002 -0.1009 -0.1077 -0.0067
16576W        W33050  16.264  11.779  13.271 -0.1125  0.1038 -0.2718
16577W        W33051   6.884   8.377   1.045 -0.0250 -0.1301 -0.2087
16578W        W33052   7.928  11.366   1.968  0.0738 -0.5535 -0.0880
16579W        W33053   7.351  12.008   0.069 -0.1700  0.1187 -0.1875
16580W        W33054  17.543  11.048   3.053  0.1617 -0.0835 -0.0584
16581W        W33055  15.170  11.700   0.299  0.2870  0.0918 -0.1438
16582W        W33056  16.981   3.106  12.668  0.2594  0.1720 -0.1386
16583W        W33057   4.761   1.258  10.959 -0.2196  0.0921 -0.3434
16584W        W33058  17.466  15.331  13.727 -0.0325  0.0527 -0.0417
16585W        W33059  12.837   2.889   2.099  0.0480 -0.0249 -0.1577
16586W        W33060   7.429   6.246   5.963  0.1146  0.0801 -0.0668
16587W        W33061  10.568   0.724  15.866  0.1600  0.2772  0.0652
16588W        W33062  15.207   0.778  10.356  0.2502 -0.0381  0.1714
16589W        W33063   4.200  14.281   0.559 -0.1748 -0.0318 -0.0591
16590W        W33064  13.293  18.162   4.017  0.0072  0.1248  0.3673
16591W        W33065  10.211   5.345  13.344 -0.0624 -0.2789  0.4046
16592W        W33066   1.892   9.819   5.456 -0.0358  0.2448  0.3236
16593W        W33067   9.722  17.256   2.053  0.0755  0.1815  0.0472
16594W        W33068   4.972   3.415   3.808  0.0981 -0.1756 -0.2266
16595W        W33069   6.196   4.607   5.877 -0.0188  0.1541  0.0797
16596W        W33070   7.063   9.910   2.772  0.0209 -0.2100 -0.0265
16597W        W33071   7.230   6.902   0.582  0.0358 -0.0745  0.1474
16598W        W33072  14.518  11.898  12.629  0.4211  0.1081  0.3718
16599W        W33073   2.406   5.489   4.601 -0.3884 -0.1780  0.1763
16600W        W33074   9.291   0.565  13.771 -0.0013 -0.1264 -0.0395
16601W        W33075   4.106  15.433   5.248 -0.3000 -0.0201  0.0115
16602W        W33076  14.173  14.914  12.371  0.1830 -0.1117  0.0893
16603W        W33077  14.429   7.477  13.338  0.1654  0.1407  0.3006
16604W        W33078  15.705   6.490   0.615 -0.1442 -0.0460  0.0701
16605W        W33079  10.297  17.171   4.010 -0.0781  0.0912 -0.2500
16606W        W33080  12.980   5.416  14.999  0.0879 -0.0047  0.1624
16607W        W33081  11.763   9.306  11.182 -0.1266  0.1843 -0.1819
16608W        W33082  11.205   8.620  15.598 -0.1057 -0.1324 -0.2259
16609W        W33083   7.273   0.622   4.565 -0.0254 -0.3012 -0.0044
16610W        W33084   4.330  17.992   0.375 -0.1592  0.1696  0.2055
16611W        W33085  17.302  16.760   0.466 -0.4193 -0.1087 -0.0830
16612W        W33086   6.248  18.085   2.707  0.0166 -0.3839  0.1031
16613W        W33087   8.342   0.245  14.170 -0.3120  0.1938  0.1361
16614W        W33088  17.281  10.572   3.593  0.1071 -0.1433  0.0452
16615W        W33089  16.349   4.693   1.935  0.1292  0.1428 -0.0176
16616W        W33090   1.041   7.534  12.512 -0.0609  0.1369 -0.0600
16617W        W33091   4.606  14.508   3.868  0.5934  0.1846 -0.2195
16618W        W33092   2.694  10.084   2.308 -0.1935 -0.0032 -0.3167
16619W        W33093  18.452   1.165  15.318  0.0445  0.1529  0.0297
16620W        W33094   1.668   4.979  14.797 -0.1849 -0.1407 -0.1880
16621W        W33095  13.056  14.162   4.770 -0.1052  0.0102  0.3199
16622W        W33096   5.599  16.887  15.754 -0.0718  0.2764 -0.2603
16623W        W33097   8.976   5.354   0.936 -0.0616  0.1091  0.2610
16624W        W33098   4.635  17.322   2.635 -0.1138 -0.1026 -0.0731
16625W        W33099   9.564   0.703  15.771  0.0822 -0.1662  0.0429
16626W        W33100   0.190   9.641  15.621 -0.2004  0.0944  0.2098
16627W        W33101  13.939   9.019   0.611  0.2322 -0.2539  0.0745
16628W        W33102  12.541   6.072   0.473 -0.1846  0.0487 -0.1903
16629W        W33103   3.131   6.590  12.165  0.1203 -0.0432  0.3076
16630W        W33104   1.382  13.786  13.634  0.0282  0.2163 -0.2547
16631W        W33105  10.931   2.568   4.816  0.2058  0.1817  0.0792
16632W        W33106  10.261   7.087  11.889 -0.0168 -0.1349 -0.0139
16633W        W33107  14.455   6.610   5.075 -0.2660 -0.1101  0.1804
16634W        W33108   6.406  15.435  13.541 -0.2991 -0.1140 -0.1877
16635W        W33109   4.501  13.838   5.408 -0.0301  0.2273  0.1348
16636W        W33110   8.922  15.476   4.996 -0.1781 -0.1553  0.2097
16637W        W33111   9.036   1.751  15.054  0.1186 -0.2945  0.3428
16638W        W33112   6.779   6.254   1.645 -0.0938  0.2146  0.2084
16639W        W33113   3.982  10.918  14.823 -0.0491  0.0301 -0.3878
16640W        W33114   2.116   0.533   1.148 -0.0528  0.1719  0.3554
16641W        W33115  14.877  15.828   1.870  0.2099 -0.0392  0.0006
16642W        W33116   6.430   6.162   4.979  0.0522  0.3516 -0.3041
16643W        W33117   8.701  16.030   5.051 -0.1412 -0.1491  0.1459
16644W        W33118  14.016  13.574   3.875 -0.0688  0.0157 -0.3190
16645W        W33119   1.799  15.786  11.342  0.2288 -0.2783 -0.1461
16646W        W33120  18.438  13.119  12.627 -0.2021 -0.2225  0.0640
16647W        W33121  17.234  13.841   4.250  0.2545 -0.3289 -0.1278
16648W        W33122  15.982  11.164   2.543 -0.1056  0.0053 -0.1157
16649W        W33123  16.551  10.902  14.683  0.1371 -0.0637 -0.3616
16650W        W33124  17.691   4.772   5.891 -0.3674  0.0602 -0.1042
16651W        W33125   3.184   3.991   0.701  0.1620  0.0092 -0.1845
16652W        W33126   7.311  13.863  13.209 -0.3072 -0.4835 -0.1032
16653W        W33127   7.560   6.582   3.169  0.1804  0.1311  0.1323
16654W        W33128  11.140  17.613  12.196  0.0358 -0.2376 -0.2213
16655W        W33129   4.203  11.579   1.639 -0.4945  0.3728  0.2560
16656W        W33130   7.176  13.064  12.827 -0.0863 -0.0649  0.0429
16657W        W33131   0.913   4.004  15.427  0.0775 -0.0154 -0.2701
16658W        W33132  15.682  13.497  14.411 -0.2006  0.0584  0.1622
16659W        W33133   7.972   4.686   3.897 -0.0539 -0.1235  0.2104
16660W        W33134  15.934   2.793   2.187 -0.0354  0.0163 -0.3365
16661W        W33135   5.797   1.817  14.408 -0.2159 -0.0913  0.1593
16662W        W33136   1.467  11.951   2.708 -0.0038 -0.2062 -0.1728
16663W        W33137   3.360  18.332   2.967  0.1127 -0.0237 -0.0629
16664W        W33138  17.455  13.723   1.506  0.0501 -0.2539 -0.0956
16665W        W33139   1.205  17.015   2.495  0.0255 -0.0324  0.1415
16666W        W33140  10.843  15.179   2.212 -0.0122 -0.3566 -0.2305
16667W        W33141   6.187   9.716  14.953 -0.2561 -0.0673 -0.0908
16668W        W33142   1.038  16.273   2.989 -0.2932 -0.0013 -0.0618
16669W        W33143   4.217   6.619  15.705 -0.0958 -0.0558  0.4687
16670W        W33144   4.783   4.888   3.396  0.0052  0.2280 -0.0524
16671W        W33145   8.687   0.002   0.612  0.4985 -0.0563 -0.0065
16672W        W33146   0.107   7.310  15.370  0.0929  0.1680  0.1696
16673W        W33147  16.829  16.575  12.168 -0.1658  0.3626 -0.3470
16674W        W33148  14.268   8.658   0.390 -0.0545 -0.1742 -0.0189
16675W        W33149  16.156  15.252  14.493 -0.0365 -0.2609  0.0456
16676W        W33150   9.550  18.257  12.341 -0.1031  0.0521 -0.0855
16677W        W33151   6.061   2.243  11.275 -0.2596  0.1605  0.0619
16678W        W33152   2.429   1.654   4.793  0.0129 -0.3154  0.2987
16679W        W33153   7.497   6.479  11.493 -0.1696 -0.2117  0.3393
16680W        W33154  10.773   0.413  11.641 -0.3380 -0.0473 -0.0500
16681W        W33155  15.479   7.863  11.316  0.2954  0.1326 -0.0637
16682W        W33156   8.257   5.269  13.508  0.0838 -0.1505 -0.2399
16683W        W33157  17.486   9.122  15.676 -0.2246  0.2445  0.0638
16684W        W33158  14.599  11.343  12.657  0.1363  0.0368  0.2218
16685W        W33159   3.706   4.920   3.270  0.2670 -0.2776 -0.3464
16686W        W33160  16.637   7.627   3.829 -0.2114 -0.2347 -0.0845
16687W        W33161  15.790   2.208   3.461 -0.0612 -0.0860  0.2241
16688W        W33162  16.061  16.115  14.469  0.1960 -0.1179 -0.0629
16689W        W33163  16.262  15.050  11.405 -0.2061 -0.2702 -0.2955
16690W        W33164   6.063   7.761   3.208 -0.0769  0.1229 -0.1928
16691W        W33165  15.558  12.510   2.599  0.2061  0.0526  0.1055
16692W        W33166   6.990  13.323   1.814 -0.2068  0.0196 -0.0369
16693W        W33167  14.065   1.212  14.129  0.2853 -0.1513  0.1514
16694W        W33168   4.111   9.780   4.496  0.0929  0.1430 -0.2350
16695W        W33169   1.394   1.604  15.234  0.2089  0.1425  0.2522
16696W        W33170  11.154   7.773  15.081  0.1657 -0.3382  0.0334
16697W        W33171   3.032  13.251  13.468  0.0499 -0.0550  0.0368
16698W        W33172  14.519  16.804   3.863  0.2046  0.2184  0.1644
16699W        W33173  12.483   8.878   4.144  0.0480  0.0584  0.0478
16700W        W33174  12.407   6.593  13.094 -0.2097  0.2484  0.2075
16701W        W33175   8.671   7.183   2.891 -0.2059 -0.3370 -0.1859
16702W        W33176   5.301  12.475  13.376  0.1879 -0.1112 -0.0369
16703W        W33177   9.450  14.433  14.308  0.1930 -0.4258  0.0666
16704W        W33178  15.697  16.657   5.856 -0.0838 -0.0503  0.2180
16705W        W33179  16.881  18.170   0.680  0.0636  0.1237  0.0456
16706W        W33180  12.992   0.334  11.015 -0.1160 -0.1219  0.3363
16707W        W33181   2.748   7.127  15.419 -0.1947  0.2143 -0.3507
16708W        W33182   4.957   8.904   2.437 -0.1163  0.1197  0.0953
16709W        W33183  15.369   9.061   5.166 -0.0630 -0.2304 -0.0318
16710W        W33184  17.342   5.632  14.121 -0.0884  0.1862  0.1201
16711W        W33185  15.145   1.011   4.526 -0.1571 -0.0080 -0.0143
16712W        W33186  12.902   6.234  11.528  0.1065 -0.0443 -0.0456
16713W        W33187   6.029   6.196  12.708 -0.2137 -0.0661 -0.0441
16714W        W33188  11.434   7.799  12.590 -0.1706 -0.0200  0.3120
16715W        W33189  12.726   5.569   2.744  0.0651  0.3240 -0.2112
16716W        W33190   3.611   8.302   4.219 -0.2143  0.2045  0.3533
16717W        W33191  16.427   1.666   4.204  0.0158  0.2280 -0.2072
16718W        W33192   3.264   1.799   0.507  0.1949 -0.3320  0.0205
16719W        W33193   0.624   4.274  12.261  0.2904 -0.1809  0.0904
16720W        W33194  12.005   6.170  13.800 -0.0898 -0.1811  0.3794
16721W        W33195   7.551   6.336  15.902 -0.1464 -0.1137  0.0835
16722W        W33196  12.570   3.274  12.899  0.1696 -0.2482  0.0763
16723W        W33197  10.802   1.733  10.844  0.3058 -0.1155  0.1925
16724W        W33198   2.501  15.384   0.522 -0.0656  0.6081  0.1952
16725W        W33199   0.632  11.470  13.411 -0.1003  0.1569  0.2918
16726W        W33200   4.724  18.338  13.722 -0.0128  0.3903  0.0018
16727W        W33201   4.567   5.788  12.195 -0.0281  0.0114 -0.0246
16728W        W33202  15.464   1.300   5.342  0.0469 -0.3699  0.1291
16729W        W33203   4.586   5.903  15.806 -0.1293 -0.0813  0.1272
16730W        W33204  11.516   8.979  14.228 -0.0485 -0.5273 -0.0682
16731W        W33205   4.614  15.944   1.112  0.1048 -0.0016  0.1614
16732W        W33206   4.638  10.525   1.551  0.0049 -0.2113 -0.1787
16733W        W33207   1.697   5.696   4.684  0.1216  0.1902 -0.2064
16734W        W33208   5.820   2.134   3.500  0.2548  0.0810 -0.2436
16735W        W33209  16.533   3.517  10.937 -0.1228  0.1394 -0.2095
16736W        W33210   2.991  13.553   5.035 -0.3297  0.1364 -0.2868
16737W        W33211  17.591   1.456  13.961  0.2160 -0.0864 -0.0405
16738W        W33212  16.560   6.346  11.755  0.2001  0.2145 -0.0332
16739W        W33213  16.909  15.179  13.893  0.2623  0.1293  0.2800
16740W        W33214   5.006  17.940   1.420 -0.0520 -0.0842  0.0978
16741W        W33215   7.204   2.502   3.893 -0.2919  0.2913  0.2141
16742W        W33216   2.326   0.701  14.025  0.2838  0.2688  0.2620
16743W        W33217   6.493  16.559   2.145 -0.2822 -0.2826  0.1521
16744W        W33218  12.963   4.343  14.775  0.2779 -0.1376 -0.2541
16745W        W33219   0.458   4.479   3.963 -0.0432 -0.3521  0.1287
16746W        W33220   5.278   4.102   1.817  0.1587 -0.0081 -0.1832
16747W        W33221  15.439  11.085  15.645  0.3119 -0.3039  0.0123
16748W        W33222   9.875   8.952   0.743  0.2351 -0.2642 -0.1409
16749W        W33223  17.940   1.680   4.645 -0.0610  0.1479 -0.4047
16750W        W33224  14.549   4.875  14.393  0.1230  0.1813  0.3967
16751W        W33225   1.558  15.505  15.728  0.3376 -0.4305 -0.4603
16752W        W33226  16.855   1.958   0.359 -0.2347 -0.1501  0.2730
16753W        W33227   5.776  16.499   0.148  0.1886 -0.1021  0.0374
16754W        W33228  12.000  16.092   0.200  0.1080  0.3016  0.0053
16755W        W33229  10.700   2.167   0.888 -0.1133 -0.0293 -0.2172
16756W        W33230   8.119  15.180   2.284  0.0198  0.0528 -0.0400
16757W        W33231   6.024  11.816  14.074 -0.1426 -0.0649 -0.1073
16758W        W33232   4.932  12.468  12.193 -0.1560 -0.0452  0.0557
16759W        W33233  13.247   5.725   3.644  0.0289  0.0920  0.1142
16760W        W33234   3.105  12.184  14.690  0.1404  0.2651  0.0798
16761W        W33235  12.721  12.654  13.146 -0.2990  0.0529  0.0832
16762W        W33236   0.841   0.065  13.864 -0.3390  0.1783  0.1052
16763W        W33237   3.210  14.445  15.065 -0.0168  0.0666  0.2237
16764W        W33238  17.918  13.127  12.204  0.2433 -0.2801  0.2085
16765W        W33239   2.240   9.998   4.147  0.0470 -0.3670  0.0151
16766W        W33240   9.532   6.304   2.272 -0.3267 -0.1929  0.0755
16767W        W33241  12.586  16.621   2.454 -0.0385  0.0597  0.1537
16768W        W33242   7.743   3.502  15.349  0.0295  0.0480  0.3106
16769W        W33243  10.713   4.387  13.119 -0.1360  0.1482 -0.1749
16770W        W33244  12.417  14.549   1.813 -0.2147 -0.0953  0.1158
16771W        W33245   7.121   6.619  10.306 -0.0842 -0.1856  0.0360
16772W        W33246  15.345  16.341   2.760  0.2527  0.0002 -0.0413
16773W        W33247  14.558   5.364   2.220 -0.1494 -0.0282 -0.0738
16774W        W33248   9.449  15.850   1.050 -0.0118  0.2988  0.0395
16775W        W33249   2.552  10.396  15.521 -0.0885  0.0433  0.1839
16776W        W33250  12.582  15.712  15.385 -0.1606  0.0318  0.0294
16777W        W33251  14.825   8.609  14.295 -0.2617  0.1196  0.1885
16778W        W33252  13.620   4.472  13.060 -0.0307 -0.0376 -0.0356
16779W        W33253   2.950  10.935  11.552  0.2253 -0.0569 -0.0733
16780W        W33254   2.817  16.657  13.075 -0.0857  0.0001 -0.0625
16781W        W33255  17.840  11.733  13.144  0.0660 -0.0199  0.1269
16782W        W33256   5.477  10.755   1.004  0.2424 -0.2661 -0.3236
16783W        W33257  16.889  15.795  14.116 -0.1462  0.0800 -0.1868
16784W        W33258  17.770   9.047   1.123 -0.2340 -0.2634 -0.1838
16785W        W33259   9.841  10.309  11.466 -0.0887 -0.0840 -0.1236
16786W        W33260  13.011  14.760   3.831 -0.0964 -0.0433  0.1791
16787W        W33261  17.885   3.468  11.946  0.3571  0.1830  0.0450
16788W        W33262  16.175   9.278  14.174 -0.0642 -0.2678  0.0488
16789W        W33263  18.096   2.295  12.509 -0.1710  0.1866  0.4412
16790W        W33264  17.871   8.180  10.134 -0.1757  0.0266  0.1329
16791W        W33265  13.500   7.805  13.109 -0.1578 -0.3381  0.0072
16792W        W33266  14.094   2.017   4.243 -0.2859 -0.1651  0.3627
16793W        W33267  13.639   5.147   3.302  0.1276  0.0455 -0.0206
16794W        W33268   8.923   1.107   5.234 -0.0105 -0.0482 -0.0841
16795W        W33269  14.234  16.660   5.264 -0.1515  0.1043 -0.1682
16796W        W33270   9.622   6.035  14.452  0.1520  0.3028  0.0812
16797W        W33271  11.576   3.850   1.169  0.1348 -0.0775 -0.1223
16798W        W33272   0.449  11.897  13.065  0.2511  0.1525  0.0460
16799W        W33273   7.917   5.932  14.039 -0.0374  0.1461 -0.0669
16800W        W33274   2.896  12.132  14.128  0.1525  0.4510  0.0900
16801W        W33275   1.174   1.827  12.670  0.0669 -0.1886  0.1949
16802W        W33276   0.426   0.377   0.780  0.0122 -0.1825  0.1089
16803W        W33277   7.854   5.106   4.699  0.0461  0.0824  0.0271
16804W        W33278  10.678  17.214   3.643 -0.0096  0.1461 -0.1944
16805W        W33279   1.314  16.808   5.242  0.3121  0.0264 -0.2547
16806W        W33280   8.268  17.349   4.990  0.1094 -0.2182 -0.0580
16807W        W33281   8.787   9.216  11.819  0.1635 -0.0813 -0.1569
16808W        W33282   4.162   1.623  14.597 -0.1110 -0.3585 -0.0411
16809W        W33283   9.303   7.680   0.303 -0.0214 -0.1855  0.0743
16810W        W33284   0.543  18.100   4.212 -0.1221 -0.1487  0.1920
16811W        W33285  17.428  11.675  13.458  0.1458 -0.1135 -0.2995
16812W        W33286  17.710  15.533   1.185 -0.2457 -0.0118  0.0602
16813W        W33287  14.131  10.583  11.390 -0.1843 -0.4390  0.0047
16814W        W33288   5.796  15.726  15.674 -0.3761  0.2047 -0.1678
16815W        W33289   1.558   5.809   4.182  0.0326  0.1803  0.1229
16816W        W33290   6.546  17.375   4.853 -0.3110 -0.2310 -0.0621
16817W        W33291  14.636  10.469  14.021  0.3266 -0.2694 -0.3914
16818W        W33292   2.883   0.405  13.201 -0.3467  0.1645  0.0338
16819W        W33293  10.209  15.674  12.283 -0.3677 -0.2033  0.0161
16820W        W33294  17.175  14.285  14.294 -0.2114 -0.2288  0.3745
16821W        W33295   3.495   9.285   2.058 -0.2550 -0.0390  0.0387
16822W        W33296   4.742   8.215   0.658 -0.0873 -0.1348 -0.2841
16823W        W33297  12.652   3.618  13.281 -0.0966 -0.0121  0.2080
16824W        W33298  17.213  18.478   2.791 -0.1269  0.1752  0.1462
16825W        W33299  10.309  14.419   1.099  0.0349 -0.1407 -0.1245
16826W        W33300   5.744  10.850   3.561  0.0480  0.1945  0.0142
16827W        W33301   3.839   3.818  10.978  0.1265  0.1575 -0.3058
16828W        W33302   6.177   6.225   1.494 -0.0253 -0.1599  0.0473
16829W        W33303  13.417  14.246  12.321 -0.0553  0.1315 -0.0488
16830W        W33304  17.751   6.930   2.191 -0.0817  0.2069 -0.1598
16831W        W33305  14.330  12.829  14.655 -0.2528 -0.1523  0.1821
16832W        W33306  17.846   2.878   0.671  0.0558 -0.0483  0.1586
16833W        W33307   9.363   8.968  12.950 -0.0262 -0.0419  0.0413
16834W        W33308   6.037   2.726   0.400  0.1037  0.1283  0.0707
16835W        W33309  15.847  13.195  12.710  0.0951  0.4872  0.0642
16836W        W33310   4.019   4.757  12.521  0.2510  0.1957  0.2349
16837W        W33311   1.164  13.369  13.768 -0.1983  0.5888 -0.1373
16838W        W33312   1.108   1.800   1.994 -0.1068 -0.0223 -0.2190
16839W        W33313   6.862  12.315  14.279  0.0869 -0.0819  0.1265
16840W        W33314   0.245   7.074  14.895 -0.1145 -0.3111 -0.0553
16841W        W33315   0.456   1.609  11.827  0.0747  0.0338  0.1964
16842W        W33316   3.924   7.648  11.549 -0.4584  0.1920  0.0723
16843W        W33317   5.199  12.874   0.775 -0.2530 -0.1587  0.2404
16844W        W33318  11.612   7.081  15.178  0.2548  0.0352  0.2681
16845W        W33319   6.255  11.972  11.858  0.2345  0.3031 -0.0661
16846W        W33320  11.584  14.676  11.588 -0.0488  0.0015  0.1032
16847W        W33321   6.551   0.761   0.789 -0.2375  0.0429 -0.0909
16848W        W33322  17.070  15.306   3.952 -0.0875  0.1380 -0.0749
16849W        W33323   9.191  18.076   4.490 -0.0764  0.2398 -0.0415
16850W        W33324  13.452   4.396  11.406  0.2850 -0.3497  0.0110
16851W        W33325  17.043   6.527  12.690  0.1236  0.1074 -0.1765
16852W        W33326  16.591   0.397  14.265 -0.1921 -0.1274  0.2768
16853W        W33327   6.599   3.751  14.854 -0.2646 -0.4095  0.1601
16854W        W33328  12.686   1.254  11.149  0.0663  0.1602 -0.1064
16855W        W33329  13.792   9.648  12.190 -0.0513 -0.2183  0.1891
16856W        W33330   6.807  14.389   4.228 -0.0106 -0.1247  0.2946
16857W        W33331   6.287  10.467  15.965 -0.0978  0.1538 -0.0074
16858W        W33332   9.080   4.993  14.750  0.1024 -0.0414  0.3021
16859W        W33333  14.916  15.573  12.826 -0.0275 -0.1186 -0.0122
16860W        W33334  13.767   8.483   0.362  0.0774  0.2494  0.1076
16861W        W33335  16.778  12.651  15.534 -0.1012  0.1861 -0.0923
16862W        W33336   2.032  17.383  13.916 -0.0671  0.2085 -0.0775
16863W        W33337   7.053   9.309   5.012  0.2913 -0.1253  0.1334
16864W        W33338   5.070  15.551  11.753  0.0800 -0.2612  0.0782
16865W        W33339   0.519  15.211   4.560 -0.2868 -0.1856 -0.1542
16866W        W33340  14.809  13.889   3.054 -0.1705  0.0830  0.0452
16867W        W33341  10.976  14.267   3.148  0.1047  0.2334 -0.0520
16868W        W33342   8.778   5.417  14.665 -0.0585 -0.1212 -0.2419
16869W        W33343   9.459   4.743  11.728  0.2616 -0.1402  0.1225
16870W        W33344   6.093   2.882   1.526  0.0276 -0.0021 -0.1877
16871W        W33345   8.926   5.911  11.395 -0.1083  0.2763  0.2890
16872W        W33346   2.529  16.776   2.457  0.0279  0.1062 -0.0224
16873W        W33347   6.535   2.910   1.023 -0.4398 -0.0380 -0.2619
16874W        W33348  13.617   9.968   3.955  0.0756  0.0466 -0.0002
16875W        W33349  13.654  13.142  15.848 -0.1135  0.1502  0.2778
16876W        W33350  12.715   7.675   5.552  0.1620  0.2281  0.3610
16877W        W33351  12.327  12.793   0.609  0.0153  0.0040  0.0798
16878W        W33352   2.726   1.643   0.298 -0.2174 -0.0004 -0.0013
16879W        W33353  17.140   8.657  13.469  0.0024 -0.1207  0.0194
16880W        W33354   8.595   7.023   0.329  0.0162 -0.0445 -0.1327
16881W        W33355   3.493   1.841  12.194  0.3732  0.0916  0.1049
16882W        W33356   2.106  13.841  11.917  0.2536  0.0986  0.2980
16883W        W33357   7.590  11.259   2.424  0.0879  0.0664 -0.3256
16884W        W33358   9.811   7.229  14.812  0.3920 -0.0866 -0.1455
16885W        W33359  15.553   9.107  13.819 -0.3344  0.1332  0.0300
16886W        W33360  14.886   8.131  15.891 -0.0400  0.1769 -0.0741
16887W        W33361   5.213  10.381   5.246  0.3860  0.1582 -0.0753
16888W        W33362  12.306   5.445   3.456  0.1201 -0.2864  0.1322
16889W        W33363   2.950  14.734   5.416 -0.0188 -0.0986 -0.2802
16890W        W33364   8.893   4.425   3.862 -0.1579 -0.3930 -0.0922
16891W        W33365   4.069   7.465  15.719  0.2237  0.1567 -0.2063
16892W        W33366   5.779   0.654  15.096  0.0627 -0.2257  0.1082
16893W        W33367  12.172   7.480   4.243  0.2060  0.1850 -0.0079
16894W        W33368  10.396  18.013  15.521 -0.1608 -0.0568  0.0218
16895W        W33369  17.539  17.985   1.277  0.0433  0.0214  0.3052
16896W        W33370  18.162  16.380   2.998 -0.0093  0.0639 -0.1750
16897W        W33371  14.996   2.048  12.225 -0.0111  0.0364 -0.4265
16898W        W33372  17.484  11.591   4.235  0.1393 -0.0233  0.0531
16899W        W33373   3.174   4.520  10.759 -0.1147  0.0592  0.1006
16900W        W33374   3.486  16.259  15.634  0.1093  0.4130  0.4688
16901W        W33375   5.272   9.259  14.869 -0.3231  0.0954 -0.1003
16902W        W33376   8.293   8.048  14.543  0.2087 -0.1826 -0.0865
16903W        W33377  16.947   5.532  12.096 -0.0585  0.1527 -0.0875
16904W        W33378  10.187   4.463  14.507  0.1288 -0.1037  0.0704
16905W        W33379   7.500  17.834  14.715  0.0493 -0.0499 -0.2344
16906W        W33380  11.482  13.175  12.998 -0.1034 -0.0969  0.5299
16907W        W33381  14.600  14.320   5.905 -0.0588  0.0519  0.2097
16908W        W33382  16.819  15.328   0.797 -0.1777  0.0725 -0.2380
16909W        W33383  15.050  16.998  15.028  0.0924 -0.0506 -0.0464
16910W        W33384  17.604   8.629   4.827  0.0586  0.0336  0.0619
16911W        W33385   9.550  11.617   3.510  0.0614  0.0143 -0.2768
16912W        W33386   7.526  17.963   1.993 -0.0655  0.1501  0.0021
16913W        W33387  12.392   8.373  15.631 -0.0532 -0.2298 -0.2715
16914W        W33388  15.537  16.053  15.594 -0.1799  0.1935 -0.2441
16915W        W33389   2.481  10.780   0.089 -0.1739 -0.1555  0.1198
16916W        W33390  10.768   0.262  12.956 -0.2280  0.0938 -0.0123
16917W        W33391  18.233  17.080   1.093 -0.0143 -0.1030 -0.0924
16918W        W33392  14.799  16.668   1.223  0.2445  0.5060 -0.0132
16919W        W33393  13.501  10.978  12.347 -0.0155  0.1020  0.1425
16920W        W33394   4.278  10.867  11.308 -0.1836  0.1994 -0.0165
16921W        W33395  12.960   3.653  12.885 -0.2751  0.0627 -0.1911
16922W        W33396   8.842  16.303  11.172  0.3627 -0.0976  0.3022
16923W        W33397  17.993  16.195   4.244 -0.3216  0.0478 -0.3558
16924W        W33398   4.821   7.673   0.914  0.0875  0.0347  0.1081
16925W        W33399  10.590   1.135   4.988 -0.4322  0.2481 -0.0809
16926W        W33400  15.746   3.608   2.242  0.1409  0.0365  0.0217
16927W        W33401  15.295   9.589   3.938  0.2831  0.3819 -0.0115
16928W        W33402   0.345  15.138   0.825 -0.1103  0.1724  0.1507
16929W        W33403  11.423  13.195   5.394 -0.0607  0.0906  0.0046
16930W        W33404   1.784   5.578   1.050 -0.2186 -0.3854 -0.0454
16931W        W33405  14.539   2.577   3.607 -0.0817  0.0036 -0.1693
16932W        W33406  17.550   2.508  14.723 -0.0671  0.2397 -0.0985
16933W        W33407   5.308  11.486  14.847 -0.6082 -0.0103  0.1934
16934W        W33408  16.741   7.432  15.577  0.2912  0.1111 -0.0316
16935W        W33409  11.812   2.085  14.530  0.0290 -0.3131  0.1838
16936W        W33410   5.938  15.852  10.859 -0.1458  0.1610  0.1603
16937W        W33411   8.456  15.241  15.857  0.0391  0.0948  0.0353
16938W        W33412  12.706  12.459   1.795  0.0297  0.0387 -0.0330
16939W        W33413  10.119   7.450   6.409 -0.0528 -0.0685 -0.2833
16940W        W33414  17.077  11.793   5.781 -0.2844 -0.0167  0.1276
16941W        W33415  17.223   4.310  13.568  0.2434  0.1436 -0.1264
16942W        W33416  11.225   3.161   1.664 -0.2639 -0.0209 -0.1221
16943W        W33417   8.354  10.561  13.750 -0.2272 -0.0992 -0.1571
16944W        W33418   8.317  11.606   2.672  0.2732 -0.0077 -0.0022
16945W        W33419  13.866  12.438  12.698 -0.2432 -0.1384 -0.3180
16946W        W33420  14.988  16.972   2.350  0.3456 -0.3026  0.1846
16947W        W33421  10.698   7.019  15.097 -0.2416  0.3307 -0.1149
16948W        W33422   7.811   2.775  11.767 -0.1472  0.1229  0.2161
16949W        W33423  18.419  14.067   3.869 -0.1747  0.2035  0.1775
16950W        W33424   7.814  17.356  12.876 -0.1220  0.2464  0.1411
16951W        W33425   2.482  11.192   1.191  0.1112 -0.3068 -0.0735
16952W        W33426  11.649   4.965  14.857  0.1732 -0.0921  0.1588
16953W        W33427  12.546  15.266   6.001 -0.0137 -0.1427 -0.1584
16954W        W33428   0.689   2.062   0.763 -0.0668  0.1194  0.2191
16955W        W33429   5.598  12.412   5.070  0.2781  0.2377 -0.2368
16956W        W33430   9.111   3.750   0.915 -0.0649  0.0198 -0.2267
16957W        W33431  13.862   8.648   2.407  0.0964  0.1836 -0.0466
16958W        W33432   4.331  14.457  13.111  0.0450  0.1095 -0.1355
16959W        W33433   1.655  13.356   3.220  0.0669  0.2853 -0.1238
16960W        W33434  10.867  16.780  15.303 -0.1027  0.0242 -0.0409
16961W        W33435  14.134   6.475   1.499 -0.1120  0.1857  0.1722
16962W        W33436  14.035  11.986   1.036 -0.1444 -0.1416  0.0348
16963W        W33437   3.392  17.994   5.148 -0.2950  0.1003  0.1486
16964W        W33438   4.762   3.778  15.260  0.0725 -0.2378  0.1216
16965W        W33439   9.850   8.148   5.693  0.1263  0.1027 -0.3307
16966W        W33440   6.257  16.835  14.958  0.1149 -0.0225 -0.0982
16967W        W33441   8.492  15.628  12.823  0.0090  0.0645 -0.1143
16968W        W33442   8.327   8.061  15.596  0.2233  0.3662  0.0919
16969W        W33443  17.129   5.675  14.939  0.2913 -0.1561  0.1609
16970W        W33444  15.573  12.123   3.790  0.0994  0.1189 -0.0442
16971W        W33445   2.833   5.190  13.908  0.1366 -0.0531  0.0594
16972W        W33446   8.235  15.193   5.082  0.0352  0.1779  0.0192
16973W        W33447  11.474   9.046  13.036  0.1612  0.1365  0.0602
16974W        W33448  12.968   7.739  15.363 -0.2277  0.0230 -0.0866
16975W        W33449  10.329  11.426   4.432  0.2305  0.1205  0.1991
16976W        W33450  18.443  10.378   5.103  0.1221 -0.1024 -0.1685
16977W        W33451   2.125   8.746   4.632  0.1324  0.2392 -0.0746
16978W        W33452  16.862   7.702   2.841  0.1768 -0.2796  0.4726
16979W        W33453   7.493  17.509  13.288  0.0858 -0.0900 -0.1683
16980W        W33454  11.028   5.921  13.016 -0.2540  0.0778  0.1383
16981W        W33455  16.142   1.471  13.570  0.0473 -0.0585 -0.1168
16982W        W33456  10.851   6.708  11.391  0.0483 -0.1004  0.0657
16983W        W33457  15.680  12.288  12.609 -0.0300  0.0433 -0.0382
16984W        W33458  11.038  11.717   1.747  0.1533  0.0707 -0.0669
16985W        W33459   8.529   4.000   4.504  0.3158 -0.1568 -0.0141
16986W        W33460   7.280  13.393   4.858  0.0566  0.0433  0.3015
16987W        W33461   0.319  11.575   3.776 -0.1244  0.1547  0.5760
16988W        W33462   2.886   4.773  13.291  0.0939 -0.0533  0.1638
16989W        W33463   0.033  18.087   0.668 -0.2966  0.1393 -0.1093
16990W        W33464  11.388   9.390  12.052  0.0737 -0.0647 -0.1869
16991W        W33465   0.787  13.255  10.143  0.1710 -0.4782  0.1637
16992W        W33466   2.304  11.922  14.049 -0.2649 -0.1105  0.0713
16993W        W33467  16.870   8.835   0.002  0.2434 -0.0451  0.0887
16994W        W33468  10.912   0.350  15.887  0.1387 -0.0922  0.0874
16995W        W33469  12.805  18.234   1.513  0.1769 -0.0509 -0.3004
16996W        W33470  11.238   3.889   3.375  0.1245 -0.2333 -0.0240
16997W        W33471  13.343  12.214  14.943 -0.1607 -0.0915 -0.0120
16998W        W33472  13.315   0.153   3.854 -0.0876  0.0299  0.4506
16999W        W33473   9.783   6.977   2.293  0.1428 -0.3651 -0.1459
17000W        W33474  11.797  11.156   3.766  0.0683  0.0803  0.1934
17001W        W33475  12.529  15.911  11.812  0.1264  0.1210 -0.0612
17002W        W33476   1.876  16.631  13.377 -0.1185  0.1470 -0.1504
17003W        W33477  14.751   5.607   4.956  0.1149  0.1536 -0.2109
17004W        W33478  18.255   6.180  15.250  0.2106 -0.1593 -0.1344
17005W        W33479  10.907  16.554  12.083  0.1910 -0.0075  0.0444
17006W        W33480  14.440   3.082   3.397 -0.1253 -0.1168  0.2517
17007W        W33481   5.860  16.179  14.565 -0.4242  0.1373  0.1033
17008W        W33482  12.263  16.308  12.113 -0.0474  0.0056 -0.2774
17009W        W33483   1.354  11.290   5.496  0.1838  0.0635  0.2202
17010W        W33484  12.885  11.615   0.186  0.1134 -0.0095  0.3853
17011W        W33485   5.628   6.675  14.303  0.0367  0.0622  0.1397
17012W        W33486  17.055  16.509   0.039  0.1043  0.0243 -0.6473
17013W        W33487  15.155  17.832   1.813  0.0757 -0.3541 -0.3827
17014W        W33488  18.086   0.653  11.028 -0.1769  0.0077 -0.1929
17015W        W33489  12.276  14.172   0.987 -0.0614 -0.0123  0.0413
17016W        W33490  10.850  11.463  10.280 -0.0517 -0.0006  0.2277
17017W        W33491  17.588   4.144  15.079 -0.1448  0.3475  0.0827
17018W        W33492   8.195  16.236  13.942  0.3698 -0.1744  0.0896
17019W        W33493  17.791  10.305   1.696  0.2101 -0.1890  0.2082
17020W        W33494  10.239  11.145  14.442  0.1036  0.3710  0.0497
17021W        W33495   6.244  11.446  13.286  0.0557  0.1428  0.2298
17022W        W33496   2.503   1.819  15.701 -0.0657  0.0432 -0.1217
17023W        W33497  15.720   3.138   1.908  0.3046  0.1555 -0.2272
17024W        W33498   2.573  10.808   2.012  0.0381 -0.2781  0.1903
17025W        W33499   9.041   1.592   3.038  0.1218  0.2511 -0.0580
17026W        W33500  13.874  18.068   3.293  0.1684 -0.0093 -0.2635
17027W        W33501   2.316   6.410   0.601  0.1591 -0.3109  0.2303
17028W        W33502   4.183   5.214  14.933 -0.0695  0.3213  0.0399
17029W        W33503  12.666  12.225   1.145 -0.0882  0.1214  0.1111
17030W        W33504   0.721   1.141   4.759 -0.2275 -0.0938  0.0346
17031W        W33505  12.571   7.995   5.985  0.2187  0.0383 -0.0921
17032W        W33506   2.045   3.632   1.123  0.0745  0.1230  0.0427
17033W        W33507   6.913   1.772   0.547  0.0419 -0.1556  0.1256
17034W        W33508   0.844   7.953   4.647 -0.1126  0.2515 -0.2995
17035W        W33509  10.356   3.498   0.770  0.1118  0.0030 -0.0084
17036W        W33510  15.034  14.631  11.542  0.0941  0.2168  0.1465
17037W        W33511   6.582  11.926  13.159 -0.1311 -0.4000  0.0966
17038W        W33512   0.868  13.171   4.104 -0.1455 -0.1063  0.0414
17039W        W33513   5.478  11.863   2.042  0.1964 -0.0576 -0.1568
17040W        W33514  12.885   8.259  11.753 -0.2520 -0.1257 -0.0047
17041W        W33515  14.269   6.341   2.587 -0.3334  0.1651  0.1175
17042W        W33516  10.137  10.770  14.787  0.3252  0.1238  0.1068
17043W        W33517   4.809   2.797   4.358 -0.3970  0.1074 -0.0546
17044W        W33518  16.811   2.762   4.011  0.4882  0.1165  0.0374
17045W        W33519   4.093  14.651  14.979  0.1649  0.0781  0.0159
17046W        W33520   5.475  18.413   0.850 -0.0304  0.0423 -0.0213
17047W        W33521   6.707   1.675   5.235 -0.3795  0.1609 -0.2420
17048W        W33522  12.700   1.128  13.122  0.1191  0.1794  0.1187
17049W        W33523   5.015   3.372  15.390 -0.2862  0.1322  0.0217
17050W        W33524   7.671   3.763   1.794 -0.2747  0.1235  0.1847
17051W        W33525  17.892   7.942   3.566  0.0810 -0.0387  0.1171
17052W        W33526   0.344   7.223  13.987  0.1395  0.2415 -0.3333
17053W        W33527  12.456   9.167  13.846 -0.0825 -0.2402 -0.0639
17054W        W33528   1.803  17.024   2.356  0.1169  0.1904 -0.0475
17055W        W33529   1.760  16.734  13.943 -0.1695 -0.3604  0.2888
17056W        W33530   3.965  17.973   1.207  0.2108  0.2292 -0.0874
17057W        W33531  15.849   2.751   3.196  0.0653  0.0303  0.3091
17058W        W33532  11.606  13.695  11.646  0.3670 -0.0270  0.0780
17059W        W33533   6.578  12.063   0.623  0.1893 -0.0361  0.0977
17060W        W33534   5.661   5.192  15.857 -0.3804  0.0042 -0.1463
17061W        W33535   2.073   7.181   4.675  0.1912 -0.3922 -0.0970
17062W        W33536   7.419   3.100   1.626  0.1182  0.1293 -0.0432
17063W        W33537  17.223   4.701   0.656  0.1608  0.1770 -0.2235
17064W        W33538   9.607  12.955  13.910 -0.0344  0.0499 -0.0672
17065W        W33539   6.149   2.245  14.519 -0.0395 -0.0180 -0.0551
17066W        W33540   6.667  16.908  11.556  0.5023 -0.0568  0.1201
17067W        W33541   2.274   1.312   2.545 -0.1522  0.0857  0.0556
17068W        W33542  10.946   5.400  15.362 -0.1451 -0.1543  0.0148
17069W        W33543  10.560   1.520   0.386 -0.0811 -0.2560 -0.0173
17070W        W33544   7.097   8.740   4.582 -0.0491  0.0780 -0.0168
17071W        W33545   0.760  14.769   2.509  0.2510  0.0565  0.3681
17072W        W33546  17.917   5.993  10.900  0.3259 -0.6068  0.0755
17073W        W33547  17.797   4.557   1.424 -0.1212  0.1786  0.0081
17074W        W33548  16.530  11.991  14.691  0.1438  0.2080  0.0328
17075W        W33549  13.559  12.011  12.315 -0.1052 -0.0555 -0.1449
17076W        W33550  12.376   4.825   4.398 -0.2167 -0.0820  0.0468
17077W        W33551   8.810  10.059  12.372  0.0519  0.2143  0.0528
17078W        W33552  14.599  17.789  13.221  0.0672 -0.0457 -0.2508
17079W        W33553   5.697  15.203   1.995 -0.1294 -0.3604  0.0312
17080W        W33554  10.249   1.444   2.463  0.1139 -0.0262  0.0219
17081W        W33555   4.791  16.194  13.631 -0.2239  0.2118 -0.2951
17082W        W33556   6.809   8.833  11.891 -0.1860 -0.0894 -0.0080
17083W        W33557  12.171  12.311   3.660 -0.0804 -0.3089  0.0742
17084W        W33558   5.363  16.651  15.397  0.1070 -0.0009  0.0582
17085W        W33559   1.760   0.696   2.171 -0.0720  0.2714  0.0299
17086W        W33560   6.157   9.879  12.370 -0.0018  0.1789  0.0574
17087W        W33561   5.866  10.187   5.384  0.0343 -0.1527 -0.4583
17088W        W33562   3.484  16.615   5.509  0.0935  0.0244 -0.1311
17089W        W33563   7.237  11.940   5.191 -0.3160  0.0181 -0.2553
17090W        W33564   3.796   9.912  12.088 -0.1338  0.5773 -0.1779
17091W        W33565  17.827  14.424   4.848  0.1048 -0.0688 -0.1579
17092W        W33566   3.696  12.173  11.419 -0.2503 -0.0720  0.2567
17093W        W33567   2.083  14.959   4.312 -0.2032 -0.2353 -0.1879
17094W        W33568  14.347  10.640   5.468 -0.1916 -0.1827 -0.1012
17095W        W33569   3.624  13.355   1.213  0.0878  0.0063  0.1190
17096W        W33570   6.236  13.061  15.889  0.1310  0.0106  0.0788
17097W        W33571   5.235  11.888  11.117 -0.0791 -0.1257 -0.0993
17098W        W33572  16.183  13.095  14.665  0.1468 -0.2534  0.4293
17099W        W33573   8.149   7.161  14.368  0.2890 -0.1371 -0.0928
17100W        W33574   2.021  14.318  15.524  0.2983  0.0196 -0.0858
17101W        W33575   1.271   7.324  10.976 -0.0599  0.1672  0.0953
17102W        W33576   4.917  12.764   3.138  0.1514 -0.0385 -0.0384
17103W        W33577   3.011   9.788  15.064 -0.0469 -0.2154  0.3731
17104W        W33578   0.406  12.179   0.824 -0.0596  0.2378 -0.0507
17105W        W33579  11.934  18.175  14.842  0.1806 -0.2066  0.1442
17106W        W33580   6.872  17.552   2.336 -0.0454 -0.1470  0.0488
17107W        W33581   7.646  14.966  13.654 -0.0013 -0.1608 -0.1484
17108W        W33582  14.506  14.669  12.609  0.0635  0.2488 -0.1604
17109W        W33583  15.815   7.329  14.611  0.1085  0.1057  0.0010
17110W        W33584  12.232   5.099   3.993 -0.2239 -0.0001  0.0443
17111W        W33585   8.992   5.220   0.392 -0.0983  0.0310 -0.0488
17112W        W33586   6.113   4.864   1.744 -0.1552  0.1198  0.2431
17113W        W33587   2.647  13.030   0.391  0.1853  0.0630 -0.0367
17114W        W33588  17.594  14.303   5.948  0.0676 -0.1712  0.2373
17115W        W33589   4.353   8.667   0.066  0.0242 -0.2817 -0.1799
17116W        W33590  14.893   1.515  14.324 -0.1688 -0.0241 -0.0292
17117W        W33591   3.100  15.888   2.138 -0.0875 -0.1275 -0.0438
17118W        W33592  11.617   7.459  13.539 -0.0367  0.1561 -0.0606
17119W        W33593  17.468   9.914  11.401 -0.0214 -0.0685  0.3636
17120W        W33594   1.905   4.021   4.872  0.0446 -0.0204 -0.0965
17121W        W33595   4.589  13.944  12.652 -0.3169 -0.2066  0.1055
17122W        W33596   6.840  10.243  12.926  0.0308 -0.0077 -0.0198
17123W        W33597   6.454  14.999   4.624  0.0681  0.1497 -0.1748
17124W        W33598   1.693   0.658  10.650 -0.1591  0.0700 -0.3179
17125W        W33599   1.341   9.267  15.365 -0.0784  0.1900 -0.1688
17126W        W33600   8.478  13.070   5.516 -0.0168 -0.2007 -0.0126
17127W        W33601  17.020   0.018  15.582 -0.1615  0.0077  0.2706
17128W        W33602  15.069   2.183  13.883 -0.0662 -0.0201 -0.0422
17129W        W33603  16.077   6.521   2.609  0.1543  0.1964 -0.0388
17130W        W33604   4.406  11.180  14.513 -0.0153 -0.0565 -0.1173
17131W        W33605   2.110   7.222  10.993  0.1079 -0.2436  0.0498
17132W        W33606   6.371  14.667   1.022 -0.1508  0.1926  0.3519
17133W        W33607  14.946  15.314  15.897  0.0979  0.0052 -0.2587
17134W        W33608   4.988  17.056   2.939 -0.2040  0.2281 -0.1234
17135W        W33609   9.655  12.995  14.728 -0.0654  0.0637  0.2398
17136W        W33610   9.154   5.235  12.253  0.0970  0.1287 -0.0080
17137W        W33611  13.226   8.810  12.745  0.1340  0.0046 -0.1756
17138W        W33612   4.836  13.820  15.656 -0.2811 -0.2076  0.0158
17139W        W33613  14.116   9.017   1.432  0.0639  0.2192  0.1441
17140W        W33614   9.213  16.264   4.744  0.0310  0.1475 -0.1053
17141W        W33615  13.974  14.756   1.947 -0.1383 -0.0663  0.1056
17142W        W33616   0.094  16.530  13.815 -0.0790 -0.0930  0.0244
17143W        W33617   3.141   9.591   0.066 -0.1583 -0.2696  0.1023
17144W        W33618   7.918   7.297  15.840  0.0014 -0.0211  0.2007
17145W        W33619  14.406  10.394  13.517 -0.1830 -0.1871  0.0677
17146W        W33620   7.611   9.505  15.004 -0.1341  0.3110  0.0757
17147W        W33621   9.512  10.812  14.725  0.0795 -0.0594  0.1357
17148W        W33622   6.083  12.857  13.851 -0.2175  0.1022  0.0601
17149W        W33623  12.020  16.612   5.584 -0.0755 -0.1169  0.2968
17150W        W33624   8.478  10.718   1.736 -0.2742  0.3193  0.3894
17151W        W33625  13.269   0.849  12.538 -0.0813 -0.0750 -0.0412
17152W        W33626   5.935   6.933  14.693  0.3098  0.0565  0.0832
17153W        W33627  15.850  14.846  14.173 -0.2015 -0.0192  0.1949
17154W        W33628  10.104   5.971   3.121  0.4730  0.1020 -0.3064
17155W        W33629  12.277   8.746   4.741  0.1496 -0.0432  0.3139
17156W        W33630  16.243  17.313  11.011 -0.0864 -0.4183  0.1844
17157W        W33631   7.499  10.347   1.469  0.1154  0.1370 -0.2577
17158W        W33632  18.144  13.366   5.818 -0.1626  0.1378 -0.2039
17159W        W33633   0.793  11.026   2.177 -0.1476  0.0842 -0.2713
17160W        W33634  13.881  14.347  12.803 -0.1606  0.2630  0.3061
17161W        W33635   0.817   9.864   3.615  0.0084  0.0784  0.2422
17162W        W33636   6.770  12.323   0.278 -0.0322 -0.0662  0.1352
17163W        W33637  15.452  13.742   0.217 -0.0142  0.0142 -0.0947
17164W        W33638  15.201  16.400   5.093 -0.0421 -0.0123 -0.0706
17165W        W33639  10.627  17.032   2.185 -0.0669 -0.0374  0.0451
17166W        W33640   8.520  17.704  12.353  0.1018  0.3302  0.2877
17167W        W33641   1.606  16.800   0.378  0.0345 -0.1793  0.4329
17168W        W33642  16.137  13.227   5.244 -0.2065  0.2090  0.0285
17169W        W33643   9.713   7.847  14.629  0.0441  0.0367  0.1520
17170W        W33644  13.315   6.925   1.344 -0.2842 -0.1227 -0.3554
17171W        W33645  14.249   5.720  13.578 -0.4917 -0.2247 -0.1877
17172W        W33646  15.061   6.106  15.052 -0.1752  0.0931 -0.1635
17173W        W33647   2.869   4.374  14.202 -0.1554 -0.1272  0.2064
17174W        W33648  18.018  17.793   2.314  0.0395  0.1458 -0.2106
17175W        W33649  12.101  13.589   0.921  0.1785 -0.0285  0.0688
17176W        W33650   3.824   4.192   1.541 -0.0462 -0.0515 -0.1480
17177W        W33651   0.804   5.111   3.210  0.0568 -0.0667  0.0226
17178W        W33652   0.616   3.830   1.996  0.1459  0.0814 -0.0566
17179W        W33653   3.285  11.022  15.568 -0.0519 -0.1619 -0.2362
17180W        W33654   2.044  14.038  12.380  0.1138 -0.2225  0.0918
17181W        W33655  11.037  16.884   2.003  0.3069  0.1203  0.1902
17182W        W33656  14.755   0.152   0.192  0.2039 -0.1409 -0.0442
17183W        W33657   0.204   7.892  13.227 -0.2877 -0.0180  0.1485
17184W        W33658  11.069   8.994   3.579  0.3560  0.0355  0.0868
17185W        W33659  16.840   2.606   1.034 -0.3380 -0.0765 -0.0032
17186W        W33660   8.767  17.319  13.187 -0.3152 -0.1330 -0.0607
17187W        W33661  13.637   1.599   2.546  0.1536  0.1149 -0.1738
17188W        W33662  17.025   4.711  13.394  0.1160 -0.3265  0.0949
17189W        W33663   3.850  15.638   0.640  0.0402 -0.2854 -0.0847
17190W        W33664   6.621  15.221  13.957 -0.4667  0.0687 -0.2555
17191W        W33665   3.154   1.596   2.135  0.0755  0.1743  0.0104
17192W        W33666   6.743   5.273  15.141 -0.1318  0.2256 -0.1998
17193W        W33667  16.971   7.716  12.002 -0.0761 -0.2200  0.2665
17194W        W33668  12.358  13.749   4.255  0.3940  0.1050 -0.1161
17195W        W33669   2.885  17.727  11.242  0.2787  0.1565  0.3131
17196W        W33670   9.204   6.107   1.788 -0.1358 -0.1002  0.1187
17197W        W33671  14.673  16.610  14.838  0.0579  0.1205  0.0371
17198W        W33672   7.726   2.917  13.591  0.3192 -0.0213 -0.3388
17199W        W33673   4.942   2.370  14.217 -0.1311  0.2041  0.0203
17200W        W33674  13.914   5.515  13.940 -0.1624  0.1137 -0.1354
17201W        W33675  15.528   5.174  10.143  0.0261  0.2514  0.3315
17202W        W33676  10.021   3.684  12.891 -0.1845 -0.0707  0.0938
17203W        W33677  13.755   5.952   4.859 -0.0337  0.1991  0.4864
17204W        W33678   8.643   3.248   0.006 -0.1721  0.1424 -0.1444
17205W        W33679   4.342   1.616  11.951  0.0261 -0.0578 -0.0056
17206W        W33680   1.191   9.041   4.083  0.0144  0.1521  0.1720
17207W        W33681  12.637   2.523   1.856 -0.0741 -0.0372 -0.2853
17208W        W33682   5.750  16.212  11.146 -0.2380 -0.0244  0.3502
17209W        W33683   9.298   7.499   5.348 -0.0223  0.1851 -0.0444
17210W        W33684   5.780   3.283   4.457  0.3663  0.0993 -0.0901
17211W        W33685   6.755  14.624   1.414  0.0708  0.3147  0.0155
17212W        W33686   7.195  14.717   1.268 -0.1952 -0.0575  0.1081
17213W        W33687  18.116   8.904  14.685  0.1476 -0.3977 -0.0152
17214W        W33688   1.180  11.681   3.613  0.1796  0.0025 -0.0618
17215W        W33689  16.165  10.135   0.465 -0.3603  0.0331  0.3634
17216W        W33690   1.753   7.445  13.644 -0.1224  0.1152  0.1258
17217W        W33691   7.221  12.126  14.552 -0.4636  0.1408  0.0026
17218W        W33692   9.583   8.682  15.711 -0.3310 -0.3167 -0.1207
17219W        W33693  12.359  13.758   1.348 -0.0734  0.1976 -0.0317
17220W        W33694   1.932  10.496   4.867 -0.1127  0.1478  0.0182
17221W        W33695   3.621   0.241   0.468  0.1497  0.0346  0.0762
17222W        W33696   3.023  11.565   4.619  0.0839 -0.3575 -0.0396
17223W        W33697  12.538   6.654   4.166 -0.4625  0.0045  0.1921
17224W        W33698   0.401   5.244  13.797  0.0568  0.1439 -0.1619
17225W        W33699  14.135   8.082  15.548  0.0014 -0.0898  0.3228
17226W        W33700   0.239   1.959   2.042  0.3261  0.1096  0.1043
17227W        W33701   6.654   4.981  12.516 -0.1098  0.0260 -0.0091
17228W        W33702  11.807  12.840  14.801  0.0717  0.2335  0.1863
17229W        W33703  16.629   6.905   0.021  0.3462 -0.1146 -0.0830
17230W        W33704  12.954   0.712   9.952 -0.0331  0.0937 -0.0646
17231W        W33705  12.938  11.905   3.809 -0.2861  0.2018  0.0556
17232W        W33706   6.351   4.337  10.164  0.1513  0.1402  0.0163
17233W        W33707   4.522  11.661  12.389 -0.2252 -0.3781  0.0242
17234W        W33708   7.706   8.761  11.855  0.0533 -0.0517 -0.3941
17235W        W33709   3.915   5.823  14.484 -0.1013 -0.1373 -0.0948
17236W        W33710   1.206   5.902  15.408  0.0262  0.1531  0.2611
17237W        W33711  16.879  17.819  13.772  0.1370  0.2494 -0.1049
17238W        W33712   1.926   5.567   3.458  0.1213 -0.0634  0.4560
17239W        W33713  17.087  14.700  14.572 -0.3564  0.0084  0.4036
17240W        W33714  13.013  10.793  12.428  0.0336  0.4767  0.1740
17241W        W33715   1.665  12.302   3.155  0.1533 -0.0608  0.2262
17242W        W33716  17.622  14.559   4.268  0.1446 -0.1174 -0.3165
17243W        W33717  10.779  13.531  13.091 -0.2208  0.1674 -0.1838
17244W        W33718   5.166   6.205   0.953  0.3696  0.0400  0.0080
17245W        W33719  13.494   5.065  11.329  0.2168  0.0484 -0.1137
17246W        W33720   2.774   2.055  11.034 -0.0838 -0.0713 -0.1232
17247W        W33721  14.867  12.926  14.577  0.2489 -0.1241 -0.2001
17248W        W33722   3.120   4.170  15.103  0.3507 -0.2152 -0.4714
17249W        W33723  17.253   5.672  12.501 -0.2183 -0.1471  0.0495
17250W        W33724  13.394   3.001  13.414 -0.0624 -0.0652  0.0969
17251W        W33725  16.241   1.197   2.038 -0.2671  0.1313  0.0780
17252W        W33726   1.935  13.594   2.935 -0.0580  0.0969 -0.1219
17253W        W33727   5.941   0.086   0.705 -0.1213 -0.0153 -0.3456
17254W        W33728  16.052  17.162  12.846 -0.1113  0.1621 -0.3419
17255W        W33729   3.791   4.280   2.721 -0.2612  0.2598  0.0064
17256W        W33730   3.120   8.355   2.129  0.1609  0.1590 -0.0979
17257W        W33731  11.926   5.821   3.478 -0.1287 -0.4276 -0.2214
17258W        W33732  16.962   6.645  11.959  0.3213  0.0202  0.1850
17259W        W33733  10.486  17.882   0.785  0.1350  0.1119  0.1546
17260W        W33734  17.433   4.437   2.924 -0.0833 -0.0016  0.2290
17261W        W33735   5.131   7.639   3.022 -0.2568 -0.2901  0.0416
17262W        W33736   0.687  10.304   6.022  0.1323  0.2581  0.0765
17263W        W33737   9.341   9.772   3.435 -0.0787 -0.4424  0.2860
17264W        W33738  11.893  18.076  11.350  0.1997 -0.1940 -0.2637
17265W        W33739  17.985   1.067   5.252  0.2131  0.1612  0.1492
17266W        W33740   6.789   2.390   4.128  0.0508  0.0187  0.1218
17267W        W33741   9.110   2.935   0.667  0.0835 -0.1587  0.4317
17268W        W33742  11.862   6.674  13.869  0.0957 -0.1288  0.0728
17269W        W33743  11.381  10.249   3.325  0.3126  0.2749 -0.1952
17270W        W33744   0.403  14.406   0.267  0.2010 -0.0901  0.1515
17271W        W33745   0.811   0.494   5.152 -0.0071 -0.1466 -0.2060
17272W        W33746  12.314   9.384   1.598  0.2427 -0.3409 -0.3962
17273W        W33747  12.509  18.254   3.014  0.2342 -0.1143  0.1149
17274W        W33748   1.356   4.572   2.663 -0.0354  0.0871 -0.0224
17275W        W33749   1.064  15.979   4.259 -0.2855 -0.1061 -0.0710
17276W        W33750  13.850  14.828  14.055  0.0472  0.1605 -0.0387
17277W        W33751  15.738   4.829  15.334 -0.0618 -0.0412 -0.2123
17278W        W33752   4.284   8.314   0.444 -0.1809 -0.2343  0.1542
17279W        W33753   7.675   9.868   0.086 -0.1184  0.1766  0.0175
17280W        W33754  16.905  16.334   0.720  0.0784  0.0703  0.0935
17281W        W33755  18.443  13.298   4.382 -0.1534 -0.2511 -0.1709
17282W        W33756   9.537   9.957  11.768 -0.1602 -0.1371 -0.0325
17283W        W33757  13.692   9.405   0.308  0.0173  0.2459  0.2124
17284W        W33758  11.539  14.396   2.231  0.2394 -0.0952 -0.0853
17285W        W33759   2.693   2.392  11.341 -0.1479  0.3024  0.2843
17286W        W33760  12.185  15.746   2.230  0.0232 -0.1582 -0.0928
17287W        W33761  17.030   9.055  12.168  0.2329 -0.2326 -0.2368
17288W        W33762   4.890   7.419   4.346 -0.2029 -0.1686  0.0714
17289W        W33763  16.296   5.393  13.953 -0.1262 -0.0631  0.1262
17290W        W33764  16.084  15.492  11.543 -0.1904 -0.0004  0.1236
17291W        W33765   4.262   6.485   1.424 -0.0003 -0.0722  0.0034
17292W        W33766  12.989   0.953   4.485  0.3129  0.2145  0.1669
17293W        W33767   9.502  11.133   3.733  0.1225 -0.0121 -0.1082
17294W        W33768   0.051   5.538  12.335 -0.3208  0.0920  0.1285
17295W        W33769  18.325   2.414  14.592 -0.1534 -0.4173  0.1574
17296W        W33770   5.546  14.709   4.261  0.1486  0.0502 -0.0417
17297W        W33771  11.227   4.895  11.294  0.1833 -0.1130 -0.3548
17298W        W33772   1.822  17.429   2.034 -0.0581  0.2644 -0.0977
17299W        W33773   1.202  16.777   2.963 -0.5535  0.1921 -0.3345
17300W        W33774  11.352  16.297   1.073 -0.2128 -0.0866 -0.0962
17301W        W33775   2.313   9.747   1.205 -0.2166 -0.0640  0.2461
17302W        W33776   6.119  13.787   3.700 -0.2183 -0.1383 -0.2372
17303W        W33777   5.845  10.924   3.051 -0.1401  0.2944  0.3525
17304W        W33778   6.037  15.465   5.071 -0.0687  0.1742  0.1253
17305W        W33779   5.745  15.056   0.051  0.0452 -0.0749 -0.1248
17306W        W33780   2.785   0.763  10.586  0.2273 -0.0302  0.1775
17307W        W33781   1.813   1.513   2.716  0.2709 -0.2466  0.1495
17308W        W33782  10.455  14.962  13.565  0.3337  0.0686 -0.3451
17309W        W33783   8.519   0.026   0.161  0.2378 -0.1528  0.0931
17310W        W33784  16.015  11.275  13.559 -0.1946 -0.0013 -0.1990
17311W        W33785  11.345   2.649   2.603  0.0879 -0.1532 -0.2171
17312W        W33786   4.457   6.533  12.821  0.1220 -0.0267 -0.0012
17313W        W33787  15.194  10.007  11.643 -0.0229  0.1619  0.2172
17314W        W33788  15.133  14.662   2.559 -0.0308 -0.1364  0.2387
17315W        W33789  10.832  13.706   4.218 -0.1596 -0.0074  0.1730
17316W        W33790   6.444  16.599  15.547 -0.1813  0.1592  0.0369
17317W        W33791  17.421   6.179  12.822 -0.1521 -0.0258 -0.0526
17318W        W33792  14.894   1.163   2.175 -0.2164  0.1101  0.2049
17319W        W33793  12.236   7.837   5.592  0.1018 -0.2565 -0.0573
17320W        W33794   8.363   8.360   0.470  0.0067  0.0615 -0.1925
17321W        W33795  13.533   8.624   2.048  0.1211  0.0150 -0.1560
17322W        W33796   4.393   2.228  15.899  0.1217 -0.1009 -0.1123
17323W        W33797   5.667  10.981   1.759 -0.0501 -0.2250  0.0354
17324W        W33798   0.161   7.445   3.269 -0.1189  0.0416  0.0003
17325W        W33799   3.164  11.242   0.452 -0.0799 -0.1946 -0.0088
17326W        W33800   5.260  12.900   3.511 -0.3336 -0.1769 -0.2324
17327W        W33801   2.322   6.381  15.066 -0.3362  0.0595 -0.2126
17328W        W33802  10.775   7.099  14.622 -0.1963  0.1287 -0.0294
17329W        W33803  16.795   4.922   2.029  0.0986  0.1158  0.0795
17330W        W33804  17.162   9.002   2.229  0.2751 -0.1750 -0.0089
17331W        W33805   8.190  11.770  11.502  0.1202 -0.0109  0.0882
17332W        W33806   4.175  12.146  15.366  0.2208  0.1190 -0.2628
17333W        W33807  10.810  14.228   4.122 -0.0070 -0.1308  0.0444
17334W        W33808  15.737   7.772  12.772  0.3607 -0.2002 -0.1699
17335W        W33809  13.735  10.842  11.557 -0.0376 -0.2090  0.0507
17336W        W33810  15.986   9.218  15.797 -0.1288 -0.0901 -0.1144
17337W        W33811  17.079  13.211  14.358  0.1659 -0.1342  0.2024
17338W        W33812   1.920  11.404   3.124 -0.3673  0.0162  0.2331
17339W        W33813   1.652   6.736   3.857 -0.0040  0.0888 -0.1264
17340W        W33814   5.270   5.014   3.259 -0.2487  0.1805  0.0226
17341W        W33815  18.264   2.803  13.073  0.0383  0.0765 -0.1108
17342W        W33816   6.835   9.461  11.859  0.1573 -0.1491 -0.0787
17343W        W33817  17.751  13.857  13.457 -0.2576 -0.2641  0.1329
17344W        W33818   5.419  15.586   1.653  0.0582  0.0756  0.1160
17345W        W33819  13.605   4.719  15.494  0.1786 -0.0505  0.1403
17346W        W33820   0.912  12.018  13.339 -0.2381 -0.0586  0.3001
17347W        W33821   6.975   3.355  13.375  0.1678 -0.1060 -0.1745
17348W        W33822   1.225  15.084   5.327  0.0935 -0.1898 -0.3574
17349W        W33823  14.742  12.332   5.332  0.4233  0.0018 -0.0150
17350W        W33824   2.201  11.606   0.052 -0.0466  0.1938  0.0472
17351W        W33825   0.430  17.174   3.210 -0.3692  0.3394 -0.2410
17352W        W33826   5.154  12.381   3.473  0.2079  0.0597 -0.2031
17353W        W33827   4.081   2.930   0.419 -0.0845 -0.0992 -0.0176
17354W        W33828  14.508   3.785  13.577  0.0403 -0.1753  0.0052
17355W        W33829  15.125   7.558   4.699  0.3108 -0.3426  0.2491
17356W        W33830   4.815  11.139   3.275  0.1020  0.0066 -0.1811
17357W        W33831  13.403   7.523   1.058 -0.2583 -0.2049 -0.1181
17358W        W33832   4.917   1.282   4.028  0.2403  0.0078 -0.1808
17359W        W33833  11.894   4.544  12.775 -0.1330 -0.2917  0.0453
17360W        W33834   2.098   8.776   2.681 -0.2391  0.2923  0.1068
17361W        W33835   5.165   7.012   0.141 -0.1545  0.3281  0.0889
17362W        W33836   2.988   8.778  12.611 -0.3022 -0.0952 -0.1363
17363W        W33837  16.625   9.958  10.460  0.0928  0.0440  0.1829
17364W        W33838  16.145  17.289  15.525 -0.0522 -0.0997  0.1594
17365W        W33839  15.892   7.407   5.550  0.2883  0.0874 -0.2389
17366W        W33840   9.947  16.719  11.156  0.2476 -0.2135  0.1807
17367W        W33841   9.234   5.164   4.863 -0.0630  0.2828 -0.0863
17368W        W33842  16.370   5.078   4.909  0.1567  0.0967  0.3106
17369W        W33843  12.720  18.368   4.449  0.0214 -0.3020 -0.2776
17370W        W33844  18.283   3.638  11.327 -0.0975  0.3340 -0.0549
17371W        W33845   8.531  11.120   1.426  0.1373  0.0356 -0.0678
17372W        W33846   8.853  15.331  10.357  0.0548 -0.2339 -0.1737
17373W        W33847   4.855  17.552   3.053 -0.0473  0.3125 -0.0682
17374W        W33848   6.990   4.415   3.019 -0.0349 -0.1699  0.0403
17375W        W33849   6.873   8.648  11.396  0.1480  0.1252 -0.1020
17376W        W33850  11.544  11.927   0.768  0.1393  0.2094  0.3425
17377W        W33851  18.352   7.747  12.795  0.2187  0.0496 -0.1360
17378W        W33852   6.754  13.039  14.623  0.1426 -0.2513 -0.1431
17379W        W33853  16.560  12.880   5.108  0.1155 -0.0181 -0.0452
17380W        W33854  11.823  14.025  13.554 -0.1169  0.0429  0.2727
17381W        W33855   1.504  11.436  15.112  0.1547 -0.3027 -0.0845
17382W        W33856   5.716  15.167  11.166 -0.0464 -0.0752 -0.0333
17383W        W33857   1.733   5.283   0.354 -0.0459  0.1225  0.1784
17384W        W33858   5.941   9.604   3.389  0.1086 -0.3450 -0.2456
17385W        W33859   1.714  13.138   0.588 -0.2268  0.0504 -0.0975
17386W        W33860  15.507  17.766   5.161  0.0380 -0.1644 -0.0603
17387W        W33861  15.915  18.321   1.667  0.0686  0.2878  0.0610
17388W        W33862  12.292   4.396   0.870 -0.0137 -0.0963  0.0026
17389W        W33863  12.621  10.853   5.591  0.0331  0.0123 -0.0570
17390W        W33864   8.029  17.314   0.993 -0.0942  0.1113 -0.2059
17391W        W33865  16.797   4.410  11.561 -0.1339  0.1390 -0.0132
17392W        W33866  11.467  17.637  13.957 -0.1278  0.3204  0.0817
17393W        W33867  11.421  10.301   2.157  0.1072 -0.4125 -0.3126
17394W        W33868   8.754  18.354   1.249 -0.1768  0.1865  0.2283
17395W        W33869   6.707  15.616   3.013  0.2678  0.3008 -0.0490
17396W        W33870   6.618   7.898  11.507 -0.1722  0.3333 -0.1805
17397W        W33871   1.860   7.289   0.726  0.0275  0.2981 -0.2282
17398W        W33872   5.933   3.118  15.691  0.0221  0.2733  0.0212
17399W        W33873  12.332  11.044   4.054  0.0703 -0.1619 -0.2189
17400W        W33874  14.719   5.184   3.765 -0.0564  0.1362 -0.2891
17401W        W33875  13.726  11.220  13.030 -0.0358  0.0623 -0.0674
17402W        W33876   5.063   8.444  12.805  0.1369  0.1842 -0.0849
17403W        W33877   8.562   4.504   2.574  0.0557 -0.0543  0.2398
17404W        W33878  17.192  15.574   1.303  0.1720 -0.2845 -0.0158
17405W        W33879   5.620   2.602   3.161  0.0192  0.0691  0.0403
17406W        W33880   0.023   1.916  13.170  0.0068 -0.0393 -0.0032
17407W        W33881   8.581  11.088  12.478  0.1114  0.0195 -0.0132
17408W        W33882   2.502  15.958  13.037 -0.1360 -0.0428 -0.1239
17409W        W33883  16.687  18.353   4.309  0.1179  0.0612 -0.0771
17410W        W33884  18.266   9.802  14.123  0.3735  0.0031 -0.0001
17411W        W33885   9.933   3.008  10.696  0.2034  0.0182 -0.2163
17412W        W33886   8.093   3.642   2.282 -0.1238 -0.0463 -0.3398
17413W        W33887   9.458   6.779   4.353 -0.2987 -0.1435  0.0813
17414W        W33888  14.631  15.742  15.948 -0.0573 -0.1187  0.0655
17415W        W33889   2.016   5.868  14.062 -0.0231 -0.0358 -0.0331
17416W        W33890   4.608  11.323   0.756  0.1488  0.0434 -0.2742
17417W        W33891   8.737  16.040   2.393 -0.1708  0.1559 -0.1823
17418W        W33892  12.188  16.229   4.011 -0.0397 -0.0093  0.1640
17419W        W33893  18.242  15.643  10.887  0.2455 -0.3271 -0.1479
17420W        W33894   5.084  12.821  15.182  0.1746  0.0803  0.3421
17421W        W33895   0.583   2.299   0.301 -0.0739 -0.0033  0.1421
17422W        W33896  16.853  15.994  15.096  0.0956  0.0711 -0.0535
17423W        W33897  11.007   2.933  12.412 -0.4557 -0.3296 -0.3655
17424W        W33898   6.949   8.268  15.290 -0.0290 -0.2529 -0.1028
17425W        W33899   6.069  11.250   2.277  0.0652  0.0474  0.0011
17426W        W33900   3.729   2.522   4.014  0.1585  0.0334 -0.1010
17427W        W33901  17.501  16.736  13.178  0.1263  0.0701 -0.1827
17428W        W33902   0.619  11.982   2.593  0.0013  0.2499 -0.4244
17429W        W33903  10.545  14.084   0.725 -0.0772 -0.1100  0.0062
17430W        W33904   3.197   0.112  11.801  0.0816  0.0193  0.0800
17431W        W33905   2.162   9.174  15.272  0.1967 -0.1174 -0.2424
17432W        W33906   5.594  14.458   4.666 -0.0888  0.1642 -0.0763
17433W        W33907  12.010   4.636   4.055  0.0583 -0.0668 -0.0342
17434W        W33908   6.291  15.192  14.399 -0.0089  0.1698  0.3478
17435W        W33909  15.659  15.528   1.702  0.0243 -0.1906 -0.1771
17436W        W33910   3.402  13.454  15.139 -0.0526  0.1442 -0.2165
17437W        W33911  12.533   3.706   0.105  0.0329 -0.0351 -0.0067
17438W        W33912  12.641  13.972  13.305  0.1845 -0.2643 -0.0285
17439W        W33913   6.715  16.039   3.890  0.2021  0.1379 -0.0426
17440W        W33914  12.220   6.663  15.334  0.2634 -0.0679 -0.1252
17441W        W33915   2.395  17.426   1.808 -0.1800  0.1164 -0.0014
17442W        W33916  11.293   3.623  13.728 -0.0107  0.2706 -0.1187
17443W        W33917  15.180   9.129   0.868 -0.3462 -0.0349  0.0362
17444W        W33918   1.167   9.714  14.063 -0.1149 -0.2725  0.0383
17445W        W33919   3.363  10.060  11.141 -0.0477 -0.0429 -0.3195
17446W        W33920  16.301   6.248  11.288  0.2094 -0.0544  0.0042
17447W        W33921   5.145  16.827  12.577 -0.0868  0.1192  0.0261
17448W        W33922   4.381  13.346  12.772  0.3341  0.1232 -0.2495
17449W        W33923   6.262  13.256   4.959  0.0328 -0.0910 -0.3524
17450W        W33924  18.217   0.570  14.844  0.0234  0.3522  0.0648
17451W        W33925  11.307   8.016   0.268  0.0741  0.4348  0.1161
17452W        W33926   8.519  11.731  15.526 -0.0797 -0.0590  0.0191
17453W        W33927   8.282   9.958  12.002 -0.0202  0.0904  0.2469
17454W        W33928   1.074  17.373   2.131  0.1104 -0.0407  0.0884
17455W        W33929  10.291   1.204   4.505  0.1925  0.0440 -0.2201
17456W        W33930  16.306   3.543  15.714 -0.2136  0.2994  0.0440
17457W        W33931   6.953   4.878  12.059  0.0454 -0.0213  0.0869
17458W        W33932  15.628  13.101   4.736 -0.0419  0.1842  0.2028
17459W        W33933  13.912   4.074  12.835  0.0325  0.0598  0.0874
17460W        W33934   3.562  17.881   2.987  0.0055 -0.3579  0.2067
17461W        W33935  10.863  17.139  14.907 -0.0781 -0.3876 -0.1664
17462W        W33936  16.477  16.782  11.699  0.0556  0.4251 -0.0092
17463W        W33937  10.693   8.511  12.916  0.3489  0.1103  0.0366
17464W        W33938  13.858   7.187  11.462 -0.0584 -0.2602  0.0211
17465W        W33939   5.872  12.890   0.171  0.1743  0.1184  0.4300
17466W        W33940   9.025  16.778   3.789  0.1607  0.0824  0.2742
17467W        W33941   1.152   2.069   2.957 -0.1024  0.2502  0.0379
17468W        W33942   4.856  17.057  14.283 -0.0432  0.2364  0.3791
17469W        W33943   3.155  16.850   5.010 -0.1955 -0.0035 -0.2513
17470W        W33944   5.482   6.598   5.119  0.0630  0.0746 -0.0086
17471W        W33945  10.690   1.970  12.280 -0.1834  0.0623 -0.0407
17472W        W33946  15.444   7.411  12.978  0.1036  0.0651 -0.0175
17473W        W33947  11.949  10.127  12.329 -0.1256  0.0821 -0.2635
17474W        W33948  15.856  11.403  14.228 -0.3233  0.2094  0.0645
17475W        W33949  17.518  16.669  12.144  0.2240  0.0455 -0.1812
17476W        W33950  12.512   2.808  11.780 -0.5188 -0.1221 -0.1271
17477W        W33951   6.156  11.112   1.810  0.0350 -0.1618 -0.1019
17478W        W33952   0.060  14.487  12.654  0.2232 -0.3336  0.1498
17479W        W33953   6.379   1.511  12.005  0.2284 -0.3792 -0.2958
17480W        W33954  15.379  11.070   5.370 -0.1599 -0.0589 -0.1380
17481W        W33955   3.350  15.408  12.030 -0.0051 -0.1763 -0.0022
17482W        W33956   5.204   7.681   2.507 -0.0153 -0.5690 -0.1527
17483W        W33957   7.639  14.119  11.545  0.1410 -0.1710 -0.0810
17484W        W33958   8.580   1.901   4.313  0.3207 -0.1753 -0.0605
17485W        W33959  15.542   9.424   3.414 -0.1120 -0.0609 -0.1462
17486W        W33960  16.676   4.572  15.404  0.0088 -0.0302  0.3720
17487W        W33961   0.481  16.465  12.174 -0.2577 -0.1785  0.0590
17488W        W33962   1.574   5.881  14.867 -0.2434  0.4307 -0.4661
17489W        W33963  17.466   5.817  15.842 -0.0036  0.1844  0.3302
17490W        W33964  17.377   5.332  11.298  0.2691  0.1305 -0.2779
17491W        W33965  12.138   4.631   1.393 -0.0301  0.4676  0.0237
17492W        W33966  12.400   6.194   4.341 -0.1639 -0.0716  0.0110
17493W        W33967   2.298   5.626   5.094 -0.0213 -0.0084  0.0893
17494W        W33968   5.104  11.405   2.977  0.3945 -0.0692  0.2627
17495W        W33969   6.723  15.646   0.543 -0.0953  0.2733  0.0852
17496W        W33970   2.590  18.262   0.205  0.1128 -0.2264  0.2245
17497W        W33971  16.650   1.024   3.192  0.1797  0.3942 -0.1158
17498W        W33972   8.845  12.606  12.951 -0.1096  0.2783  0.0911
17499W        W33973   9.804  17.130   1.482 -0.1238 -0.4078  0.1841
17500W        W33974  17.561  12.944  10.966  0.0076 -0.1650  0.1784
17501W        W33975  14.853  16.200  13.940  0.1533 -0.0324 -0.2346
17502W        W33976   3.549   9.233   1.099  0.0532  0.0947  0.2157
17503W        W33977   1.010   5.547   3.038  0.2557 -0.1546 -0.1018
17504W        W33978  17.312  14.240   2.958 -0.0570 -0.3617 -0.0241
17505W        W33979  18.266  17.903  15.349  0.2844 -0.1521 -0.1460
17506W        W33980   9.629  15.562   0.077  0.0710  0.0904 -0.1652
17507W        W33981  13.580  18.457   0.030  0.2474 -0.0202 -0.1600
17508W        W33982  18.332  17.336   2.350 -0.0156  0.4506 -0.2185
17509W        W33983  17.905   2.271   2.268 -0.2806  0.0223  0.1188
17510W        W33984  13.779  17.288   4.513  0.0683  0.0125  0.1147
17511W        W33985  18.430   0.157  12.394 -0.2678 -0.3274 -0.1220
17512W        W33986   0.691  18.072  13.941 -0.3073  0.1570  0.0228
17513W        W33987   8.540  17.479  15.615  0.0563  0.0590  0.0302
17514W        W33988  17.206  16.662   3.061  0.1377 -0.0177  0.0374
17515W        W33989   7.382  14.584   4.474  0.0764 -0.3576  0.2453
17516W        W33990  17.394  16.857  13.789  0.0829  0.2045 -0.1667
17517W        W33991   0.313  10.984   4.994 -0.1419  0.3136 -0.0440
17518W        W33992   2.039  11.018   0.263  0.0236  0.0901  0.1304
17519W        W33993  15.190   9.580   1.454  0.2539  0.0085  0.0352
17520W        W33994  15.778   2.253   1.662  0.3673  0.0124  0.0561
17521W        W33995   0.674  14.492   3.199 -0.2541  0.3297  0.1452
17522W        W33996   0.394  11.637  12.002  0.2451 -0.0211  0.1526
17523W        W33997  11.442   2.879   4.048  0.3757 -0.0132 -0.0006
17524W        W33998  14.310  12.291  14.434 -0.0604  0.0654 -0.0218
17525W        W33999   2.797  18.099  14.641 -0.1720 -0.0098  0.1438
17526W        W34000  17.646   2.626   5.713 -0.1356 -0.1159 -0.1096
17527W        W34001  15.740  13.963   5.358 -0.0904 -0.0179 -0.0594
17528W        W34002  10.760   4.954   0.770  0.1353 -0.1615  0.0433
17529W        W34003   3.640   9.881   4.213  0.1145  0.0600  0.0930
17530W        W34004   1.429  12.555   4.351 -0.0608  0.1527 -0.2294
17531W        W34005   5.851   0.167  14.284 -0.0042  0.2303 -0.1447
17532W        W34006  17.742  18.424   4.657 -0.2063 -0.0801 -0.0212
17533W        W34007  16.375   9.438   3.687  0.0772 -0.1942 -0.1342
17534W        W34008  15.760   2.945  11.605  0.3872 -0.2286  0.0227
17535W        W34009   6.931   3.235   3.109 -0.1356  0.0150 -0.1187
17536W        W34010  14.079   3.158   3.828 -0.3313 -0.1860  0.2573
17537W        W34011   0.558   8.312   5.047 -0.0649  0.1590  0.0853
17538W        W34012   1.905   8.366  13.810  0.4402  0.0545  0.0195
17539W        W34013   0.483  11.900  12.517 -0.5662  0.0544 -0.0391
17540W        W34014   3.579   3.263   2.599 -0.0280 -0.0461 -0.1085
17541W        W34015  12.735   2.257  11.381  0.2495 -0.1761  0.0650
17542W        W34016   0.983  10.897  12.187 -0.2879  0.0123  0.1240
17543W        W34017  15.779   0.532  13.116  0.0656 -0.0083 -0.0611
17544W        W34018   1.712  16.086   4.846  0.0139 -0.2050  0.2603
17545W        W34019   9.033   7.612   0.808  0.1074 -0.0169 -0.3089
17546W        W34020   6.635  11.608   1.379 -0.1126  0.0503  0.0541
17547W        W34021  14.590   3.076  12.641  0.0098 -0.0919  0.1229
17548W        W34022   9.846   2.384  12.452 -0.2487 -0.2764 -0.1370
17549W        W34023   8.840  12.320  14.139  0.1111  0.3457  0.0530
17550W        W34024  17.559  10.732  15.337 -0.1730  0.0141  0.0962
17551W        W34025  10.862  15.308  15.660 -0.1482 -0.1867 -0.0212
17552W        W34026  13.035  18.026   0.276 -0.1080  0.1695  0.3203
17553W        W34027   6.878  14.046  15.038 -0.2023 -0.3128 -0.0831
17554W        W34028  14.888   9.869  15.714  0.0701 -0.2908  0.0316
17555W        W34029   9.037  17.299   2.731  0.0686 -0.3295  0.1213
17556W        W34030   4.929  11.110   5.113  0.1801 -0.3736  0.3309
17557W        W34031  11.414   8.933  12.494  0.1598  0.0572 -0.1896
17558W        W34032   3.158   3.919   4.081  0.0899  0.1069  0.1308
17559W        W34033  15.031  12.886  14.068  0.1455 -0.0375 -0.1589
17560W        W34034   5.799  13.897  15.549  0.0689  0.1775 -0.1455
17561W        W34035   7.340   2.480   4.644  0.1264  0.1840 -0.0374
17562W        W34036   8.569   0.367  13.331  0.0351 -0.0245 -0.5128
17563W        W34037   3.522  13.783   5.958 -0.0108  0.2390  0.1873
17564W        W34038   5.667  13.704  11.761  0.1870  0.2595  0.2137
17565W        W34039   6.464   3.164   2.344 -0.2225  0.1431  0.0448
17566W        W34040  12.702   3.073   2.551 -0.1456 -0.2346 -0.0137
17567W        W34041   5.533  16.814  11.887 -0.1900 -0.0882 -0.1338
17568W        W34042   8.622   4.983  14.976 -0.1979 -0.1678  0.0421
17569W        W34043  16.712   8.624   4.834  0.3913  0.0787 -0.2509
17570W        W34044   6.419  12.294  12.862 -0.2443  0.1283 -0.0469
17571W        W34045   5.383   2.030  12.334 -0.1146  0.2731 -0.0221
17572W        W34046   1.246  15.289   3.059  0.1706  0.1748  0.4422
17573W        W34047  11.901  17.990  12.290  0.1047 -0.3320 -0.1748
17574W        W34048  12.537   4.468   2.505 -0.1169  0.0451  0.0169
17575W        W34049  12.695   0.627   0.119  0.0081 -0.0741  0.1453
17576W        W34050  16.813   3.846  11.199  0.1301  0.0916 -0.0039
17577W        W34051  11.550   3.797  15.857  0.2149  0.1548 -0.1871
17578W        W34052  18.348   9.040  15.880  0.0489 -0.0066 -0.3064
17579W        W34053   8.868   7.725  13.860 -0.1351  0.0005 -0.0383
17580W        W34054   3.161  11.812   0.720  0.0594  0.2245  0.0174
17581W        W34055  10.958   4.545  12.350  0.0799  0.0721  0.0999
17582W        W34056   6.924   2.189  15.764 -0.0137 -0.2799  0.0484
17583W        W34057   2.543  12.297   3.539 -0.0717  0.2868  0.2371
17584W        W34058  15.813  10.098  13.795  0.0214 -0.0946  0.0992
17585W        W34059  12.357   7.901  13.721 -0.0865  0.1328 -0.0068
17586W        W34060  17.522   0.999  12.611 -0.1258 -0.2137 -0.0355
17587W        W34061  14.288  13.380   0.490 -0.0122  0.3382  0.1642
17588W        W34062   7.668   1.674  14.704  0.1060  0.2964 -0.0362
17589W        W34063   8.011   3.263   4.353 -0.3180  0.2252 -0.1128
17590W        W34064   3.417   5.796  13.297 -0.3485 -0.1800  0.1196
17591W        W34065  14.844   1.629  11.524  0.1396  0.1668  0.0885
17592W        W34066   4.912  13.637  11.423  0.0462 -0.1372  0.0084
17593W        W34067  11.409  11.185  12.439 -0.0497 -0.0751 -0.0132
17594W        W34068  17.427  10.874  14.696  0.1191 -0.2080  0.2887
17595W        W34069  12.109   1.394  14.092 -0.0559 -0.1764 -0.0057
17596W        W34070   1.827  11.108  12.978 -0.2502 -0.2931 -0.2174
17597W        W34071   1.686  12.328  12.846 -0.1326 -0.0851  0.1320
17598W        W34072  13.080   2.553   2.765  0.2170  0.1351 -0.0885
17599W        W34073  18.195   9.938  15.532 -0.0326  0.0115  0.2340
17600W        W34074  18.317  10.908  13.749 -0.3660 -0.0005 -0.0282
17601W        W34075  16.806   4.738   1.548 -0.0875  0.0860 -0.2886
17602W        W34076  10.134  13.146   4.020  0.1095 -0.1604 -0.0817
17603W        W34077   7.750  12.252  15.739  0.0788 -0.0687 -0.1696
17604W        W34078   4.798   2.890  13.240  0.1753 -0.2597 -0.3654
17605W        W34079   5.696   7.995   3.899  0.1515  0.2115 -0.1210
17606W        W34080   8.720  12.188   3.369 -0.1061  0.0399 -0.1486
17607W        W34081  10.094  11.642   2.248 -0.1107 -0.3353  0.0503
17608W        W34082   4.689   8.850  15.248  0.1726 -0.0749  0.1189
17609W        W34083   0.450   4.555  13.020  0.1675 -0.2744 -0.1241
17610W        W34084  14.708  12.224   2.550  0.0768 -0.1519  0.1685
17611W        W34085  10.527   7.737   3.040 -0.2823 -0.0085  0.2624
17612W        W34086   6.066   5.358   0.804  0.0958 -0.1827 -0.1891
17613W        W34087  14.619  16.776  13.129 -0.1144 -0.1470 -0.1441
17614W        W34088   9.679   6.706  14.837  0.0815 -0.2558 -0.0828
17615W        W34089   7.252  10.176   2.409 -0.2575 -0.2724  0.1867
17616W        W34090   6.027   1.056   1.672 -0.2309  0.0499 -0.0473
17617W        W34091   8.245  13.999   4.301  0.1945  0.1097  0.0405
17618W        W34092   5.675  13.584   1.164 -0.2425  0.2469 -0.0914
17619W        W34093   6.902  14.444  14.658  0.1240  0.0539  0.2044
17620W        W34094  10.807   4.378  13.678  0.3780 -0.0189 -0.0943
17621W        W34095   0.201  17.056  14.241  0.0899 -0.0792 -0.0314
17622W        W34096   1.605  14.436  12.417  0.0740 -0.0063 -0.1595
17623W        W34097   8.169   0.301  15.355  0.1322 -0.1047 -0.1249
17624W        W34098  14.652  13.471  13.431 -0.2972 -0.0451 -0.0683
17625W        W34099  14.042   7.444   5.329  0.1863 -0.4293  0.4421
17626W        W34100  14.983  10.688  15.874 -0.0125  0.1295  0.0010
17627W        W34101   0.880  14.533   1.036 -0.1260  0.0402 -0.4197
17628W        W34102  16.569   6.787   3.300 -0.2158 -0.1768 -0.0623
17629W        W34103  17.513   0.929   0.808  0.0242  0.4975  0.1237
17630W        W34104  16.401   2.739  12.867  0.0985 -0.1042  0.2826
17631W        W34105   2.394   7.335  14.587  0.0159 -0.0844 -0.1432
17632W        W34106   0.299  12.368  15.951  0.0098  0.0854  0.0497
17633W        W34107   0.175  11.256  12.343 -0.2467  0.0819  0.2153
17634W        W34108   3.345   2.054   4.853 -0.1605 -0.2679 -0.0161
17635W        W34109   7.747  10.769  12.904 -0.1481 -0.1606 -0.0277
17636W        W34110   0.316  16.602   1.418  0.1818 -0.0583  0.1112
17637W        W34111   8.026   0.454  11.483 -0.1403 -0.1696 -0.0630
17638W        W34112   6.632   9.050  11.024 -0.3238 -0.2456 -0.1329
17639W        W34113   5.062   3.615  11.911 -0.0589  0.0785 -0.3199
17640W        W34114  16.096   2.933  14.761  0.1496 -0.3344  0.1442
17641W        W34115   2.886  12.988   2.477 -0.2548 -0.0364  0.3714
17642W        W34116   5.651   7.728  13.095 -0.0982  0.3033  0.1439
17643W        W34117   1.767   2.487  14.912  0.1464  0.1498 -0.0057
17644W        W34118   1.721   8.907   0.130  0.1027  0.0173  0.3213
17645W        W34119   2.839  14.035   0.294 -0.0621 -0.1093  0.2483
17646W        W34120  10.644   0.832  11.303 -0.0089 -0.2321  0.0151
17647W        W34121   7.346   4.109  13.127  0.0453  0.1968  0.1271
17648W        W34122  16.121  12.254  14.838  0.0520  0.0234  0.1917
17649W        W34123   0.892   9.275  15.617  0.0516 -0.0681  0.1799
17650W        W34124   6.901   0.788   1.557 -0.2014 -0.1495  0.0069
17651W        W34125  11.197  14.393  12.918  0.0192 -0.0634  0.0585
17652W        W34126   7.724   3.936  14.650  0.0027  0.0392  0.0184
17653W        W34127   8.902   1.362   4.818  0.1981 -0.2409 -0.3711
17654W        W34128  13.827  14.327   5.903  0.1167  0.0793 -0.0576
17655W        W34129  14.834   8.248  15.283 -0.2120  0.1017 -0.0634
17656W        W34130  10.008   4.474  15.936 -0.3338  0.1106 -0.2813
17657W        W34131   0.863  16.531   4.105  0.2513  0.0214  0.4607
17658W        W34132  12.028   4.164  12.001 -0.0894 -0.3039 -0.1387
17659W        W34133  13.040   1.409   3.695 -0.1820  0.0887  0.1414
17660W        W34134  15.965   2.660  15.958  0.1532 -0.0784  0.0354
17661W        W34135  13.639   9.025   1.611  0.4803  0.6061 -0.1524
17662W        W34136   2.908   1.603  15.722  0.0214  0.0003  0.0390
17663W        W34137   1.588  17.563  11.572  0.3061 -0.2100 -0.3256
17664W        W34138   4.660   4.347   0.719 -0.0545  0.4793 -0.3573
17665W        W34139  10.323   5.440  11.305  0.1073 -0.2968  0.5052
17666W        W34140  16.565   2.185   2.844  0.0249 -0.2823  0.0073
17667W        W34141  16.174  14.944  14.948 -0.2185 -0.0357 -0.2285
17668W        W34142   3.174   7.693  10.403  0.0189 -0.0296  0.2480
17669W        W34143  11.925   0.562  14.436  0.3949 -0.1577  0.0643
17670W        W34144  12.239   9.852   2.546  0.2362  0.1242  0.2452
17671W        W34145  12.818   3.579  15.007  0.0087  0.1310 -0.0834
17672W        W34146   4.255   7.037   0.047 -0.0284 -0.1382  0.0083
17673W        W34147   6.441  13.686   5.044 -0.2212  0.0899  0.1113
17674W        W34148   5.200  12.318  13.908 -0.0946  0.1407 -0.2781
17675W        W34149   5.966   0.493  15.528  0.0494  0.0233 -0.1361
17676W        W34150   1.055  10.340  13.854  0.0993 -0.3130 -0.1428
17677W        W34151   6.673   3.408  11.284 -0.2967  0.3109  0.1155
17678W        W34152   4.950  15.614  15.697  0.2193  0.2764  0.0772
17679W        W34153  11.004  17.802  13.097 -0.2851  0.1988  0.0937
17680W        W34154  17.931   2.152  14.422  0.0162 -0.0596 -0.0043
17681W        W34155  15.962   1.357   2.876  0.0847  0.3406 -0.0570
17682W        W34156  11.849  10.959   4.258 -0.1732  0.3312  0.2671
17683W        W34157   5.389   5.702   1.164 -0.1531  0.0959  0.4333
17684W        W34158  14.381   2.821  15.925 -0.3225 -0.1078  0.3356
17685W        W34159   2.009  10.430   4.053  0.0372 -0.0036 -0.1434
17686W        W34160   2.672  10.355   4.148  0.0383 -0.0282  0.0055
17687W        W34161  14.070   6.348  12.853  0.1443 -0.1913  0.0261
17688W        W34162  12.078   2.055  12.914 -0.2524 -0.1098  0.3403
17689W        W34163  13.394  13.680   0.423  0.0624  0.1644 -0.0451
17690W        W34164  11.331  13.480   4.143 -0.0486  0.0824 -0.2264
17691W        W34165   6.592  13.935  13.614 -0.0253 -0.1377 -0.0112
17692W        W34166  18.262   8.468  12.021  0.2224  0.0227 -0.1871
17693W        W34167   2.422   8.910  12.482 -0.2914 -0.2463  0.2569
17694W        W34168   1.222   5.527   1.652  0.3288 -0.0992 -0.0292
17695W        W34169  18.313   7.132   1.512  0.1944 -0.0416  0.0493
17696W        W34170   1.770   1.176  11.298 -0.1310  0.1492 -0.0151
17697W        W34171   6.797   6.954  14.527 -0.2559 -0.1741  0.1944
17698W        W34172   1.520   2.422   2.322 -0.0108  0.1041  0.2058
17699W        W34173   3.729   3.493  12.803  0.0442 -0.0201 -0.1488
17700W        W34174   7.758  10.243  13.172  0.2401  0.0730 -0.1510
17701W        W34175   5.983   2.006   2.137 -0.0791 -0.0850 -0.3693
17702W        W34176   1.440  16.364   4.402 -0.1275 -0.0295  0.1313
17703W        W34177   6.258  10.160   2.966 -0.2535  0.0858 -0.0469
17704W        W34178   0.846  16.021  13.944 -0.0802 -0.1163  0.0363
17705W        W34179   6.630  12.208  12.179 -0.2670 -0.1119  0.2668
17706W        W34180   5.030  12.317  15.481  0.2567 -0.1122  0.0355
17707W        W34181   1.826  13.995  15.905 -0.1146  0.0505  0.1770
17708W        W34182   4.430   9.717   3.023  0.4058 -0.2058 -0.2154
17709W        W34183  13.990  17.713   3.721 -0.2617 -0.0764 -0.1603
17710W        W34184  15.977   2.256   3.011 -0.0668 -0.2414  0.0335
17711W        W34185   3.506   1.342  12.280  0.1870 -0.0994 -0.0369
17712W        W34186   6.944   0.181  12.142  0.2594 -0.0085  0.0099
17713W        W34187   6.286  17.926   5.511  0.1915  0.1038 -0.0515
17714W        W34188   6.382  15.082   5.500 -0.1040  0.1142 -0.0613
17715W        W34189  13.059   4.659   0.922  0.0499 -0.1923  0.2369
17716W        W34190  16.805  16.487   1.622  0.2012  0.0505  0.0095
17717W        W34191   5.619  13.080   1.037 -0.0864  0.0359 -0.1087
17718W        W34192   1.882  15.403   3.727 -0.0024  0.0622 -0.4472
17719W        W34193  14.217   2.196  13.399  0.0439  0.0761 -0.2386
17720W        W34194  18.320  13.989  11.639  0.0364  0.0773 -0.1861
17721W        W34195   1.445   3.649   2.950 -0.1025 -0.0337 -0.1222
17722W        W34196  12.291   2.392  12.595  0.0607 -0.1997  0.0164
17723W        W34197   5.717   0.983   4.348  0.1936 -0.1628  0.0025
17724W        W34198   2.261   0.696   1.595  0.0886 -0.2606  0.1391
17725W        W34199   6.562   4.694   5.434 -0.1558 -0.4506  0.1332
17726W        W34200  11.435   5.762   3.123 -0.6167  0.4660 -0.1170
17727W        W34201   1.961  13.350   1.626  0.1820  0.1411 -0.0367
17728W        W34202   0.861  12.373   0.766  0.1451 -0.4384  0.0360
17729W        W34203   1.818  16.114   0.918 -0.3691 -0.0037 -0.2120
17730W        W34204  12.222   0.435  13.907 -0.1047 -0.1870  0.2121
17731W        W34205  18.115   2.130  13.810  0.0416  0.0448 -0.1051
17732W        W34206  14.996  14.609   5.587  0.1077  0.0002 -0.0221
17733W        W34207   2.433  14.796   0.542  0.1604  0.0582 -0.2557
17734W        W34208  16.364  15.823  13.077  0.2311 -0.2358  0.1874
17735W        W34209  10.364  11.367   3.852  0.2038 -0.0702  0.0483
17736W        W34210   3.022  12.333   0.047  0.4440 -0.0549  0.0011
17737W        W34211   0.058  12.306  11.279 -0.0630  0.2499 -0.0463
17738W        W34212   3.973   9.156  14.517 -0.0596 -0.4014  0.1240
17739W        W34213   6.264  13.512  11.174  0.1573 -0.2504  0.1096
17740W        W34214  13.967   8.031  14.471 -0.1733  0.0569  0.2603
17741W        W34215   4.041   4.335  14.662 -0.1483 -0.1617 -0.0580
17742W        W34216  17.272   5.554  13.601  0.0853  0.2308 -0.1126
17743W        W34217   7.345   2.699   1.132  0.1680 -0.3303  0.0481
17744W        W34218   0.575   7.760   3.211 -0.0258 -0.1106  0.2090
17745W        W34219  17.474  14.837   5.090  0.2656  0.1281 -0.2608
17746W        W34220   7.698  10.508  11.623  0.2070  0.1483  0.0027
17747W        W34221  12.052  12.504   0.286  0.1417 -0.1793 -0.0801
17748W        W34222   8.251  10.016  12.510  0.1352 -0.2061 -0.3009
17749W        W34223   2.424   8.204  10.688 -0.1394  0.1341 -0.1516
17750W        W34224   2.771  16.848   4.436  0.0895  0.1157 -0.1168
17751W        W34225   3.511  10.542   4.327  0.0256 -0.4189 -0.0710
17752W        W34226  16.418   2.289   4.964 -0.1948 -0.0042 -0.1006
17753W        W34227   6.860   2.666  10.829  0.1652  0.3286  0.0508
17754W        W34228  17.468  16.722  11.695  0.0332  0.0838 -0.2800
17755W        W34229  16.942  18.234   0.060  0.1786 -0.5173  0.0514
17756W        W34230  16.428  14.631   2.733  0.0441  0.1076  0.0547
17757W        W34231  15.784  11.001   1.357 -0.1683 -0.1356 -0.1266
17758W        W34232   5.139  14.831   3.391  0.0280 -0.0064  0.2303
17759W        W34233  13.038   3.458   2.407  0.2540  0.3006  0.2070
17760W        W34234  17.798   8.872   3.972 -0.2965  0.0381  0.1645
17761W        W34235   7.083   2.021  13.753  0.0875 -0.2921 -0.0597
17762W        W34236   3.826   0.961  12.223 -0.2324 -0.0176  0.0341
17763W        W34237   9.882   0.468   0.763 -0.0269  0.3890 -0.0308
17764W        W34238  11.325   6.750   3.810  0.0073 -0.0786 -0.2218
17765W        W34239  15.123   5.685   0.915 -0.1078  0.2314  0.1976
17766W        W34240   3.525  10.810   2.836 -0.1331 -0.2331 -0.1017
17767W        W34241   0.801   8.734  15.784 -0.0747 -0.2105 -0.0870
17768W        W34242  14.394  17.891  15.940  0.1234 -0.3611  0.1629
17769W        W34243  12.449   0.347  11.060  0.0877  0.2230 -0.1308
17770W        W34244   6.024   5.506   5.241  0.0555  0.0451  0.1956
17771W        W34245  15.263   0.594  15.103  0.1431 -0.2594 -0.1215
17772W        W34246   6.506  17.465   1.974 -0.0186 -0.1047 -0.1554
17773W        W34247   4.318  14.845   1.661 -0.0547  0.0308  0.0721
17774W        W34248  10.394  13.052   3.613 -0.2843  0.2467  0.0916
17775W        W34249   5.044  18.256   4.773  0.1046  0.0854 -0.0082
17776W        W34250   1.516  10.001   3.263 -0.2205 -0.0191 -0.1608
17777W        W34251   6.946  13.197   1.016 -0.2461 -0.0335 -0.0036
17778W        W34252   1.674   5.064  12.888 -0.1955 -0.0909  0.1663
17779W        W34253  12.040   5.372  11.230  0.3337  0.2327  0.1892
17780W        W34254  11.696   1.602  14.308 -0.1322 -0.1088 -0.0071
17781W        W34255   4.451  18.098  12.319 -0.2662  0.0525 -0.0408
17782W        W34256  11.358   9.742  14.085 -0.1210 -0.0752  0.0361
17783W        W34257  18.282  14.822  12.287  0.1760  0.1498 -0.1880
17784W        W34258  13.032   5.360   0.564  0.1353 -0.1504  0.0444
17785W        W34259   7.198  12.562   1.675  0.0713  0.0818 -0.1589
17786W        W34260  15.333   3.802   0.660  0.2082  0.0536 -0.1691
17787W        W34261  17.132  17.901   5.058 -0.0241  0.1976 -0.2560
17788W        W34262   2.871  11.203  12.946  0.2032  0.2008 -0.0912
17789W        W34263  17.453   7.681  10.812 -0.0698  0.2240  0.0947
17790W        W34264   5.622   0.126  11.772 -0.0059  0.0432 -0.0706
17791W        W34265  10.245  15.086   3.729  0.0516  0.0239  0.3585
17792W        W34266  16.766  10.374  11.399 -0.2020 -0.0862  0.1530
17793W        W34267   1.860   7.936  11.289  0.0313 -0.1065 -0.1275
17794W        W34268   3.491  15.912   4.694  0.2124 -0.0147 -0.1080
17795W        W34269  17.074  18.429   1.029 -0.2703  0.0163  0.0472
17796W        W34270  13.660   7.236   2.537  0.1941 -0.1632  0.0245
17797W        W34271   0.013  10.417   0.398  0.1672  0.0023 -0.0922
17798W        W34272  13.538   0.620  15.767 -0.1967  0.1319  0.1338
17799W        W34273  12.540  16.036  14.263  0.1575  0.1382 -0.1207
17800W        W34274  11.130   8.161   3.404  0.3554 -0.1333  0.0181
17801W        W34275  12.536   8.577   3.699 -0.1955 -0.2624 -0.0575
17802W        W34276   8.167  16.932  12.759  0.3240  0.0128 -0.0401
17803W        W34277   8.083   8.229   0.069  0.1417 -0.0244  0.3378
17804W        W34278  10.299  13.989  11.770 -0.1199  0.1581 -0.0504
17805W        W34279  16.389   0.375   2.552  0.3474  0.0496 -0.0526
17806W        W34280   0.266  11.582  14.840 -0.2498 -0.0580 -0.0492
17807W        W34281   4.187   8.433  13.187 -0.1064  0.1927  0.1922
17808W        W34282   1.812  13.470  12.417 -0.2418 -0.1827 -0.2805
17809W        W34283   4.194  10.432   0.157 -0.0996  0.1478  0.0799
17810W        W34284  10.250   1.143   1.114 -0.0953  0.2095 -0.0515
17811W        W34285   8.218   0.037  11.788 -0.3165  0.0492  0.1411
17812W        W34286   6.459  12.823   1.045  0.1572 -0.2971  0.0456
17813W        W34287  16.316   8.276  14.746 -0.2292  0.1403 -0.0480
17814W        W34288   1.398   7.546   0.800  0.1880 -0.2268 -0.1532
17815W        W34289   9.695   9.214   2.569 -0.0072 -0.0678 -0.2707
17816W        W34290   2.099   3.950   4.089 -0.2232  0.1855 -0.1372
17817W        W34291  10.351   9.625  12.185  0.1616  0.0621 -0.2135
17818W        W34292   2.225   4.218  12.846 -0.0559 -0.0418 -0.1999
17819W        W34293   8.557   5.693  12.779  0.2074 -0.1183 -0.3321
17820W        W34294   2.290  13.332   5.270  0.0488 -0.3392 -0.0823
17821W        W34295   2.085   7.142   4.227 -0.2163 -0.0336 -0.0962
17822W        W34296   5.582   2.603  10.623 -0.1118  0.1678  0.2824
17823W        W34297   6.925   4.625   3.930  0.0905 -0.0438 -0.3803
17824W        W34298  13.461   8.525   2.711  0.1192  0.0334  0.1387
17825W        W34299   6.432  14.209  11.605  0.0692  0.0624  0.1318
17826W        W34300   9.800   1.722  11.028  0.0287 -0.4198 -0.0520
17827W        W34301   1.790  12.927  15.420  0.0638 -0.1353  0.2004
17828W        W34302   7.474   5.691  15.911  0.0919  0.2865 -0.0175
17829W        W34303  11.465   1.996  13.360 -0.1260  0.4406  0.1532
17830W        W34304  16.411  15.422   3.929 -0.1091  0.1975 -0.1773
17831W        W34305   0.395  12.121  10.303  0.2869 -0.0911 -0.1093
17832W        W34306   7.703   9.073   0.160  0.3921  0.1696  0.0729
17833W        W34307  15.625   6.408   2.510 -0.0542 -0.1239 -0.0250
17834W        W34308  10.609   8.108  12.308 -0.1874  0.1472  0.0890
17835W        W34309  13.481  14.068   2.247 -0.1472  0.0631  0.0617
17836W        W34310  15.685  10.962  12.765  0.4951 -0.0346  0.0015
17837W        W34311   5.680   8.909  14.858  0.1287  0.0205  0.0912
17838W        W34312  14.596  12.607   4.681 -0.0295 -0.2198  0.1334
17839W        W34313   5.061   7.888  10.815 -0.2285  0.1109 -0.0393
17840W        W34314  15.772   0.823  12.530  0.1403  0.2722  0.1310
17841W        W34315   1.239   9.793   0.207 -0.0152  0.0168 -0.1945
17842W        W34316  11.952  12.751   5.509 -0.1655 -0.1050 -0.3817
17843W        W34317   1.851  10.943   2.391 -0.0159  0.0179  0.1186
17844W        W34318   9.920  14.744   0.149  0.1019 -0.0251  0.1750
17845W        W34319  15.420  10.004   4.875 -0.0313 -0.2931 -0.0115
17846W        W34320   4.688   9.759   4.023  0.1942  0.2283 -0.1417
17847W        W34321   3.514   8.055  14.258 -0.0438 -0.1907  0.1102
17848W        W34322   4.153   7.958  11.914 -0.1104 -0.0766 -0.1834
17849W        W34323   6.233  15.895  10.053  0.1994 -0.2067 -0.0328
17850W        W34324  17.330  14.743  11.263  0.0860  0.3820  0.3381
17851W        W34325  11.154  11.617  11.213 -0.2382  0.3879  0.0064
17852W        W34326  12.321  11.370   0.892  0.1596  0.1372 -0.1324
17853W        W34327   4.661  14.061   1.775  0.0022 -0.1554 -0.0552
17854W        W34328   8.259  14.267   4.846 -0.1702  0.1299  0.1691
17855W        W34329  13.099  13.183   4.653 -0.0431  0.1294 -0.1712
17856W        W34330   2.027   5.928  14.642 -0.1108 -0.1124 -0.0670
17857W        W34331   3.693  10.622  11.915 -0.4543 -0.0960 -0.2656
17858W        W34332   0.199   2.896   3.630 -0.1909 -0.4127  0.2593
17859W        W34333   9.426  12.617   3.732 -0.0971 -0.0792  0.2369
17860W        W34334   0.612   3.173  15.312 -0.2494 -0.2320 -0.2810
17861W        W34335  14.044  11.559   1.354 -0.2427  0.2242  0.2026
17862W        W34336   5.379   6.372   0.307 -0.0130  0.2087 -0.2229
17863W        W34337  14.226   9.990  14.846  0.1351 -0.0067  0.0389
17864W        W34338   0.159  14.392  11.607 -0.1372  0.0290  0.1393
17865W        W34339   5.237   5.988   4.251  0.0016  0.0868  0.4086
17866W        W34340   6.843   8.482  12.701 -0.0962 -0.3955  0.2719
17867W        W34341  16.612  13.160  14.467  0.0584  0.1128  0.3078
17868W        W34342   7.089   8.950  12.836  0.2524 -0.0896 -0.0495
17869W        W34343  13.863   5.994   2.352  0.0682  0.3354  0.1212
17870W        W34344  17.042   1.461  15.651  0.1192 -0.1233  0.2195
17871W        W34345  15.882   9.133  12.852  0.1734 -0.1482 -0.0318
17872W        W34346  17.842  14.647   0.915  0.1670 -0.0526 -0.5065
17873W        W34347   7.511  16.714   2.152  0.1446  0.2988  0.0458
17874W        W34348  11.196   0.344  13.828 -0.0675  0.0189 -0.2723
17875W        W34349   3.055   4.817  11.579 -0.2263  0.1540 -0.1810
17876W        W34350  16.809   9.776  13.942  0.1619  0.0895 -0.0146
17877W        W34351  12.935  12.614   0.023 -0.0620 -0.1400  0.0127
17878W        W34352   3.326   2.974  10.994 -0.0607 -0.2112 -0.0784
17879W        W34353   8.662   3.168  11.057  0.2791  0.1252  0.0305
17880W        W34354  18.377   9.309  13.042  0.0566 -0.1646 -0.1429
17881W        W34355  11.007   8.332  15.963 -0.0119 -0.2496 -0.0060
17882W        W34356   2.236  15.366   4.136 -0.1562 -0.1504  0.0259
17883W        W34357   7.635  15.147  12.620  0.1379 -0.0981 -0.0585
17884W        W34358  14.128   7.830   1.010 -0.2634 -0.1867 -0.0562
17885W        W34359  16.002  16.657  12.688 -0.2331 -0.1568 -0.0729
17886W        W34360  11.947  13.968   0.613  0.0444 -0.2903 -0.0581
17887W        W34361  12.385   9.410   2.510  0.0785 -0.1907  0.0450
17888W        W34362   6.953   8.369  13.585 -0.1138 -0.0849 -0.2312
17889W        W34363  16.092   1.908  11.682 -0.1143 -0.0220 -0.0618
17890W        W34364   3.896  13.234  12.842 -0.0925 -0.0101 -0.1709
17891W        W34365   3.955  17.079   2.155  0.4240  0.1020  0.2751
17892W        W34366  10.185   7.212   1.364 -0.1248  0.1999  0.0237
17893W        W34367   4.548   4.402  14.513  0.0815  0.0433 -0.0287
17894W        W34368  11.719   3.153  15.209 -0.0290 -0.3502 -0.2335
17895W        W34369   9.338   0.185  15.880 -0.2031 -0.0128 -0.1779
17896W        W34370   8.194  11.418   0.529 -0.1030  0.0318  0.0016
17897W        W34371   3.415  12.631  12.292  0.2582  0.3103  0.0124
17898W        W34372  16.707   5.725   3.414 -0.3017 -0.3039  0.0847
17899W        W34373   9.973  16.017   0.814 -0.0944 -0.1008  0.0751
17900W        W34374   2.898  17.182   4.038 -0.0545 -0.1134 -0.0830
17901W        W34375   4.807  17.382  11.793  0.2214  0.1563  0.0063
17902W        W34376  16.591   2.975   2.238  0.0945 -0.1235  0.1762
17903W        W34377   5.834  12.031   1.647  0.1827 -0.2662 -0.1852
17904W        W34378   4.160   9.581  12.036  0.2802 -0.0569  0.0910
17905W        W34379   5.866   7.461   1.044 -0.0824 -0.0325 -0.1976
17906W        W34380   8.340  11.577  13.760 -0.1917  0.1812  0.0337
17907W        W34381  10.390  11.775  11.489 -0.0090 -0.1661  0.3039
17908W        W34382   4.770  11.426  14.387 -0.2801 -0.0205 -0.1465
17909W        W34383   0.549  15.753   3.726 -0.1025  0.1181 -0.0570
17910W        W34384   4.674  11.169  12.503  0.1030  0.0907  0.0549
17911W        W34385   9.768  17.128  10.200  0.0649  0.0143  0.1520
17912W        W34386   1.722  16.779   4.315  0.1342 -0.3058  0.0366
17913W        W34387  10.422   9.242  13.868  0.3457  0.3312  0.2984
17914W        W34388   6.447   5.631  11.462  0.0954  0.0553 -0.0280
17915W        W34389  15.747  15.026   3.518 -0.4476 -0.0588  0.1766
17916W        W34390  10.817  13.318   5.025 -0.0247  0.0623 -0.0152
17917W        W34391  12.204  10.932  15.460  0.1585 -0.0202 -0.0956
17918W        W34392  13.782  10.420  12.985 -0.1191  0.4057  0.0889
17919W        W34393   0.309   2.927  12.948 -0.0730 -0.1591  0.4356
17920W        W34394   0.552  16.540  14.622  0.0638 -0.4078  0.0077
17921W        W34395   7.123  18.228   4.494 -0.1611  0.3655 -0.1446
17922W        W34396  14.729   8.885   4.413  0.0464 -0.0479  0.0364
17923W        W34397  14.126   6.061   4.356 -0.0427 -0.0659 -0.5013
17924W        W34398  13.664   7.318  13.041 -0.1168 -0.2198 -0.0051
17925W        W34399   4.734  16.458  12.735 -0.0207 -0.1324 -0.1019
17926W        W34400   1.467   9.624  13.674 -0.1742 -0.1517 -0.0851
17927W        W34401   5.866   1.497  14.891 -0.3121  0.1754 -0.1058
17928W        W34402   7.784   5.787  10.995 -0.2030  0.0715  0.3231
17929W        W34403   9.823   1.652  12.726 -0.3040 -0.2366  0.1971
17930W        W34404  15.006   9.194   1.866  0.1112  0.3570  0.1452
17931W        W34405   2.385   7.910   2.433  0.1371  0.0535 -0.4017
17932W        W34406  12.651  10.798   3.568 -0.2841 -0.0163 -0.2428
17933W        W34407  11.117   1.744   2.885 -0.1852 -0.1699 -0.0679
17934W        W34408   5.314   1.427   4.332 -0.1555  0.0998  0.0124
17935W        W34409  14.488   7.424  14.979 -0.1000 -0.0983 -0.0879
17936W        W34410   2.271   9.437  11.054 -0.0199 -0.1862 -0.1119
17937W        W34411   5.585  10.120  10.747 -0.0708 -0.4090  0.1036
17938W        W34412   2.396   3.768  13.046 -0.1244 -0.0887  0.1437
17939W        W34413   6.395   9.650   5.362 -0.0725  0.2721 -0.3132
17940W        W34414  13.053   2.329   1.702 -0.0641  0.0552  0.2934
17941W        W34415   6.332   3.998  15.801  0.5554  0.1353 -0.0394
17942W        W34416   3.942  13.145   0.349 -0.0255  0.0576 -0.1968
17943W        W34417   1.781  12.520  11.910 -0.1026  0.0488  0.1243
17944W        W34418   5.682   7.323  13.957  0.1778  0.0231 -0.1588
17945W        W34419  13.420  17.408  11.267 -0.0453  0.2640  0.1646
17946W        W34420  15.852  12.380   0.770  0.1642 -0.1225  0.1277
17947W        W34421   8.214   5.414   3.942 -0.0510 -0.0198 -0.1590
17948W        W34422   3.011   1.488   3.664 -0.1737  0.0274 -0.1815
17949W        W34423   6.470   3.565  12.920 -0.1383 -0.1759  0.0600
17950W        W34424   4.267   7.830   2.680 -0.1145 -0.0207 -0.1415
17951W        W34425   1.605  14.595   3.495  0.1454  0.0014  0.0935
17952W        W34426  16.863   2.286  15.516 -0.1295  0.0273  0.0831
17953W        W34427  17.167  14.494  12.878  0.2494  0.1083  0.4713
17954W        W34428   5.610  11.394   0.952  0.1337 -0.0400  0.0286
17955W        W34429  10.282  12.413  13.641 -0.0047  0.2187 -0.1628
17956W        W34430   8.533  11.754  12.983  0.0749  0.0927  0.0075
17957W        W34431  15.385  14.750   3.825 -0.0190 -0.1185  0.2329
17958W        W34432  14.250  11.940  14.113 -0.1204  0.0989 -0.2553
17959W        W34433   7.641  18.239  12.611  0.0985 -0.0234  0.0945
17960W        W34434  13.402  13.245  15.437  0.0346 -0.1214  0.1880
17961W        W34435   7.375   4.639   3.057  0.0632 -0.2028  0.2073
17962W        W34436  11.647   1.812  12.919  0.0688 -0.3193  0.0582
17963W        W34437  15.657   9.214   0.671 -0.0059  0.0257  0.3688
17964W        W34438  13.293  17.566   4.550  0.2312 -0.0748 -0.1067
17965W        W34439  14.511  12.683  14.232 -0.2208  0.3237 -0.0871
17966W        W34440   9.246   1.426   2.530 -0.3519 -0.1108 -0.1558
17967W        W34441  13.156   0.938  14.432 -0.3756  0.1722  0.1057
17968W        W34442  10.849  12.350   1.098  0.3046 -0.3154 -0.0834
17969W        W34443   5.848   5.179   4.193 -0.0790 -0.0103  0.0596
17970W        W34444   2.425   5.893  11.246  0.1375 -0.0163 -0.1033
17971W        W34445   6.760   4.492  11.741 -0.1275  0.0916  0.0450
17972W        W34446  16.873  17.568   4.345  0.2657  0.1220 -0.0009
17973W        W34447  12.947  13.618  15.690 -0.0169 -0.2072 -0.2171
17974W        W34448   2.808   1.308  10.631 -0.2676  0.0791 -0.0962
17975W        W34449  18.254   4.585   4.617  0.2731 -0.1155  0.1406
17976W        W34450   3.933  13.992  14.061 -0.1308  0.0101 -0.5028
17977W        W34451   5.178   1.409   0.156  0.1939 -0.2555 -0.2755
17978W        W34452  15.670   7.687  12.064 -0.2523 -0.3797  0.2952
17979W        W34453  14.616   4.301  10.766 -0.1170  0.1639 -0.2411
17980W        W34454   1.339  13.055  14.063  0.4546 -0.0832  0.0365
17981W        W34455   1.075   6.039   1.485  0.2074  0.0429  0.0586
17982W        W34456  14.254   2.922  14.060  0.0291  0.0496  0.0444
17983W        W34457   9.960   5.569  15.246 -0.1924 -0.3274  0.0933
17984W        W34458  15.674   6.938   2.459  0.2147  0.0833 -0.0909
17985W        W34459   6.176   0.939   3.282 -0.1746  0.0391 -0.1394
17986W        W34460   0.463   0.882   5.196 -0.3522  0.0329  0.0562
17987W        W34461   3.755   9.781  13.336  0.1880 -0.0214  0.0659
17988W        W34462  17.703  13.886   0.549 -0.0833  0.3399  0.0703
17989W        W34463   6.693  13.033   1.538 -0.0814  0.2161 -0.1459
17990W        W34464   3.614   5.050   4.685  0.0893 -0.1236  0.1328
17991W        W34465   8.705   6.218   0.421 -0.1858  0.4114  0.0202
17992W        W34466  17.138   7.645   4.074 -0.2900 -0.0040  0.3866
17993W        W34467   1.698  18.463   0.095  0.0961 -0.2019  0.0249
17994W        W34468  12.849  12.991   0.374 -0.1399  0.0303  0.0684
17995W        W34469  11.459   7.525  14.111  0.0412  0.0110  0.0515
17996W        W34470   8.482  17.193   5.786 -0.0119 -0.1228  0.1384
17997W        W34471   3.842  17.744   3.354  0.0474 -0.1301  0.2853
17998W        W34472   7.437  13.736  11.800  0.1353 -0.1702 -0.0037
17999W        W34473   2.755   6.414  14.778 -0.0304 -0.2440 -0.0303
18000W        W34474  13.032  12.629  11.934 -0.0054  0.1164 -0.1598
18001W        W34475  13.326  13.995   2.727  0.0159  0.2031  0.1200
18002W        W34476   1.203  11.413   4.598 -0.0104 -0.0138 -0.3553
18003W        W34477   9.459   1.061  15.342 -0.1208 -0.0375  0.0260
18004W        W34478  14.155  17.770   4.720 -0.1398 -0.1078  0.1337
18005W        W34479  18.201  17.656   4.283 -0.3748 -0.1180 -0.1161
18006W        W34480  10.910  16.469   0.851 -0.4794 -0.0696 -0.0098
18007W        W34481  13.837  12.678   1.012  0.0595 -0.1709 -0.0367
18008W        W34482  10.194  17.432  13.930 -0.3908 -0.2377 -0.0103
18009W        W34483   8.277   0.508  13.733  0.0060  0.2891 -0.4258
18010W        W34484  18.301  16.552   0.961 -0.0642 -0.1363  0.1318
18011W        W34485  11.414  14.859  14.992  0.1890 -0.1026 -0.1714
18012W        W34486   1.147  18.102  13.657  0.1099 -0.2996 -0.2959
18013W        W34487  16.664   1.338  10.939 -0.0189  0.0064  0.0599
18014W        W34488   0.354  14.692   2.784  0.0482 -0.0316 -0.1531
18015W        W34489   4.377  15.114   5.556  0.2215  0.0523 -0.0296
18016W        W34490   3.191  13.333   4.221 -0.0135 -0.0424 -0.0364
18017W        W34491  18.398   6.296   5.212 -0.0560 -0.0276 -0.0418
18018W        W34492  10.568   5.070   4.171  0.4317 -0.1261 -0.1890
18019W        W34493  16.953   7.464  10.900 -0.1158  0.0161  0.0975
18020W        W34494  16.953  12.859  14.707  0.0058  0.0458 -0.0263
18021W        W34495   6.109   4.976   1.154 -0.1320 -0.2587  0.2461
18022W        W34496   1.874   2.212  12.217  0.2306  0.2371 -0.0792
18023W        W34497  10.053  17.596  12.875 -0.1194 -0.4150 -0.1032
18024W        W34498   4.768  12.578  11.481  0.2806 -0.0787  0.0902
18025W        W34499  18.007   8.899   5.528  0.2253 -0.0432 -0.0671
18026W        W34500  13.223  17.550   2.822 -0.0423  0.0370  0.1337
18027W        W34501  10.173  18.227  14.351  0.0422 -0.2352 -0.0496
18028W        W34502   4.021   0.942  15.783  0.1487 -0.3304 -0.2559
18029W        W34503  15.926  14.432   5.255 -0.1347  0.1393  0.1836
18030W        W34504   6.362  17.920  11.452  0.1929 -0.3177 -0.3043
18031W        W34505   8.822   6.107  12.912 -0.0744  0.0299  0.0934
18032W        W34506   5.209   1.875   2.425 -0.0999 -0.0838 -0.1866
18033W        W34507   7.699  11.010   4.720  0.0781  0.0216  0.0855
18034W        W34508   1.146   8.823  14.062  0.0466  0.1364  0.0200
18035W        W34509   3.394  11.428   2.947  0.0273 -0.1170 -0.2235
18036W        W34510  18.356   3.450  15.712  0.3463 -0.1434  0.3149
18037W        W34511  18.290   5.997  14.098 -0.0127  0.1448  0.3320
18038W        W34512  12.749   8.852  14.081 -0.1618  0.0537 -0.0617
18039W        W34513  12.765   9.039   2.565  0.1689  0.1288  0.3471
18040W        W34514  10.423   1.503  14.147  0.2592  0.0989  0.0934
18041W        W34515   4.098  16.713   3.271 -0.1120 -0.3317  0.0583
18042W        W34516  15.806  17.744   2.249 -0.3696 -0.0757 -0.1031
18043W        W34517  18.448   8.884   6.196  0.2317 -0.1801 -0.0809
18044W        W34518  11.408   4.803  12.352 -0.0169  0.1514  0.3533
18045W        W34519  12.085   0.711   4.648  0.2686 -0.4448 -0.1983
18046W        W34520  13.531  12.876  11.987  0.0693 -0.1556  0.0382
18047W        W34521  13.088   2.018  12.922  0.0334 -0.0501 -0.1798
18048W        W34522  17.633   1.302   5.633 -0.2267  0.0870 -0.1699
18049W        W34523   2.398  13.935   4.022  0.2068  0.1728  0.2026
18050W        W34524   7.129   8.660  14.822  0.4182 -0.0926 -0.0908
18051W        W34525  15.073  12.451   4.627  0.0593  0.0837 -0.2493
18052W        W34526   3.493   5.369   0.656 -0.2371  0.0294  0.3001
18053W        W34527   8.786  13.536  12.886 -0.1256  0.1158 -0.1112
18054W        W34528   8.825   2.133  10.563  0.0763  0.0122  0.0881
18055W        W34529   6.609   8.696   2.008  0.1690 -0.0342  0.0718
18056W        W34530  16.901  10.576  14.438 -0.1573 -0.1512 -0.3582
18057W        W34531   8.612   6.431   4.728 -0.0603  0.0485 -0.0504
18058W        W34532   4.291   8.852  15.577 -0.1967 -0.1483  0.2107
18059W        W34533   2.147   5.996  10.205  0.0060 -0.3271 -0.0144
18060W        W34534   0.759  10.247   5.410 -0.1235  0.1901  0.0376
18061W        W34535  16.613  14.289  15.358  0.2103  0.1307 -0.0169
18062W        W34536   3.280   7.450  14.795 -0.1122 -0.0087  0.0396
18063W        W34537   1.273  16.361   0.243  0.0581 -0.1112  0.0137
18064W        W34538   3.419  15.795  12.391 -0.0697  0.1120 -0.0088
18065W        W34539  16.396  18.137  13.620 -0.1813 -0.1913  0.2802
18066W        W34540  14.436   3.467   2.922  0.0326  0.1595 -0.1510
18067W        W34541  15.499   0.934  14.758 -0.2027 -0.0013  0.2459
18068W        W34542   3.158  16.492   4.548 -0.0267  0.0015  0.0473
18069W        W34543   1.381   3.419   0.751  0.2181  0.1013  0.1521
18070W        W34544   0.152   7.670  11.649 -0.3040 -0.1426  0.2194
18071W        W34545  15.431  12.581   2.151 -0.2788  0.2462  0.0774
18072W        W34546   5.303   9.023  14.434  0.0040 -0.1509 -0.1032
18073W        W34547   2.120  15.147   3.219  0.1349  0.4598 -0.2000
18074W        W34548   9.697   7.558  15.142 -0.2552  0.1634 -0.0505
18075W        W34549   0.770  16.979   2.258  0.0429 -0.2648  0.0094
18076W        W34550  16.297   1.761   2.814 -0.0402  0.0552 -0.1092
18077W        W34551   6.450   7.681   0.217  0.4761 -0.2657 -0.0902
18078W        W34552   9.546  15.750   0.534  0.1435 -0.2771 -0.0840
18079W        W34553   6.955   2.551  13.948 -0.3855  0.1041 -0.1829
18080W        W34554   5.548  11.301   3.885  0.1302 -0.1624 -0.1973
18081W        W34555  12.298  12.270   1.517  0.0381  0.1114 -0.1452
18082W        W34556  14.329  13.188   1.878  0.0134 -0.0708 -0.2758
18083W        W34557   5.277   0.608  13.179 -0.2760 -0.2479 -0.1111
18084W        W34558  15.578  15.182  15.468  0.3109  0.1214  0.0501
18085W        W34559  10.272   1.672  13.595 -0.0664 -0.0383  0.1645
18086W        W34560  14.723   5.603  12.426  0.1136  0.3107 -0.2613
18087W        W34561   8.135   0.556  11.953 -0.0807  0.0281  0.0120
18088W        W34562   4.400   9.209   5.304 -0.1136  0.0758  0.0701
18089W        W34563  16.166   7.600  14.141 -0.1291  0.0588 -0.0499
18090W        W34564   5.712   0.709   2.267 -0.0171  0.1139 -0.1683
18091W        W34565  17.676   6.454   6.033  0.2927  0.0415 -0.5159
18092W        W34566  16.376   0.590  15.515 -0.2783  0.1158  0.0088
18093W        W34567  11.367   9.001   4.133 -0.1379  0.0452 -0.2589
18094W        W34568   0.530  13.203  12.761  0.0263 -0.0872  0.1453
18095W        W34569   2.456   2.814  14.285 -0.1846 -0.0034  0.1135
18096W        W34570   7.588   1.991   0.931 -0.2141 -0.2555  0.1648
18097W        W34571   7.122   6.441   3.405  0.1499 -0.0497 -0.0101
18098W        W34572  17.469  13.460   2.790 -0.0918 -0.2185  0.1224
18099W        W34573  10.976  11.339   0.297 -0.0138  0.0704  0.1582
18100W        W34574   3.962   1.922  15.019 -0.1466  0.0142  0.0063
18101W        W34575  16.636  10.155   3.960 -0.0824 -0.2211  0.0930
18102W        W34576  13.917  12.644  11.722  0.0817  0.1470  0.2785
18103W        W34577  15.384  17.249  12.143 -0.2458  0.0606 -0.0391
18104W        W34578  11.338  16.704  13.233 -0.0660 -0.0210  0.0242
18105W        W34579  17.489  15.306  12.001  0.1733 -0.0135  0.1006
18106W        W34580  12.948  15.788  12.898  0.3623 -0.3071 -0.1567
18107W        W34581   5.330   2.227   1.144  0.1284 -0.1102  0.0772
18108W        W34582   4.831  16.169  14.965 -0.0417  0.1132  0.1482
18109W        W34583  16.809  17.470   5.328  0.0930 -0.0242  0.1144
18110W        W34584   8.095   6.385   4.744 -0.0754  0.2191  0.2656
18111W        W34585   0.041   5.458   0.035 -0.3324  0.2284 -0.1118
18112W        W34586   2.303  11.845  13.406  0.4406  0.0767  0.1808
18113W        W34587  11.678  18.046   1.511  0.2969 -0.0063  0.1134
18114W        W34588  10.736   3.069  13.243  0.2144  0.5216 -0.1602
18115W        W34589   4.635   6.812  14.411 -0.2968 -0.0339 -0.1678
18116W        W34590  14.877  10.776  12.048  0.0830  0.1364 -0.1534
18117W        W34591  14.825   4.774  14.836 -0.0293  0.1552  0.0431
18118W        W34592  15.668   0.174   1.378 -0.0116 -0.1005 -0.2898
18119W        W34593  16.244   0.658   5.028 -0.2542  0.2269 -0.3124
18120W        W34594  10.652   9.396  15.607  0.2388 -0.0740 -0.2275
18121W        W34595  10.786  12.767  12.983 -0.0102  0.1170  0.1599
18122W        W34596   2.796  12.319  11.797 -0.0839  0.3082  0.1729
18123W        W34597   3.738   5.937  13.958  0.2964 -0.1667  0.1761
18124W        W34598   5.685   9.732   4.636 -0.1480 -0.0300  0.3672
18125W        W34599   8.796   3.895  13.685  0.1923 -0.0975  0.2240
18126W        W34600   8.633  14.617  15.360  0.1519  0.2637 -0.0019
18127W        W34601   0.583  12.197   5.099  0.1992 -0.4514 -0.1341
18128W        W34602  17.705  17.883   2.774 -0.2854  0.5316 -0.0955
18129W        W34603  10.280   6.437   0.797 -0.0719  0.2811 -0.5071
18130W        W34604   3.403   5.299   3.961 -0.2433  0.0940  0.3850
18131W        W34605  11.829   3.894   2.577 -0.2070  0.1153  0.1797
18132W        W34606  12.407   3.262   5.437 -0.2801  0.5140  0.0912
18133W        W34607  15.592   1.202  12.216 -0.0966 -0.3804  0.0520
18134W        W34608  14.184   2.491   0.252  0.2396  0.3228 -0.0047
18135W        W34609  14.906   8.310   3.265  0.0946 -0.0955  0.0325
18136W        W34610   4.914   7.655  13.964 -0.2275  0.2038 -0.1916
18137W        W34611   7.640   1.249   3.696 -0.0036  0.1771  0.0342
18138W        W34612   5.692   1.211   2.060  0.2853  0.1089 -0.3299
18139W        W34613   7.022  11.214  11.122 -0.1212  0.1558 -0.2595
18140W        W34614   2.180   6.213  15.620  0.0278 -0.2703 -0.0254
18141W        W34615  16.011   4.375   3.770  0.0192  0.0596 -0.0200
18142W        W34616   1.294  14.686   0.813 -0.1946 -0.1881  0.0772
18143W        W34617  14.229   2.116  13.953  0.1496 -0.1311  0.0416
18144W        W34618  10.480  10.541  13.171  0.0739  0.0218 -0.0469
18145W        W34619   3.787   8.899  12.828  0.0701  0.0212  0.0181
18146W        W34620   0.468  17.724   5.941  0.0867  0.0865 -0.0051
18147W        W34621  17.771  12.700  11.890  0.1711  0.0320  0.1224
18148W        W34622   1.089   8.007   2.117 -0.3847  0.1007 -0.1430
18149W        W34623   5.465   9.066   1.611 -0.0595 -0.1413 -0.1328
18150W        W34624   1.593  18.377  14.520  0.1903  0.0162  0.0681
18151W        W34625  13.394  17.149  11.810 -0.0060 -0.1181 -0.0936
18152W        W34626   6.777  11.006  10.660  0.2055  0.1605  0.2803
18153W        W34627  10.190   4.584  10.978  0.0332  0.2726  0.1681
18154W        W34628   3.177  18.247   4.494  0.0986  0.0684  0.0012
18155W        W34629  13.164   7.111   3.237 -0.0277 -0.1734  0.1158
18156W        W34630   7.013  16.455  15.680  0.1277 -0.0051  0.0003
18157W        W34631   4.755   1.784   4.571 -0.0384  0.0048  0.0314
18158W        W34632   7.330  15.865  13.698 -0.2655  0.1537  0.0431
18159W        W34633  10.194  13.800   3.272  0.0158  0.0537 -0.0454
18160W        W34634  10.788  15.079   4.512 -0.3389  0.0556 -0.2603
18161W        W34635  18.239   1.295   4.387  0.0758  0.3027 -0.2383
18162W        W34636   1.338   6.467   0.729  0.2961 -0.1701  0.1140
18163W        W34637  11.207  11.479   0.714  0.0086  0.2443 -0.2585
18164W        W34638   0.363  12.281  12.223 -0.1252 -0.0422 -0.2160
18165W        W34639   3.992   6.365  11.914  0.0283 -0.2514 -0.2801
18166W        W34640  12.260   7.709   2.144  0.0699  0.3025  0.2188
18167W        W34641   6.677  11.506  14.755  0.1000 -0.0835  0.5659
18168W        W34642  15.454  13.040  13.463  0.2100  0.0888  0.0632
18169W        W34643  10.397   0.723  15.337 -0.1026 -0.4509 -0.3321
18170W        W34644   1.719   4.164   4.389  0.0757  0.0913  0.1126
18171W        W34645   2.980   9.249  15.538 -0.5177  0.1568  0.2036
18172W        W34646   3.768  12.481   4.427 -0.5004  0.0019  0.2892
18173W        W34647  18.259  14.468  13.047 -0.0241 -0.0620 -0.0843
18174W        W34648   8.012   2.143   4.048  0.1398  0.0543  0.0196
18175W        W34649  12.732   6.512  14.970 -0.0825 -0.1498 -0.1445
18176W        W34650   1.901   4.903   4.169 -0.0023 -0.1284 -0.0711
18177W        W34651  16.212   4.739  15.232  0.1009 -0.0686 -0.0127
18178W        W34652   4.327   9.668   1.579  0.1480  0.3169  0.0773
18179W        W34653   7.695  12.459  11.286 -0.2370 -0.2022 -0.0546
18180W        W34654   8.709  14.194  12.781  0.1496  0.1259  0.2851
18181W        W34655  10.328   8.117   0.575 -0.0741  0.1207  0.0422
18182W        W34656   0.160   3.792   3.354  0.1661 -0.1185 -0.1140
18183W        W34657   2.172   1.140   0.341 -0.1215 -0.2092 -0.1445
18184W        W34658   9.386   0.077  14.484 -0.0690 -0.2623  0.2302
18185W        W34659  14.029  16.473   0.353  0.2567  0.2106 -0.3488
18186W        W34660   5.131  16.954   4.639 -0.0880  0.0400 -0.0992
18187W        W34661  10.054   7.744   3.297  0.0566  0.0727 -0.0920
18188W        W34662   9.890  10.344   3.235  0.0486  0.0749  0.0488
18189W        W34663   7.626  14.173  14.292  0.1275  0.1402 -0.1268
18190W        W34664  10.699   1.892  12.846 -0.1083 -0.0310 -0.0765
18191W        W34665  15.110  14.126   4.668  0.1231  0.1243 -0.0471
18192W        W34666  17.264   3.190   2.702  0.0375 -0.2705  0.0368
18193W        W34667  11.201   0.041   3.638 -0.0196 -0.1437  0.0437
18194W        W34668   5.978  15.466   1.606 -0.2191  0.0438  0.2802
18195W        W34669   5.612   1.185   4.773  0.2412  0.1781  0.3157
18196W        W34670  10.171   8.540   4.286  0.1293  0.3174  0.1514
18197W        W34671  15.218  18.101  12.258  0.0702  0.0598  0.0410
18198W        W34672   3.636   8.290  14.665  0.0539 -0.2233  0.1213
18199W        W34673   5.300  10.314  12.024  0.0042  0.1163  0.2480
18200W        W34674   2.367   5.435  13.535 -0.0631  0.0322  0.1612
18201W        W34675   3.024   2.440   2.760  0.0066 -0.2250 -0.3897
18202W        W34676  15.489   5.705  13.692 -0.0410 -0.2704  0.0254
18203W        W34677  15.341  17.761   2.377  0.1403  0.1268  0.3198
18204W        W34678   8.153  10.017   3.869 -0.1628 -0.1497  0.3447
18205W        W34679  16.915   3.368  15.401  0.0288  0.1529 -0.0640
18206W        W34680  11.611   3.370  13.105  0.1023 -0.2607 -0.1764
18207W        W34681  14.312   4.889  14.825  0.0706 -0.3401 -0.0397
18208W        W34682  13.463  11.032   2.589  0.2887  0.3642  0.2703
18209W        W34683   9.647   1.436   1.557  0.0580 -0.2958 -0.2499
18210W        W34684  12.080  17.826   3.785  0.1197 -0.1117  0.2110
18211W        W34685  13.215  16.964  14.372 -0.2828 -0.1849 -0.3267
18212W        W34686  10.708  14.479  13.731 -0.0669  0.1327 -0.0383
18213W        W34687   2.297   7.943   1.630  0.2052 -0.2752  0.0105
18214W        W34688  13.387   0.692   3.958 -0.1962 -0.1122 -0.1325
18215W        W34689   3.190  13.594   3.720 -0.0426 -0.0732  0.0367
18216W        W34690   4.426  15.764  15.732  0.0153  0.2067  0.0514
18217W        W34691   0.609  12.723   4.993  0.2248 -0.1339  0.2796
18218W        W34692   9.613  13.056   2.898 -0.0425  0.0989  0.3361
18219W        W34693   2.748   2.360  11.838  0.0453  0.2622  0.1358
18220W        W34694  11.195   0.893   1.169  0.0734 -0.0187  0.0833
18221W        W34695  12.087  10.006  11.871 -0.0432 -0.0036  0.0731
18222W        W34696   8.765   7.526   5.536  0.0278 -0.1819  0.2176
18223W        W34697  10.977  17.025  14.397 -0.1903 -0.1120 -0.1562
18224W        W34698  16.849   8.173  14.622 -0.1268  0.0695  0.1158
18225W        W34699  14.809   5.742   1.528 -0.0073  0.1339  0.1377
18226W        W34700  16.873   1.085   4.524 -0.0257 -0.0351 -0.0402
18227W        W34701   7.419   9.040  14.978  0.0939  0.4069 -0.1167
18228W        W34702  17.345   9.337  14.151  0.1609 -0.0374  0.0410
18229W        W34703   4.277  12.993   0.689 -0.1194 -0.1678 -0.2276
18230W        W34704   3.835  14.667  12.967  0.0829 -0.0553  0.1491
18231W        W34705   8.298  16.872   4.925 -0.0639 -0.0238 -0.1905
18232W        W34706   7.493   9.138  12.571  0.1824 -0.0261  0.0148
18233W        W34707  17.598  12.218   4.950 -0.0725  0.0564  0.0607
18234W        W34708  17.941   2.990  13.890  0.1845  0.1581  0.0116
18235W        W34709  11.645   0.032   3.385 -0.1210 -0.0067 -0.1912
18236W        W34710  16.406   1.628  11.945  0.0155  0.4070 -0.2970
18237W        W34711  14.780   4.845  11.905  0.1262 -0.1548 -0.2690
18238W        W34712  13.199   8.744  14.887  0.1882  0.0265  0.0167
18239W        W34713   5.790  11.774   5.026  0.1842 -0.1388  0.0320
18240W        W34714   9.925   3.974   2.069 -0.0469 -0.2453  0.1470
18241W        W34715   0.189  18.048  13.837 -0.0042  0.1433 -0.0982
18242W        W34716  18.119   6.516  14.813 -0.0942 -0.1256  0.0002
18243W        W34717   5.885  16.175   3.384 -0.0335  0.2233  0.0245
18244W        W34718   1.989   9.154  14.808  0.0433  0.2289 -0.1904
18245W        W34719   0.680  11.613   3.344  0.0550  0.0796 -0.1430
18246W        W34720  17.702  10.608   3.886 -0.1483  0.1652 -0.1217
18247W        W34721  14.585   6.910  13.926 -0.1215 -0.0224 -0.0241
18248W        W34722  14.432  10.652   1.194 -0.0354  0.1852 -0.0603
18249W        W34723   1.944  17.873  11.507 -0.1246 -0.1056  0.0187
18250W        W34724   4.595   2.893  13.690  0.2045 -0.2637 -0.0706
18251W        W34725   3.156   4.856  12.843  0.0234  0.0880  0.0443
18252W        W34726   4.710  11.584   3.959 -0.0077 -0.2020  0.2663
18253W        W34727  17.176  14.230  14.816 -0.3014  0.2341 -0.1505
18254W        W34728   7.508  18.447  13.306 -0.0257  0.0240  0.2659
18255W        W34729   1.305   1.571   5.535 -0.0181 -0.3048 -0.0758
18256W        W34730   0.827  13.455  13.343 -0.1830  0.0208  0.1198
18257W        W34731   6.105   1.366  11.578  0.0268  0.0019 -0.0353
18258W        W34732  16.753   2.702  11.735 -0.3336 -0.0718 -0.1247
18259W        W34733   8.150   9.589  13.241 -0.1579 -0.1130  0.0870
18260W        W34734   8.698   1.467  13.765 -0.0464 -0.1812  0.0011
18261W        W34735  10.381   7.324   1.973 -0.0163  0.2256 -0.0269
18262W        W34736   3.267   1.070  11.588 -0.0017 -0.1549 -0.2392
18263W        W34737  16.857   6.002  12.738  0.0957 -0.0734 -0.0981
18264W        W34738   8.927   0.305   1.087  0.0553  0.0080 -0.2699
18265W        W34739  12.538  16.170   3.107  0.3420 -0.2304  0.0379
18266W        W34740   7.970  13.279  15.482  0.1675  0.1930  0.0456
18267W        W34741   8.120  14.540  15.267  0.1249  0.0939  0.2241
18268W        W34742   4.845   0.327  13.958 -0.0005  0.0532 -0.5287
18269W        W34743  18.183  14.607  13.837  0.1146 -0.1013 -0.0704
18270W        W34744   4.023   6.622   0.869 -0.2610 -0.4232  0.0405
18271W        W34745   1.516  15.293  12.139  0.0626  0.0470 -0.3044
18272W        W34746  15.335   7.747   3.784 -0.1308 -0.2190 -0.0220
18273W        W34747  15.586  14.500  14.428 -0.0516 -0.3376  0.1336
18274W        W34748   8.576   0.809  13.511  0.0796  0.0651  0.1891
18275W        W34749   1.428   2.491  13.988  0.0589  0.0079  0.0853
18276W        W34750   6.261  18.219  15.493  0.0392  0.0761 -0.0345
18277W        W34751  18.435  15.733   1.508  0.1051 -0.0185  0.0417
18278W        W34752  11.809   2.380  13.243  0.0349 -0.1466 -0.0605
18279W        W34753  16.583   0.718   0.751 -0.3094  0.0386  0.0093
18280W        W34754   6.661  15.528  15.787  0.2354 -0.0311  0.1540
18281W        W34755   4.963   3.865   2.743  0.2477  0.2631 -0.1984
18282W        W34756  15.121   4.764   4.633  0.4177 -0.1108  0.1456
18283W        W34757   2.850   4.539   2.579 -0.0733  0.0224 -0.1934
18284W        W34758   9.257  16.317   1.088 -0.0190  0.1249  0.1662
18285W        W34759  11.506   3.509   2.605  0.0771 -0.1632 -0.0758
18286W        W34760  12.617   6.855  12.185  0.1180  0.0917 -0.2898
18287W        W34761   6.956  15.227   1.049  0.4860 -0.0104 -0.2336
18288W        W34762  17.047  11.944  14.906  0.2352  0.1304  0.1759
18289W        W34763   0.190  11.118   4.540  0.1702 -0.1574  0.3791
18290W        W34764   6.618  16.887  13.431  0.2428  0.1779 -0.1210
18291W        W34765   7.787   7.433  13.369  0.0868 -0.0578  0.2061
18292W        W34766   9.606  16.735  12.519  0.0646  0.2243 -0.6000
18293W        W34767   7.566   4.083  10.482 -0.1049 -0.0524  0.2445
18294W        W34768   4.539   9.120   2.541 -0.0730  0.1656  0.1038
18295W        W34769   2.355  18.077   2.668  0.1679 -0.1693  0.1514
18296W        W34770   9.262   5.984   3.578 -0.0900  0.0001  0.0461
18297W        W34771   5.211  13.975  11.802 -0.0405  0.0054 -0.1555
18298W        W34772  18.203  13.527  12.436  0.2877  0.0589  0.2499
18299W        W34773   7.319   7.089  12.863  0.0501  0.2970  0.0860
18300W        W34774  14.270  18.167  13.297  0.1641  0.0656 -0.1002
18301W        W34775  11.341  14.934  11.982 -0.2260  0.0321  0.2686
18302W        W34776   3.408  12.595   1.867 -0.0625  0.1584 -0.0732
18303W        W34777  10.732   8.025  15.059 -0.1691 -0.0096  0.0579
18304W        W34778  12.184  17.964   1.543  0.0745 -0.1140 -0.4335
18305W        W34779   9.383   1.596   0.067  0.0130  0.0674  0.1863
18306W        W34780  13.861   5.607   0.196  0.3029 -0.2362 -0.0615
18307W        W34781   2.028  12.734  12.340  0.1839 -0.2709 -0.0481
18308W        W34782   9.975   3.225   0.453 -0.2003  0.0549  0.2783
18309W        W34783   1.166  10.731   3.962 -0.2975  0.0901  0.2769
18310W        W34784  10.376   1.652  11.521  0.1201  0.1558  0.1577
18311W        W34785  11.889  17.277   0.040  0.2519 -0.3365 -0.0551
18312W        W34786   1.512  12.650  14.549 -0.0497 -0.0021 -0.0540
18313W        W34787  11.255   8.624  12.807  0.3042 -0.1611 -0.2029
18314W        W34788   4.788   6.684   4.453 -0.0900  0.1337 -0.0126
18315W        W34789  15.915  10.139   2.345  0.1442 -0.0015  0.0444
18316W        W34790   7.276   9.925  10.005  0.3688  0.3266  0.1524
18317W        W34791   3.078  17.590   3.795  0.1574 -0.1219 -0.2376
18318W        W34792   7.403  16.666   0.813 -0.0850  0.1134  0.0356
18319W        W34793   1.616   8.140   0.474  0.0737  0.0106  0.0398
18320W        W34794   8.315  11.055   0.115  0.1506  0.0619  0.0217
18321W        W34795  11.258   8.523   0.445  0.0583  0.1962  0.0541
18322W        W34796   8.063  12.336  15.342  0.2564 -0.1858 -0.0664
18323W        W34797   7.344   5.618   0.384 -0.0967 -0.1404  0.0540
18324W        W34798   3.940   0.168  12.384  0.1151  0.2162 -0.0553
18325W        W34799  18.434   1.195   1.316 -0.0223  0.2417  0.1042
18326W        W34800   3.471  10.984   0.120 -0.2482  0.2508 -0.1604
18327W        W34801   5.355   1.758  11.837 -0.3706  0.1260  0.1179
18328W        W34802   6.462   8.401  13.011  0.4012 -0.2343  0.0389
18329W        W34803  12.567   5.140   1.308  0.1613  0.2616  0.1639
18330W        W34804  16.813   7.201   3.010  0.0268  0.3356  0.0319
18331W        W34805  10.143   4.342  11.920 -0.0565  0.1311 -0.0065
18332W        W34806  11.192  14.617   0.990 -0.0869 -0.0334 -0.0370
18333W        W34807   4.757   1.611   1.828 -0.0068 -0.3195 -0.0491
18334W        W34808   8.279   0.809  15.685 -0.4110 -0.0640 -0.0587
18335W        W34809   3.940   3.974   4.741 -0.0188  0.1990 -0.3367
18336W        W34810  11.266   3.931  11.525  0.1580 -0.1919 -0.1538
18337W        W34811  10.858  14.543   5.411 -0.3314 -0.1909 -0.0659
18338W        W34812   2.647   4.750  13.831 -0.1767 -0.2725 -0.2227
18339W        W34813  13.852  14.272   1.941  0.2106  0.0293  0.1147
18340W        W34814  15.643   2.363  15.698  0.2076  0.0982  0.1081
18341W        W34815  13.537   2.491  13.649  0.1761 -0.0596  0.0815
18342W        W34816   1.018   5.220  14.385 -0.0596 -0.0094  0.0873
18343W        W34817  12.751   1.324   1.970  0.3479 -0.3023 -0.0840
18344W        W34818  15.685   0.616   0.538 -0.3307 -0.1213  0.0850
18345W        W34819   3.021  16.315  15.854  0.2015 -0.1450  0.1100
18346W        W34820   5.039   3.118   3.373  0.1351  0.3576  0.0260
18347W        W34821   1.199   9.094  12.740 -0.2016 -0.1550  0.3358
18348W        W34822  14.737  11.272   3.896 -0.3491  0.0339  0.1569
18349W        W34823  12.861   9.716   5.135 -0.2011 -0.0575  0.0993
18350W        W34824  10.762   7.389  12.005  0.4565 -0.0633 -0.0675
18351W        W34825  16.448   4.969  12.219  0.1757  0.1597 -0.4129
18352W        W34826  13.018   5.848  15.787  0.0616 -0.1707  0.1235
18353W        W34827  16.506  12.608   2.221  0.0592 -0.5704 -0.1411
18354W        W34828  11.361  10.166  15.210  0.1759 -0.1157  0.1882
18355W        W34829   9.275  10.468   0.100 -0.1765  0.2403 -0.0394
18356W        W34830  10.371   0.445  12.039  0.1953 -0.0486 -0.3190
18357W        W34831   3.264   9.557  11.072  0.1111  0.0681  0.2929
18358W        W34832  11.478   7.317   3.744 -0.0090  0.3001 -0.1375
18359W        W34833  17.016   0.924  10.125 -0.0784  0.1364  0.1136
18360W        W34834  16.546   9.284  15.768  0.2517  0.0826 -0.0112
18361W        W34835  10.837  16.643   2.442 -0.0450 -0.0457  0.6107
18362W        W34836   1.468  16.937  15.045 -0.2371 -0.2290 -0.0419
18363W        W34837  12.420   7.675   3.728 -0.1679 -0.0420 -0.1828
18364W        W34838  10.002  15.667   1.208 -0.2403 -0.2560 -0.0600
18365W        W34839   9.755   4.803  15.124  0.1634 -0.1969 -0.0174
18366W        W34840   3.833   7.254   0.197  0.0529  0.0136 -0.0954
18367W        W34841   8.625  15.884  13.673 -0.0309 -0.3003  0.1509
18368W        W34842   9.372   7.589   1.261 -0.0523 -0.0220  0.1961
18369W        W34843  11.869   9.827   1.331 -0.0756 -0.1053  0.3252
18370W        W34844   2.122  14.357   3.888 -0.0010 -0.1953 -0.0075
18371W        W34845  14.154   2.079   2.918  0.0349  0.0078 -0.1029
18372W        W34846  17.116   0.313  15.042  0.1415  0.1702 -0.0955
18373W        W34847  17.108  12.922  15.199 -0.2722  0.0628  0.1300
18374W        W34848   3.053   0.345   5.127 -0.0539 -0.4311 -0.1145
18375W        W34849   2.044   9.215  14.251 -0.3242  0.0219 -0.1069
18376W        W34850   3.694  12.679   0.538 -0.2326 -0.0223  0.1443
18377W        W34851  17.969   5.577   2.094 -0.0974 -0.2879  0.2043
18378W        W34852   7.646   0.467  13.188 -0.1583 -0.0028 -0.0925
18379W        W34853  18.050   0.912  15.235  0.1144 -0.1976  0.0123
18380W        W34854  10.273   1.035  12.738  0.0847  0.1551 -0.0611
18381W        W34855   8.310   3.280   1.437  0.1001 -0.0050 -0.3304
18382W        W34856   1.603  10.634   4.344 -0.3624 -0.0448  0.0950
18383W        W34857  15.000   5.741   4.552  0.0066 -0.0877  0.1759
18384W        W34858  16.133   9.556   4.222 -0.1237 -0.0684  0.1197
18385W        W34859  15.735  11.611   3.158  0.1215  0.1360  0.0537
18386W        W34860   9.550   6.015   4.973  0.1594 -0.2027 -0.1304
18387W        W34861  13.119   1.512   1.686  0.2348  0.3151 -0.2193
18388W        W34862   8.343  11.371   3.116 -0.0113  0.1520  0.1091
18389W        W34863   6.550   9.873   2.678  0.3288 -0.1158 -0.1864
18390W        W34864  11.778   5.548   0.662  0.4426 -0.1352  0.1522
18391W        W34865  17.978   6.896   0.491  0.0421 -0.0789 -0.2174
18392W        W34866  18.183   8.424  11.521  0.1055 -0.2916 -0.1157
18393W        W34867  10.146  17.213  14.580 -0.1065  0.0240  0.1013
18394W        W34868   4.153   2.663   5.218 -0.0514 -0.1619 -0.0162
18395W        W34869   6.430   2.316  14.928  0.0745 -0.1312  0.3370
18396W        W34870   9.927  11.094  12.448 -0.0006 -0.0803  0.0832
18397W        W34871   2.502  11.581   4.247  0.0319  0.3855 -0.0161
18398W        W34872  11.775   3.319   3.875  0.1104  0.2185 -0.1746
18399W        W34873   7.214   8.631  11.773  0.2689 -0.1451 -0.2262
18400W        W34874   0.925  13.945  13.913  0.0224  0.2566 -0.1949
18401W        W34875  16.194  15.661  15.219  0.0732 -0.0307  0.3456
18402W        W34876  17.478   7.786  14.551  0.0504  0.3362  0.1583
18403W        W34877  16.827   2.578   5.107  0.0084  0.3916 -0.1533
18404W        W34878   3.759   5.299  14.700 -0.0878  0.0522  0.1481
18405W        W34879   6.036  12.784   5.103 -0.0113  0.1321  0.2387
18406W        W34880  17.152  18.019   2.030  0.0415 -0.1519 -0.1949
18407W        W34881  18.327  13.436  14.512  0.1546  0.0706  0.1027
18408W        W34882  12.447  18.030  11.336  0.0449  0.0082  0.0274
18409W        W34883  13.343   9.910   5.477  0.1887  0.0382 -0.0077
18410W        W34884   9.164  15.402  15.332  0.1496 -0.0703  0.1701
18411W        W34885   9.549  10.448   4.964  0.1098  0.0538 -0.0922
18412W        W34886  10.178   5.045   3.750 -0.1880 -0.0800  0.0992
18413W        W34887  15.058   4.566  11.532  0.2019  0.1251  0.3069
18414W        W34888  16.704  17.116   4.470 -0.3112 -0.3250 -0.0073
18415W        W34889   5.764   4.735   2.439  0.3906 -0.2215  0.0517
18416W        W34890  14.522   2.015  11.774 -0.1103  0.0530 -0.0648
18417W        W34891   6.494   6.490   0.790  0.0416 -0.3167  0.0784
18418W        W34892   3.873  15.863  13.111 -0.2832 -0.0621 -0.1554
18419W        W34893   4.474   6.330   0.108 -0.0153  0.2440 -0.1792
18420W        W34894   6.798  15.920   4.376 -0.1752 -0.1369  0.0238
18421W        W34895  12.638  14.858  14.883 -0.5224  0.1230 -0.0862
18422W        W34896  11.746   0.946  13.360  0.0944 -0.3318 -0.2205
18423W        W34897   4.050   3.671   3.826 -0.0363  0.3112 -0.1828
18424W        W34898   2.042  16.171  13.317 -0.0316  0.1370 -0.2747
18425W        W34899  13.142  15.791   4.193 -0.4439 -0.0284  0.0519
18426W        W34900   6.568   2.253   1.733 -0.1892 -0.1601  0.0332
18427W        W34901   2.291   0.025  11.023  0.1096 -0.1760  0.3671
18428W        W34902   7.115  10.118  15.402  0.5030  0.0877 -0.1495
18429W        W34903   1.018   0.751  11.553  0.2801  0.1276  0.2087
18430W        W34904   8.944   9.354   2.070  0.0633 -0.2708 -0.4078
18431W        W34905  16.647   1.835  14.324  0.0453 -0.2111 -0.1911
18432W        W34906  16.166   7.044  15.132 -0.0334  0.1083  0.2360
18433W        W34907   9.979   6.156  12.991  0.0595  0.0597 -0.1243
18434W        W34908   8.436  13.429   1.472 -0.4506  0.3190  0.1747
18435W        W34909   1.254  10.408   3.051 -0.0322  0.0592  0.0432
18436W        W34910   9.571   4.670   4.954  0.1009 -0.0839  0.1870
18437W        W34911   2.791   3.838  13.591 -0.1893  0.1472 -0.2755
18438W        W34912  11.871  17.712  15.828  0.0729  0.2139  0.2927
18439W        W34913   7.767   0.652   4.722 -0.2267  0.1688 -0.1820
18440W        W34914   3.557   9.846   1.858  0.1998  0.4557  0.0789
18441W        W34915  17.232  17.204   4.365 -0.1796 -0.1739  0.1260
18442W        W34916  14.485   8.392  15.692 -0.0655 -0.0374 -0.3162
18443W        W34917   7.740  17.251  14.853  0.2166  0.1176 -0.0807
18444W        W34918  14.524  12.002  12.117 -0.0322  0.1036  0.2058
18445W        W34919  12.772  17.662  13.041 -0.2061  0.0325 -0.0037
18446W        W34920   5.605  14.882   1.515 -0.0560 -0.3078  0.0271
18447W        W34921   8.114  13.902   2.104 -0.0143 -0.1595  0.3237
18448W        W34922   9.723   6.193   3.456  0.0595  0.1068 -0.0234
18449W        W34923  16.813   3.939   0.444 -0.0955  0.1842  0.0446
18450W        W34924   3.413   9.986   2.767 -0.2993  0.1564 -0.0540
18451W        W34925  14.828   4.430  15.277  0.2888  0.1385 -0.1365
18452W        W34926  17.857   9.684   0.464  0.0634  0.2144 -0.2181
18453W        W34927   8.148  14.376   1.741  0.1061 -0.0701 -0.2123
18454W        W34928   0.232   9.644  13.360  0.2401  0.1480  0.1027
18455W        W34929  12.915   6.049   4.523  0.0637  0.0388  0.2258
18456W        W34930  12.861  12.107   0.667  0.1840 -0.1539 -0.1422
18457W        W34931  12.050   3.553  13.320  0.0311 -0.0755  0.0777
18458W        W34932   6.421   5.112  10.810 -0.2930  0.0517 -0.2236
18459W        W34933  10.534  13.050  15.970  0.0799 -0.1901 -0.0471
18460W        W34934  16.562  11.095  13.155 -0.0058 -0.0709 -0.0845
18461W        W34935  16.944  17.698  11.392 -0.1621 -0.1596 -0.3215
18462W        W34936   7.581   1.470   1.748  0.2444  0.0602 -0.1874
18463W        W34937   9.285  12.750   5.601 -0.1671  0.1316 -0.1554
18464W        W34938   0.501   0.400   1.355  0.1291 -0.1114  0.2257
18465W        W34939   3.711   7.734  12.023  0.1663 -0.0225  0.2615
18466W        W34940   0.768   4.596  14.711  0.1805 -0.0335 -0.0497
18467W        W34941   5.651   7.673  15.559 -0.1550 -0.0802 -0.3777
18468W        W34942   5.131   5.717   4.623  0.1260 -0.1008 -0.1583
18469W        W34943   5.975  10.256   1.626  0.3020 -0.1285 -0.0189
18470W        W34944   3.098  13.254  14.768  0.2953 -0.1312 -0.1591
18471W        W34945   4.429  11.532   2.122  0.1135 -0.1435 -0.0074
18472W        W34946  13.942   0.249  14.306 -0.0609  0.1096 -0.1132
18473W        W34947   5.608  13.431   4.436 -0.1722  0.0707  0.0218
18474W        W34948   0.305   9.047   1.597  0.0112 -0.0872  0.0605
18475W        W34949   9.426  11.754  12.683 -0.1991  0.0650 -0.2489
18476W        W34950   4.511  18.098   1.415  0.2831 -0.3136 -0.2680
18477W        W34951   2.849   0.677  14.012 -0.1142 -0.3818  0.1527
18478W        W34952  10.767   1.963  15.571  0.0074 -0.1603 -0.0891
18479W        W34953  13.798   2.366  14.508  0.1298 -0.0199 -0.3643
18480W        W34954  16.087   5.156   4.394  0.4817  0.2853 -0.0636
18481W        W34955  18.337   4.440  11.044  0.0349 -0.4275 -0.4887
18482W        W34956  11.745   8.202   2.676  0.2456  0.2088 -0.0415
18483W        W34957  15.021   7.219   5.113 -0.3737  0.2016 -0.1578
18484W        W34958   7.995  10.637  13.358  0.4031  0.0111  0.1094
18485W        W34959   2.674   0.919  11.447 -0.2301 -0.1371  0.2618
18486W        W34960   0.152   2.758   4.910  0.2209 -0.1332  0.0565
18487W        W34961  17.288   0.929  12.077 -0.2269  0.2957 -0.2390
18488W        W34962   7.942  16.843   0.766 -0.1797 -0.1426 -0.0884
18489W        W34963   6.687   1.509   2.791  0.1946 -0.1703  0.2650
18490W        W34964   8.183   9.883  11.529  0.2673 -0.0942 -0.1423
18491W        W34965   9.825   8.983   1.240 -0.1219  0.2499 -0.1606
18492W        W34966   3.621   9.429  12.981  0.2303  0.0607 -0.1172
18493W        W34967  15.748   5.982  11.145 -0.1146 -0.2817  0.3284
18494W        W34968   8.816  12.007  13.701 -0.0098 -0.2296 -0.1024
18495W        W34969  11.283   4.289  15.203 -0.2920 -0.1419  0.2304
18496W        W34970  12.270   1.593  11.622  0.2837  0.0107 -0.3159
18497W        W34971   8.328   5.831   5.470 -0.1130 -0.4476 -0.2214
18498W        W34972   5.619   4.037   5.258  0.1005  0.2021 -0.0468
18499W        W34973   2.252  16.496  13.949  0.1957  0.0536  0.0849
18500W        W34974   7.215   4.400  13.557 -0.2133 -0.4197 -0.1610
18501W        W34975   6.905  17.148  12.235 -0.2408 -0.0645 -0.1447
18502W        W34976  16.676  17.703   2.370 -0.1852 -0.3396  0.0581
18503W        W34977  12.759   0.745  13.965 -0.3974  0.3975  0.0822
18504W        W34978   0.851  13.711   4.947 -0.0628 -0.2022 -0.1795
18505W        W34979  12.943   2.300   3.602  0.2123 -0.1163  0.2386
18506W        W34980   6.509  10.362  13.710  0.1966 -0.1055  0.1605
18507W        W34981   0.789   4.162   2.824 -0.1206  0.0972  0.2799
18508W        W34982  11.792   7.470  11.179  0.4133 -0.2390 -0.0081
18509W        W34983   1.014   3.493  15.282 -0.2277 -0.1030 -0.0117
18510W        W34984   1.828   9.607   3.463  0.2062  0.0643 -0.1448
18511W        W34985   1.149  10.385  15.428 -0.1510  0.0218  0.4109
18512W        W34986   5.613   4.426   4.962 -0.0711  0.1367  0.1124
18513W        W34987  17.959  14.287   3.876  0.1070  0.1501  0.2148
18514W        W34988   9.907  13.450   3.069 -0.2399  0.2613  0.1511
18515W        W34989  16.851   8.335   6.365  0.1860 -0.1605 -0.3231
18516W        W34990   8.062   8.138  11.491 -0.0621 -0.2181 -0.1448
18517W        W34991   0.706  13.386   0.285 -0.0185  0.1105  0.0984
18518W        W34992   1.504   2.746   1.930  0.2176  0.1941  0.0690
18519W        W34993  15.858   9.509   3.814 -0.0466  0.2736  0.0517
18520W        W34994  12.104   4.070  12.633 -0.2704  0.1785  0.0292
18521W        W34995  17.359   0.841  14.687  0.2242 -0.1755  0.0654
18522W        W34996   9.449  12.164   5.561 -0.0181 -0.5582  0.2086
18523W        W34997  13.554  18.150   5.351 -0.0505  0.2808  0.1146
18524W        W34998  17.246  17.223  11.431  0.0800  0.3908 -0.0646
18525W        W34999  11.961   5.047  15.848  0.0558 -0.0756 -0.0262
18526W        W35000  13.688  17.680   5.480 -0.0444 -0.1701  0.0301
18527W        W35001   8.617  11.612  10.637  0.2979  0.1241  0.2150
18528W        W35002   6.834  13.687  11.009 -0.1419  0.2128 -0.0229
18529W        W35003   3.634  18.399   0.925  0.2042 -0.2126  0.1144
18530W        W35004   3.202  16.688  14.888  0.0617 -0.1560 -0.0838
18531W        W35005  16.970  13.879  13.420  0.0661  0.1576  0.1363
18532W        W35006  15.255  12.308  12.871  0.1023  0.0116 -0.0356
18533W        W35007   7.810  11.169  12.592  0.1174  0.1384  0.1809
18534W        W35008  18.349  14.673   2.954  0.0471  0.0222 -0.0091
18535W        W35009  17.097   1.416   5.116 -0.0153  0.4221  0.1091
18536W        W35010  12.610  16.749   0.265  0.1524  0.0567 -0.2306
18537W        W35011   7.307  12.638   4.698  0.2566 -0.0127  0.2148
18538W        W35012  13.744   4.319   5.170  0.2042 -0.1454 -0.0698
18539W        W35013  15.982   7.938   5.666  0.1649  0.0017 -0.0572
18540W        W35014  18.414   5.467   1.697  0.0257 -0.1687 -0.2442
18541W        W35015  12.607   7.753   4.673  0.1662 -0.0340  0.0765
18542W        W35016   9.376   6.343  10.616  0.1483  0.0165 -0.0727
18543W        W35017   6.294   2.099   3.463  0.2110  0.0354 -0.6568
18544W        W35018   3.932  18.306   5.935  0.2060  0.3846  0.3149
18545W        W35019  10.186   3.170   3.973  0.0013 -0.3008  0.1169
18546W        W35020   9.043   6.244   3.192 -0.0352  0.2302  0.1556
18547W        W35021  11.780   5.348   2.629  0.0027  0.0353 -0.2148
18548W        W35022  16.206   7.911   4.878  0.0795  0.2092 -0.0051
18549W        W35023  10.232  14.440   4.958  0.0138  0.3891 -0.1848
18550W        W35024   9.805  16.740   2.207  0.1931 -0.0822  0.1977
18551W        W35025  13.657  12.952   3.137 -0.0967 -0.1013  0.2692
18552W        W35026  17.395   1.422   3.972  0.2299  0.1979 -0.0607
18553W        W35027   2.685   2.779   1.411  0.2552 -0.3765 -0.1419
18554W        W35028   5.645   6.926  10.814 -0.0821 -0.0959  0.1943
18555W        W35029   7.273   9.735   5.263  0.2128  0.1036  0.0530
18556W        W35030   4.041   0.505   2.051  0.2229  0.1890  0.3374
18557W        W35031  17.743   1.753   3.863  0.1571  0.2153 -0.0958
18558W        W35032  16.435   0.200   4.693 -0.2682  0.0848 -0.0115
18559W        W35033  10.548   7.701  11.101  0.1773  0.2464  0.0572
18560W        W35034   2.592  18.376   1.309  0.0534  0.1761  0.0406
18561W        W35035   7.451  16.232  15.568  0.1019  0.0202 -0.1995
18562W        W35036   2.696  13.558  13.614  0.0768 -0.3073 -0.2293
18563W        W35037   5.900  15.067   2.408 -0.0697 -0.2573 -0.0474
18564W        W35038  17.803   7.156   1.393 -0.0002 -0.0785 -0.2032
18565W        W35039   5.683   0.632   0.853  0.1728 -0.2955 -0.2986
18566W        W35040   4.902  13.411  10.984 -0.0201  0.0001  0.2099
18567W        W35041   7.338  11.026   2.055  0.1435 -0.0656  0.2750
18568W        W35042   7.599   2.540   5.966  0.0717  0.1200 -0.1261
18569W        W35043   7.874  12.541   3.472 -0.0316  0.0718  0.3178
18570W        W35044   0.697  10.484   0.753 -0.0879  0.1254  0.2443
18571W        W35045   0.327   0.749   2.705 -0.1578  0.1231 -0.2126
18572W        W35046   5.662   5.644   4.085  0.2582  0.0034 -0.0132
18573W        W35047   7.932  10.915   3.327  0.2899  0.0787  0.4119
18574W        W35048  13.545   6.624  15.452  0.0667 -0.0456  0.1769
18575W        W35049  14.366  12.589   2.213  0.0580 -0.1362 -0.1517
18576W        W35050   9.838  14.484   1.921 -0.1104  0.2459 -0.0465
18577W        W35051   9.459   9.193  12.549  0.0858 -0.2863 -0.2527
18578W        W35052  14.886   4.075   1.893  0.2327  0.1405 -0.2451
18579W        W35053  12.687   5.684  14.410 -0.0727 -0.0521  0.1178
18580W        W35054   5.466  15.528  12.147 -0.0109 -0.2391  0.0621
18581W        W35055  16.448   2.848  13.379  0.0039  0.1153  0.1406
18582W        W35056   2.561  12.324  15.689 -0.0542 -0.6195 -0.1360
18583W        W35057   4.845  16.912  13.056 -0.0222  0.1794  0.2393
18584W        W35058   0.921  18.241   3.465  0.1524  0.1736 -0.0752
18585W        W35059   7.910  12.299   2.106 -0.2112  0.1399 -0.0938
18586W        W35060  15.342   2.663  12.973 -0.2366 -0.0599  0.0769
18587W        W35061  14.883   5.503   0.157 -0.0255 -0.0375  0.1334
18588W        W35062   5.746   6.771  12.009 -0.0228  0.0703  0.0473
18589W        W35063  17.021   7.178   1.462  0.0959 -0.1066  0.1624
18590W        W35064  13.033   4.323   1.579  0.3595 -0.0663  0.4861
18591W        W35065   9.799   1.081   5.561  0.1058  0.1480  0.2570
18592W        W35066  18.034   8.630   1.351  0.0068 -0.4024 -0.0944
18593W        W35067  18.425   0.443  15.276  0.1823 -0.3114 -0.0049
18594W        W35068   7.108  17.753   2.724  0.0567 -0.3561  0.2165
18595W        W35069   0.240  16.026  11.628  0.2939  0.0213  0.4374
18596W        W35070  12.885  13.625   3.999  0.2846  0.1341 -0.2242
18597W        W35071   0.031  14.682  10.483  0.0921 -0.0500 -0.0959
18598W        W35072   4.881  13.286   4.232  0.0606 -0.0718 -0.1113
18599W        W35073   4.834  17.338   4.762 -0.2034 -0.1035 -0.1571
18600W        W35074   7.078   0.981  12.397  0.0052  0.0615  0.1611
18601W        W35075   3.545   5.023  15.269  0.0707  0.1249 -0.3153
18602W        W35076   1.038   2.325   2.046 -0.0977  0.3201  0.0912
18603W        W35077   3.207   0.572  15.069  0.0959  0.0807  0.0240
18604W        W35078   7.184   8.792   2.201  0.1776 -0.2643 -0.0787
18605W        W35079  12.679   4.020   5.162  0.0659  0.2166 -0.0085
18606W        W35080   1.279   1.423   2.301  0.0898  0.2603  0.1563
18607W        W35081  14.908   1.965   5.075  0.0056 -0.0818  0.3150
18608W        W35082  10.014   4.359   0.918  0.1733 -0.0022  0.0618
18609W        W35083   4.509   5.382  15.711 -0.1229  0.2938 -0.1049
18610W        W35084   3.499   0.754  14.505  0.1142  0.2650 -0.0381
18611W        W35085   6.623  14.937  14.706 -0.1093  0.0710  0.2242
18612W        W35086  11.852   4.212   0.140 -0.1990  0.0312 -0.2143
18613W        W35087  14.144  13.083  13.857  0.1671  0.0290  0.2768
18614W        W35088   8.606   9.562   1.389  0.2783 -0.0576 -0.0012
18615W        W35089  10.056  10.454   5.479  0.1633 -0.0988 -0.3393
18616W        W35090   9.055  14.513  15.605 -0.0213 -0.1922 -0.2327
18617W        W35091   3.348   6.258   0.947 -0.2581 -0.0599 -0.2595
18618W        W35092  12.623  16.871   4.509  0.0645 -0.1740  0.0335
18619W        W35093   6.955  14.054   3.879 -0.0443  0.0376 -0.3535
18620W        W35094  10.829   4.216  15.419 -0.1785  0.0082  0.3978
18621W        W35095   0.140   3.781  11.713 -0.0569  0.3087 -0.2009
18622W        W35096  13.312  13.778  13.837 -0.1804 -0.1236  0.2155
18623W        W35097  11.640   1.432  13.224  0.0358 -0.0906 -0.0968
18624W        W35098   3.230   4.000   3.314  0.0302 -0.0539 -0.0332
18625W        W35099   8.797   1.828   3.423  0.2736 -0.0283  0.0431
18626W        W35100  15.515  17.167   0.083  0.1996 -0.0825 -0.0475
18627W        W35101   3.074   9.061   5.051 -0.0729  0.2273  0.3175
18628W        W35102  13.933  15.192   4.642  0.2330 -0.0813  0.0969
18629W        W35103  17.977  17.113  12.261  0.3321  0.1537  0.0912
18630W        W35104  10.194  10.559   2.863  0.1823  0.0837 -0.0553
18631W        W35105  15.370   5.126  13.109  0.0990 -0.2024  0.0206
18632W        W35106  17.794   8.656  11.782 -0.1855 -0.1296  0.2056
18633W        W35107   2.110  11.750   4.479 -0.0890 -0.2674 -0.3673
18634W        W35108   0.291  17.628   2.463  0.0638  0.0371 -0.0918
18635W        W35109   7.627   4.311   3.437 -0.0701 -0.0706 -0.0969
18636W        W35110   4.949  10.154   4.665  0.0869  0.0458  0.1802
18637W        W35111   9.251   0.014   5.492  0.1595  0.4425  0.0377
18638W        W35112   6.998   1.223   1.885 -0.0144  0.2171 -0.1291
18639W        W35113   8.529  11.771   1.357 -0.0810  0.0639 -0.3609
18640W        W35114  15.735  17.046  12.419 -0.0032 -0.0898 -0.3031
18641W        W35115   0.338  13.066   3.197 -0.1890  0.0508  0.4967
18642W        W35116   7.283  11.661  11.123  0.1332  0.0021 -0.1274
18643W        W35117   8.927  10.263   1.734 -0.0679  0.0723 -0.0284
18644W        W35118   2.656  13.135   5.032  0.1958  0.1420  0.0779
18645W        W35119   0.844  17.146   3.844  0.1177  0.0439 -0.0506
18646W        W35120  13.578   0.625  14.361  0.2212  0.1787 -0.1376
18647W        W35121   4.838   9.646   9.921  0.1892 -0.1183  0.1656
18648W        W35122  15.961   9.940   5.070  0.0406 -0.1617 -0.2033
18649W        W35123  13.128  12.256   1.908 -0.2666 -0.0847 -0.1575
18650W        W35124   7.303  14.383   3.961  0.0507  0.1238  0.0658
18651W        W35125   5.109   2.995  15.054  0.1495 -0.2036  0.1081
18652W        W35126  16.970  14.718   5.073 -0.2027 -0.0303  0.2921
18653W        W35127   0.493   6.222   5.160 -0.2416  0.0356  0.0230
18654W        W35128   6.143  18.120   0.551  0.0902  0.1085 -0.1316
18655W        W35129   1.229   2.956   4.888 -0.2353  0.0851 -0.2061
18656W        W35130   1.014   1.659  11.808  0.0211 -0.4201  0.1625
18657W        W35131   1.603  14.123   5.330 -0.0027 -0.3895  0.1497
18658W        W35132  15.551  18.152  13.074 -0.2513 -0.2478  0.0799
18659W        W35133  15.450   1.945  15.966  0.1718 -0.2487 -0.2199
18660W        W35134   6.591   6.962  13.309 -0.1462 -0.1003 -0.0530
18661W        W35135   9.801   3.314  13.151 -0.1140 -0.0219  0.2000
18662W        W35136   9.817   4.201  11.078  0.2513  0.1433 -0.3885
18663W        W35137   9.072   5.961  13.297 -0.1161 -0.1942  0.0832
18664W        W35138   4.162   4.770  14.516 -0.1686 -0.0383  0.1254
18665W        W35139  17.875  15.347  11.643 -0.3024  0.3952  0.0733
18666W        W35140  14.044   6.910   5.196 -0.0611 -0.3031  0.0871
18667W        W35141  15.659   5.805  11.722  0.3177  0.3347  0.0708
18668W        W35142  16.158   9.606  13.641 -0.0818  0.0387  0.1223
18669W        W35143   6.048  16.842  12.726  0.1360 -0.2012 -0.1709
18670W        W35144  12.654   8.118   5.477 -0.0656 -0.1680  0.0843
18671W        W35145   0.607  10.173  13.018 -0.1000 -0.0576  0.1834
18672W        W35146  17.021  11.637   4.517  0.2532 -0.0856 -0.2128
18673W        W35147  15.653  12.475  11.632  0.1480 -0.2544  0.0478
18674W        W35148  16.059   3.242  13.201 -0.1763 -0.2311  0.1976
18675W        W35149  16.572   0.486  11.160  0.0325  0.0668  0.0785
18676W        W35150  14.892   9.890   4.119  0.0258 -0.1421  0.0419
18677W        W35151   6.046   4.084   4.962 -0.1973  0.3791 -0.0172
18678W        W35152   4.106  13.515   2.416 -0.0935 -0.2095 -0.0717
18679W        W35153   7.278   1.794   5.318  0.0319  0.0333 -0.1963
18680W        W35154   7.627   2.351  10.903 -0.0652  0.1943 -0.2168
18681W        W35155  12.866  11.032   0.297 -0.0316 -0.4817 -0.0446
18682W        W35156  15.014   4.728   0.930 -0.3394 -0.2388 -0.2815
18683W        W35157  15.126   2.346  15.910  0.2315  0.0360 -0.0746
18684W        W35158  17.027   1.554  11.256 -0.0522 -0.0430 -0.3632
18685W        W35159  16.898   7.114  14.131  0.2680 -0.0034  0.1580
18686W        W35160   0.851   3.633  13.858 -0.4151  0.3847 -0.1712
18687W        W35161   8.254   4.424   5.113 -0.0475 -0.0509  0.2056
18688W        W35162  11.954   7.153  13.844 -0.1465 -0.0706  0.0580
18689W        W35163  15.100  18.013  13.300  0.2104  0.1193 -0.0756
18690W        W35164   2.334   1.642  15.309  0.0430 -0.0009 -0.0084
18691W        W35165  11.020  10.166   0.062 -0.0404 -0.1457  0.0155
18692W        W35166   2.045   0.477   3.024  0.4156  0.1035  0.0147
18693W        W35167   6.540   5.803   2.478 -0.1315 -0.2368  0.2720
18694W        W35168  17.834  16.733   1.141  0.1832 -0.1363 -0.0091
18695W        W35169  11.760   6.790   0.567  0.0610  0.2647  0.0266
18696W        W35170  15.497   5.506   4.755  0.1652 -0.2132 -0.0787
18697W        W35171   8.651  11.378   4.588  0.1446  0.2689  0.0056
18698W        W35172   0.295   0.228  12.045  0.0328  0.0061  0.0413
18699W        W35173  17.374   0.286   4.709  0.0508 -0.3887  0.0892
18700W        W35174  16.531   2.114  10.874 -0.0326  0.2985 -0.0132
18701W        W35175  18.310  10.066   1.801  0.1026  0.0766 -0.1494
18702W        W35176  11.544   2.331  12.787 -0.1770  0.1453 -0.0849
18703W        W35177   2.207  17.345  15.959  0.3465 -0.0832 -0.0242
18704W        W35178   5.518  14.956  13.866 -0.0483  0.0353  0.0689
18705W        W35179   3.879   8.053   0.531  0.1234  0.3496  0.0692
18706W        W35180  10.017  11.942   1.793  0.1140  0.1238  0.0330
18707W        W35181   1.662   1.310   1.296  0.0900 -0.1263  0.0135
18708W        W35182  12.364  16.559  14.453  0.0562 -0.0625  0.2344
18709W        W35183  12.579  15.320   2.186  0.1553 -0.2727  0.2011
18710W        W35184   0.603   9.205   0.556  0.1834  0.0212  0.1458
18711W        W35185   8.585   8.235   2.847  0.0067 -0.0093 -0.0730
18712W        W35186  11.338   3.470  15.181  0.2433  0.2344  0.1650
18713W        W35187  17.005   7.727  11.441 -0.2569  0.2095 -0.2998
18714W        W35188  17.758   1.465   0.933 -0.0642 -0.2500 -0.0318
18715W        W35189   9.247   4.768  14.181 -0.0613 -0.0254  0.0174
18716W        W35190   8.863   3.599  10.839  0.0505 -0.1796  0.0345
18717W        W35191   1.063   2.225   0.484  0.0019  0.5596  0.1736
18718W        W35192   3.969   0.320  12.831 -0.0450  0.1773 -0.1467
18719W        W35193   3.278   7.512  12.064 -0.1718  0.0419 -0.0493
18720W        W35194  12.176  10.649   4.875 -0.1256 -0.2346  0.0889
18721W        W35195  16.431   8.996  12.839  0.0106  0.1668 -0.2406
18722W        W35196   7.843  10.388   2.539  0.5322 -0.0703 -0.1418
18723W        W35197  15.211   8.486  14.614  0.0374  0.1257  0.0141
18724W        W35198  15.731   1.219  15.501  0.0864 -0.2519 -0.0630
18725W        W35199  17.599  10.500  11.542  0.1087 -0.0384 -0.0475
18726W        W35200   1.824   0.971  12.641 -0.0751 -0.1490 -0.1026
18727W        W35201  13.834   6.855   1.278 -0.0233 -0.0655  0.0230
18728W        W35202  13.917  11.403  14.262 -0.0000 -0.0996  0.3390
18729W        W35203   4.038   9.785  15.402 -0.1639  0.1064 -0.0908
18730W        W35204  15.559   1.211   4.871 -0.0386  0.1495  0.2779
18731W        W35205   5.134  15.190  14.879 -0.2148 -0.0889 -0.0526
18732W        W35206   2.258  16.557  15.628 -0.0869 -0.1754  0.2150
18733W        W35207  12.693   7.403   2.289  0.0596 -0.0371  0.0781
18734W        W35208  12.240   0.870   0.093  0.3890  0.2982  0.3083
18735W        W35209  11.622  16.805  11.351  0.0274 -0.0189  0.2052
18736W        W35210  10.177   3.812   1.147 -0.1521  0.2810 -0.0515
18737W        W35211  18.141  11.779  12.738  0.1368 -0.0887 -0.0726
18738W        W35212  13.110   4.753  11.544 -0.2249  0.3212 -0.1216
18739W        W35213   7.561   3.805   4.329  0.3202 -0.3217 -0.0661
18740W        W35214   9.760   4.990  14.052 -0.3142 -0.0824 -0.3198
18741W        W35215   0.037   2.425   4.533 -0.0316  0.1364 -0.0475
18742W        W35216  11.070   4.913   2.893  0.1947 -0.2721  0.2382
18743W        W35217   4.248   0.121  15.132  0.0056  0.1373 -0.4108
18744W        W35218   2.688   5.862   1.755  0.4359 -0.1270  0.1913
18745W        W35219  15.519   8.919  13.302  0.2289 -0.0922  0.3246
18746W        W35220  11.217  13.016   4.010 -0.1791  0.3432  0.1653
18747W        W35221   0.937   5.288  13.853 -0.0405 -0.0295  0.1684
18748W        W35222  13.798   6.783   1.766  0.0886 -0.0274  0.0278
18749W        W35223   6.688   6.128  15.540  0.0297  0.1822  0.0196
18750W        W35224  10.315  10.243  11.991 -0.0966 -0.0267  0.1649
18751W        W35225  13.447  14.990  13.675 -0.1331  0.0060 -0.2710
18752W        W35226  13.809  17.468   4.980  0.0658  0.0718  0.0304
18753W        W35227   9.514  15.742  15.503  0.3020  0.0932 -0.2648
18754W        W35228  16.953  14.203   0.021  0.0443 -0.1546  0.1923
18755W        W35229   5.961  11.743  12.237  0.0897 -0.1386  0.4446
18756W        W35230   1.115  13.885  12.641 -0.0220  0.5074 -0.0691
18757W        W35231  16.950   6.105   0.009  0.1846 -0.1332 -0.1157
18758W        W35232  16.401  18.476   2.267 -0.3121  0.3026 -0.3023
18759W        W35233   6.902  18.039  12.258  0.0973  0.0149 -0.0270
18760W        W35234  13.560   9.129  14.629  0.0456 -0.0550 -0.0717
18761W        W35235   7.181  15.947   3.788  0.2568  0.2886 -0.1888
18762W        W35236  15.125  10.272   2.038  0.0095  0.0255  0.2051
18763W        W35237  14.195   4.541  13.148 -0.2519  0.0303  0.2278
18764W        W35238   5.935  10.731   4.058 -0.0463  0.2678  0.2754
18765W        W35239  10.591  15.203  13.030  0.2757 -0.1976  0.1142
18766W        W35240  14.773   2.523   0.320 -0.0060 -0.3135 -0.0490
18767W        W35241  11.918   6.962   1.014  0.1101  0.1150  0.3085
18768W        W35242   7.020  18.386   0.603  0.0666 -0.1071 -0.0485
18769W        W35243  12.098  14.575  11.648  0.2205  0.0394  0.0798
18770W        W35244  16.335   1.885   0.025 -0.0533  0.1093 -0.0369
18771W        W35245   7.367   6.021  14.291 -0.2520  0.0533 -0.0419
18772W        W35246   2.370   9.475  14.546 -0.2040  0.1605  0.1171
18773W        W35247  12.994   0.349  13.644 -0.1248  0.1673 -0.2814
18774W        W35248  13.321  15.752   2.771 -0.3134  0.0852 -0.3317
18775W        W35249   5.981   9.129   3.491  0.1936 -0.1723  0.0291
18776W        W35250  11.232   2.111  15.853 -0.0306  0.0802  0.1860
18777W        W35251   9.985   9.844   3.934 -0.0303  0.0266  0.2053
18778W        W35252   7.312  15.414   2.904 -0.0925 -0.2917  0.0148
18779W        W35253   0.698  12.811   3.775 -0.0957 -0.1150  0.1145
18780W        W35254   6.164  14.021   4.676 -0.2209 -0.1126 -0.0646
18781W        W35255   6.882   1.419  12.160 -0.2841  0.0933 -0.1201
18782W        W35256  10.949   3.805  15.183  0.1371  0.2821 -0.0049
18783W        W35257  11.688   8.502   1.999  0.0843 -0.0124  0.0212
18784W        W35258  11.898   4.653   3.139 -0.1516  0.0982 -0.1180
18785W        W35259  15.296  16.603  10.495  0.1690 -0.1669  0.0895
18786W        W35260   0.479  16.173  11.166 -0.2460  0.0135 -0.0384
18787W        W35261  12.171  12.860   1.473 -0.0878  0.1906 -0.1384
18788W        W35262   0.438  10.999   5.621 -0.1993  0.0138 -0.1201
18789W        W35263   2.610   9.566   2.251 -0.0040  0.0670  0.1768
18790W        W35264  10.630   4.518  11.975 -0.0497 -0.0304  0.0873
18791W        W35265  14.068  16.319   3.314 -0.0287 -0.2311  0.0757
18792W        W35266   8.670  14.704   0.643 -0.1626 -0.0053 -0.2914
18793W        W35267   9.346   5.458   1.448 -0.1101  0.1318 -0.1535
18794W        W35268  15.061   7.566   4.166  0.0508  0.0368 -0.0927
18795W        W35269   0.419   9.252  15.856 -0.0091  0.0332 -0.1319
18796W        W35270  15.737  16.961  11.638 -0.0766  0.1430 -0.1642
18797W        W35271   8.080  16.477  11.844 -0.0368  0.1129 -0.1638
18798W        W35272  13.010   1.071  14.878  0.1114 -0.2831 -0.0867
18799W        W35273   0.371  16.625   6.158  0.3055  0.1050  0.5664
18800W        W35274   2.189   4.091   0.858  0.2285 -0.2760 -0.0307
18801W        W35275  12.321  16.016   2.644 -0.1043  0.0898 -0.1067
18802W        W35276  17.103  12.157   0.285 -0.0373 -0.1664  0.1893
18803W        W35277   6.195  13.025  11.148 -0.1351 -0.0039  0.2227
18804W        W35278   5.273  17.048   1.914 -0.0628 -0.0508 -0.2223
18805W        W35279   5.001   2.410  13.249  0.0192  0.1439  0.0043
18806W        W35280  16.709   0.554  13.449  0.0315 -0.1977  0.2175
18807W        W35281   3.378  16.408   0.749 -0.2517 -0.4750 -0.1230
18808W        W35282   1.135   0.056  10.695  0.2149  0.4081  0.3004
18809W        W35283   0.413  18.207  15.952  0.3294 -0.1789  0.0286
18810W        W35284   0.099  14.819  14.127 -0.2340  0.1852 -0.2268
18811W        W35285  12.034   8.416  12.275 -0.0430  0.2210 -0.0071
18812W        W35286   2.135   3.135   2.549  0.1648 -0.0138 -0.0102
18813W        W35287   7.718  13.357   2.737 -0.0138  0.0716  0.1729
18814W        W35288  13.012   4.574   2.649 -0.0192  0.0040  0.1026
18815W        W35289  12.271   2.316  14.250 -0.1328 -0.1298  0.1269
18816W        W35290  17.840   6.331   3.257 -0.0720 -0.0335  0.0029
18817W        W35291  11.791  16.489   4.800 -0.0278 -0.0161  0.0109
18818W        W35292  15.185  14.669   3.315  0.1597  0.1861 -0.2608
18819W        W35293   9.721   1.604   4.825  0.1494 -0.4280  0.2431
18820W        W35294  13.358   5.340  12.163  0.0512 -0.0670 -0.0648
18821W        W35295   1.812  11.454   5.341  0.0235  0.0518 -0.1092
18822W        W35296   0.473  15.668   1.523  0.2508 -0.0497  0.1586
18823W        W35297   3.273  10.383   0.401  0.1701 -0.0506 -0.1377
18824W        W35298   2.110  12.107   1.161  0.2674 -0.0672 -0.2745
18825W        W35299  14.756  15.828   2.781 -0.4378  0.1864 -0.1533
18826W        W35300  18.445   1.109  12.336  0.3919  0.1757 -0.1838
18827W        W35301   0.695  13.472  13.853  0.0231  0.0404  0.0313
18828W        W35302  13.967   4.950  14.351 -0.0425  0.0088  0.1923
18829W        W35303  12.858  13.475  12.507  0.0686 -0.1018  0.0063
18830W        W35304  10.357   4.937   0.493  0.1564 -0.0019  0.0521
18831W        W35305  11.590   2.877   1.526 -0.0276 -0.0065 -0.1604
18832W        W35306   3.990   6.595   2.432 -0.1058 -0.0936  0.2281
18833W        W35307   8.920   3.945  12.336  0.0103  0.2464  0.2436
18834W        W35308  12.678   3.847   2.413  0.1464  0.2782 -0.1191
18835W        W35309  18.208  10.621   2.558  0.2463  0.2567  0.0200
18836W        W35310  14.767  18.409   2.354  0.1613  0.0001  0.0629
18837W        W35311  14.424   3.503  12.341 -0.3276 -0.0968 -0.2299
18838W        W35312   7.174   8.893  11.055 -0.1332 -0.2405 -0.2917
18839W        W35313   6.175   0.558   4.777  0.1727  0.2690 -0.0226
18840W        W35314  16.715  10.691  12.871  0.0106 -0.0162  0.2692
18841W        W35315   4.229  14.193   4.804 -0.1379 -0.1829 -0.3411
18842W        W35316   8.105   9.038  12.645 -0.0131 -0.4132 -0.1095
18843W        W35317  16.556  13.463   1.057 -0.2927  0.2371  0.1743
18844W        W35318  15.030   8.584  15.627  0.2997 -0.1646 -0.1751
18845W        W35319  18.131   0.665   3.292 -0.0925  0.2886  0.0671
18846W        W35320  13.740  12.233  11.328  0.1426 -0.2700 -0.2950
18847W        W35321  11.630  11.301   0.885 -0.0304 -0.1236  0.0562
18848W        W35322   0.636   6.604  11.332 -0.1138  0.2381  0.0208
18849W        W35323  17.562  10.736   1.717  0.0419 -0.2149  0.0189
18850W        W35324  14.797  17.412  15.868  0.0200  0.1083  0.0611
18851W        W35325   5.957   4.725  13.596 -0.1468 -0.5169 -0.3523
18852W        W35326   1.986  11.242  11.414 -0.2374  0.1293 -0.0387
18853W        W35327   0.284   8.414  15.384 -0.3845  0.1048 -0.0581
18854W        W35328   4.907   3.997  11.503 -0.0930  0.0200  0.0603
18855W        W35329   0.085   8.215  15.869 -0.0988 -0.2813  0.1721
18856W        W35330   1.920   1.444  13.770 -0.0443 -0.1482 -0.3802
18857W        W35331   6.915   7.507  11.264 -0.0635 -0.1489  0.3403
18858W        W35332   2.547   5.882  13.315  0.0166  0.0018  0.1953
18859W        W35333   6.880  17.987  11.338 -0.5278  0.1195  0.0834
18860W        W35334   9.823  17.910   4.027 -0.0668 -0.3022  0.2882
18861W        W35335   7.670  14.870  15.732  0.1988  0.2010  0.1902
18862W        W35336  13.864  11.735   3.365  0.0536 -0.0459 -0.1395
18863W        W35337   5.887   0.029  15.320 -0.3280  0.1129 -0.1093
18864W        W35338   9.797  17.351   3.314  0.0905 -0.1198  0.0006
18865W        W35339  10.566   7.492   4.539 -0.1389  0.0470  0.1417
18866W        W35340  16.400  12.469  13.844 -0.0861  0.2515 -0.1236
18867W        W35341  10.436   0.452   1.601 -0.2924  0.2244  0.0017
18868W        W35342   2.435   3.310  11.838  0.0678 -0.1668  0.0166
18869W        W35343   3.926  11.721   0.344  0.0026 -0.0435  0.0652
18870W        W35344   3.762   3.069   1.652  0.5347 -0.3615 -0.1883
18871W        W35345   8.341  10.510   3.928 -0.0664  0.0156 -0.0457
18872W        W35346  18.063  18.047  10.713 -0.0939 -0.1127  0.1591
18873W        W35347   3.888   8.444   4.682 -0.1667  0.1673  0.0179
18874W        W35348  12.351  16.599   4.895  0.1257  0.0200  0.2171
18875W        W35349   8.267  14.200  14.845 -0.0352  0.0671 -0.2258
18876W        W35350   3.325   4.479   2.956 -0.1536 -0.1888 -0.1860
18877W        W35351   2.260   8.686  15.530  0.0659 -0.1690 -0.2244
18878W        W35352   0.063  13.807   4.312 -0.1656 -0.0670  0.0008
18879W        W35353   2.779   5.100   4.554 -0.1737 -0.0390 -0.0851
18880W        W35354  15.363   5.145   1.012 -0.0548  0.2933 -0.0408
18881W        W35355  10.931  12.151   2.131 -0.1339  0.1552  0.0478
18882W        W35356   0.778   2.769   2.622  0.2695 -0.0484  0.4377
18883W        W35357   6.279  15.963  14.310  0.0489 -0.0527 -0.3167
18884W        W35358  13.271   1.937   2.077 -0.0800 -0.1684  0.0566
18885W        W35359  12.836   1.752  13.811 -0.0713 -0.1803 -0.1897
18886W        W35360   6.883   4.025  14.486  0.0151 -0.0190 -0.0541
18887W        W35361   2.243  10.644  13.763  0.1776 -0.0973  0.5856
18888W        W35362   0.152   0.479  10.740 -0.2537 -0.0037  0.1034
18889W        W35363  11.738  12.758  13.193 -0.0900 -0.1277  0.1425
18890W        W35364  18.110   1.418   0.558  0.0452 -0.1713  0.2146
18891W        W35365  16.590   7.886  12.473  0.0195  0.1321  0.2360
18892W        W35366  12.748   4.111  15.472 -0.1408 -0.3951 -0.3523
18893W        W35367  10.731   7.773   1.173  0.0519 -0.0726  0.3616
18894W        W35368   6.162   9.898  11.021  0.2191  0.0497 -0.1286
18895W        W35369  17.016  15.636   0.267  0.1834  0.1007  0.0959
18896W        W35370   1.225   2.329  13.426  0.2029 -0.1157  0.1656
18897W        W35371   5.066   9.349  11.083 -0.0924 -0.4072 -0.3093
18898W        W35372  14.374   1.324   4.350 -0.1259 -0.2105 -0.1546
18899W        W35373  12.643  11.219  14.295  0.1752 -0.2115  0.0331
18900W        W35374   7.188  17.077   2.478  0.3322  0.1325 -0.2235
18901W        W35375  10.500  10.958   4.646  0.1408 -0.0670  0.1442
18902W        W35376  10.985  10.391   5.261  0.1129 -0.1193 -0.0150
18903W        W35377   4.245   8.587  12.734  0.2627 -0.1075  0.2446
18904W        W35378   3.323   1.611   4.032  0.0144  0.2692  0.0981
18905W        W35379   7.491   9.422  13.649  0.1898 -0.1316 -0.0165
18906W        W35380   6.472   6.310  12.569 -0.1506  0.0027  0.0364
18907W        W35381   1.527   9.298   3.800  0.0715 -0.2080 -0.1366
18908W        W35382   5.522  14.968   3.790 -0.0468  0.0620 -0.1343
18909W        W35383   0.338   5.157   4.479  0.2233 -0.2144 -0.3710
18910W        W35384  10.589   8.139  11.367  0.0287  0.1592 -0.0190
18911W        W35385  15.555   5.239  15.167  0.0952 -0.0766  0.0931
18912W        W35386  15.190   5.723  13.238 -0.0310  0.2829 -0.1655
18913W        W35387   9.897   0.152   4.803  0.3944  0.3058 -0.2101
18914W        W35388  15.507   4.155   0.233  0.3797  0.1421 -0.2038
18915W        W35389   9.575   3.670  15.568 -0.1382  0.0665  0.0780
18916W        W35390   4.163   6.187   0.529  0.2803 -0.1351  0.1779
18917W        W35391  14.473   3.710  12.849 -0.2111 -0.5551 -0.1126
18918W        W35392   4.177   7.400  12.005 -0.1282  0.1437 -0.0451
18919W        W35393  18.106   9.500   1.414 -0.2606  0.0590 -0.0025
18920W        W35394   9.627   3.752   5.266 -0.2458  0.0316  0.0074
18921W        W35395  15.131  17.664  14.286 -0.5899  0.3239  0.1080
18922W        W35396   5.391  18.432   2.752 -0.0583  0.0573 -0.0716
18923W        W35397  11.821   9.810   0.190  0.0952 -0.1631  0.1550
18924W        W35398  11.305  14.300  11.972  0.1975 -0.0330  0.1528
18925W        W35399   9.374  16.410  12.826  0.1193  0.0859 -0.0346
18926W        W35400  10.431   3.116   0.204 -0.0268 -0.2275 -0.2262
18927W        W35401  14.318   3.969  12.485  0.0409  0.0017  0.1388
18928W        W35402  11.916   7.662  13.868  0.0095  0.0937  0.1394
18929W        W35403   4.002  12.354   3.825  0.0583  0.0723  0.1532
18930W        W35404  12.795   8.886   3.199 -0.4222  0.0569 -0.0705
18931W        W35405   7.292  14.703   4.993  0.0580  0.3031 -0.3520
18932W        W35406  10.674  11.975  11.919 -0.0504  0.0537  0.3671
18933W        W35407  17.723   0.594   4.962 -0.0349 -0.0822  0.1785
18934W        W35408  16.240   3.635  13.594  0.1212 -0.0271 -0.3281
18935W        W35409  16.733   2.039  11.997  0.0105  0.1649  0.2266
18936W        W35410  16.861   4.745   1.037 -0.2560  0.0339  0.1144
18937W        W35411  15.813   4.978  12.832 -0.1699  0.1046 -0.1473
18938W        W35412  13.922  16.348  15.548 -0.0797 -0.1795  0.3557
18939W        W35413  10.668   5.766  14.296  0.0966  0.1285 -0.3822
18940W        W35414   6.976   3.381  11.708 -0.0715  0.0633 -0.2741
18941W        W35415   6.547  13.660  11.557 -0.3297  0.2888 -0.1003
18942W        W35416   0.916  16.195  12.562 -0.1320  0.3166  0.0083
18943W        W35417  17.720   0.414  11.327 -0.0719 -0.0396 -0.1015
18944W        W35418   0.665  11.463   1.873 -0.1932 -0.1741 -0.0092
18945W        W35419   0.757   1.209  11.624 -0.1252 -0.1132 -0.1366
18946W        W35420   9.450  12.070  15.292  0.1885 -0.0187  0.0356
18947W        W35421   1.440   0.305  14.194  0.1044  0.1636 -0.2278
18948W        W35422  16.295  14.949  15.888 -0.0847  0.0945  0.1824
18949W        W35423  17.195  16.784  14.278  0.1182  0.1883  0.1616
18950W        W35424   6.430   0.146  12.349  0.1091 -0.1268 -0.1283
18951W        W35425   9.147  11.671   3.811 -0.3671  0.2093  0.1594
18952W        W35426  17.405  11.576   1.019  0.2634  0.0118 -0.0123
18953W        W35427   5.965   6.324  13.764  0.1558 -0.2534  0.0207
18954W        W35428   6.700  16.710   1.624  0.0539 -0.0979 -0.2295
18955W        W35429   5.948   9.493  13.650 -0.2241 -0.0903  0.0938
18956W        W35430   4.783   6.047   5.072 -0.0310  0.1028 -0.1025
18957W        W35431  12.631   2.591  14.001  0.2000 -0.1152 -0.1335
18958W        W35432   3.229  10.859   1.922  0.2331  0.0015 -0.2204
18959W        W35433  11.068   6.668   1.459  0.1883  0.0031 -0.2637
18960W        W35434  17.947   2.512  14.077  0.0941 -0.0938  0.0531
18961W        W35435  16.168   9.525   1.152 -0.2611 -0.2030 -0.2033
18962W        W35436   3.943   2.105   2.443  0.0694  0.1224 -0.1704
18963W        W35437   9.007   1.236  11.565 -0.0089  0.1783  0.0048
18964W        W35438   9.619  12.959   1.911  0.0268  0.2301  0.2791
18965W        W35439  13.053  10.340   2.237 -0.0511 -0.0079 -0.0048
18966W        W35440   1.756  10.070   2.821  0.0595 -0.0823  0.2389
18967W        W35441   6.045   7.198  13.665  0.0108  0.1604  0.1812
18968W        W35442   7.677   2.999  15.039 -0.3046  0.2060  0.1062
18969W        W35443   0.757   0.214   1.736 -0.2706  0.0948  0.2964
18970W        W35444   7.605   1.198   0.813 -0.0608  0.0759  0.0374
18971W        W35445   3.100  10.503   2.843 -0.1785  0.0585  0.1174
18972W        W35446  14.578  14.913  14.571 -0.2192  0.1487  0.0134
18973W        W35447   3.386   2.433  10.110  0.4024  0.0896 -0.2343
18974W        W35448  10.908  14.948  12.470  0.0743 -0.4831  0.3191
18975W        W35449   5.691  12.597  12.700 -0.3015 -0.0021 -0.1177
18976W        W35450  12.924   6.943   0.508  0.1527 -0.0936  0.1580
18977W        W35451  16.675   8.101   3.128 -0.0626 -0.1476  0.0443
18978W        W35452   9.085  15.077  12.587  0.3729 -0.4298  0.1541
18979W        W35453  13.825  18.360   2.761  0.2569 -0.0840 -0.6834
18980W        W35454   1.757   6.219   2.602  0.0316  0.2049  0.0198
18981W        W35455  10.530  14.962  15.823  0.1383 -0.0746  0.0042
18982W        W35456   0.225  10.086  15.370 -0.0426 -0.1015  0.1052
18983W        W35457  16.604  17.239   1.032 -0.0282  0.0620 -0.1246
18984W        W35458  10.562   2.528   9.771 -0.1711  0.0451  0.0352
18985W        W35459  13.898   4.203   1.036  0.0033 -0.4179  0.2226
18986W        W35460  11.875   6.827  11.089 -0.1394  0.0756  0.1662
18987W        W35461  16.166  15.244   4.729  0.1167  0.0383 -0.2881
18988W        W35462  15.525   9.902   3.073  0.1243  0.1137  0.1066
18989W        W35463  16.733   3.206   5.693 -0.2280 -0.0145 -0.2766
18990W        W35464  14.173  17.254  10.291 -0.0501 -0.1458 -0.0638
18991W        W35465  12.468   5.760   1.872  0.0079 -0.0163  0.0832
18992W        W35466  15.538  13.820   5.898 -0.1238 -0.1202  0.2724
18993W        W35467  16.877   0.864  10.651  0.3026  0.4569  0.1045
18994W        W35468   0.691   5.454   4.599 -0.0876 -0.0268 -0.2324
18995W        W35469  12.345   3.762  11.970 -0.0670  0.1117 -0.5223
18996W        W35470   5.572  16.633  12.585  0.0400 -0.1218  0.1477
18997W        W35471  18.204   8.670   4.255 -0.0394  0.0615  0.1346
18998W        W35472  15.942  10.212   5.484 -0.0341 -0.1892 -0.1473
18999W        W35473   4.361  16.640   5.295  0.3040 -0.2136  0.0617
19000W        W35474   7.755   2.123  14.894  0.2982  0.1341  0.0479
19001W        W35475  11.570   9.009  11.693 -0.1031  0.1199 -0.2840
19002W        W35476  16.636   9.335  14.730  0.1151 -0.0748 -0.1578
19003W        W35477  10.464   3.948   1.660  0.1401  0.2473 -0.1245
19004W        W35478   8.356  17.022   1.722  0.1263 -0.0959 -0.0290
19005W        W35479   3.462   1.070  13.624  0.1079  0.1410  0.1857
19006W        W35480   9.815  13.835   4.228 -0.2667 -0.3369 -0.0591
19007W        W35481   3.194   1.328   1.196 -0.2075  0.0928  0.1306
19008W        W35482   5.298   2.242  15.670 -0.1276 -0.0203 -0.1654
19009W        W35483  12.624   4.046  13.825 -0.3194  0.0680 -0.2926
19010W        W35484   5.805  11.948  14.918 -0.1703 -0.0744 -0.0177
19011W        W35485   7.272   3.013  14.680 -0.0831  0.0025 -0.1066
19012W        W35486   4.940   5.584   2.815 -0.0574 -0.0192 -0.2805
19013W        W35487   1.057  18.454   5.024 -0.2839  0.0456  0.2360
19014W        W35488   4.923   9.584   2.424  0.4951 -0.2859  0.1287
19015W        W35489   8.714   0.802  11.749 -0.1530  0.0407 -0.2561
19016W        W35490   7.199  17.526   4.003 -0.0306 -0.2150  0.1131
19017W        W35491   1.635   3.187   1.127 -0.1829  0.0983 -0.0996
19018W        W35492   1.668  11.687  12.274 -0.0257  0.1331  0.2228
19019W        W35493  14.407   6.787  14.439  0.0592 -0.2559 -0.0240
19020W        W35494   8.036  13.138   5.344  0.4133 -0.1865 -0.0328
19021W        W35495   3.281  13.153   2.676  0.0713  0.2696  0.0125
19022W        W35496  11.285   6.010   0.057 -0.2543  0.1413 -0.0579
19023W        W35497   1.852   1.384   3.948 -0.0760 -0.0819 -0.3252
19024W        W35498   6.657   8.324  14.909  0.0670  0.0519 -0.1310
19025W        W35499  11.166  14.488  13.492 -0.1273  0.1834  0.1498
19026W        W35500  17.832  14.972   3.018  0.0904 -0.0970 -0.4538
19027W        W35501   7.308   9.182   5.460 -0.1228  0.1070  0.1466
19028W        W35502  11.526   4.835   3.378 -0.2245  0.2244  0.0798
19029W        W35503   7.851   7.004   2.292  0.1642  0.1934  0.2145
19030W        W35504  12.527  16.077  12.776 -0.0324 -0.3840  0.2313
19031W        W35505   7.008   4.688  13.962 -0.1698  0.2956  0.0064
19032W        W35506   1.632  13.504   0.234  0.0507 -0.0204  0.0082
19033W        W35507  10.175  15.842  13.786 -0.1192 -0.0136 -0.3034
19034W        W35508  10.856  10.841   5.025 -0.0280  0.0209 -0.0233
19035W        W35509  10.623   8.595   5.422 -0.1501  0.3071  0.0436
19036W        W35510   8.473   1.040   3.456  0.1636 -0.2145 -0.2397
19037W        W35511  16.402   7.994  15.461  0.2046  0.3280  0.3363
19038W        W35512   6.038   6.853  15.163 -0.0079  0.2721  0.2091
19039W        W35513  10.867   2.922  11.155 -0.0267 -0.2514 -0.2233
19040W        W35514  15.107   9.771   0.187 -0.1545 -0.0952 -0.1329
19041W        W35515   3.453  10.931  11.589 -0.2821  0.0478 -0.1196
19042W        W35516   0.709  11.850   3.777 -0.2944 -0.0381  0.2061
19043W        W35517   9.565   2.261  11.853 -0.3621 -0.2172 -0.1762
19044W        W35518  16.504  13.558  14.936  0.0946 -0.1557  0.0047
19045W        W35519   0.821  14.852   4.672 -0.3758 -0.0889  0.3158
19046W        W35520  11.348  16.358   4.602 -0.0600  0.2467  0.3163
19047W        W35521   3.631   8.562   1.221  0.2036  0.1106 -0.0829
19048W        W35522   5.352   5.850  15.282  0.3968  0.0788  0.0242
19049W        W35523  10.155   2.622   4.352  0.1865  0.2403  0.0329
19050W        W35524  15.503  14.599  13.543 -0.2422  0.0465  0.3950
19051W        W35525   9.502  12.033   4.549 -0.1529 -0.2123 -0.1855
19052W        W35526   4.587  16.114   2.988  0.1147  0.0815 -0.3137
19053W        W35527   4.302   7.006   1.427  0.1207 -0.2644 -0.0350
19054W        W35528  18.160   5.004   0.817 -0.0540 -0.0529 -0.0621
19055W        W35529   1.980  17.759   2.619  0.1260 -0.2766 -0.1276
19056W        W35530   6.017   7.119  10.609  0.1496 -0.0348  0.2243
19057W        W35531  17.018  17.425   4.855 -0.0062  0.1780 -0.0265
19058W        W35532  13.007   9.673   4.687  0.0667 -0.0815 -0.2177
19059W        W35533  17.581   7.476   5.958  0.3133  0.1307 -0.0391
19060W        W35534  17.372  13.389  13.985  0.0111 -0.0440  0.0818
19061W        W35535  14.741   9.251   5.150 -0.0956  0.1338 -0.0968
19062W        W35536   5.519   0.973  12.983 -0.1356 -0.2262  0.3127
19063W        W35537  17.098  15.646  13.708  0.3389 -0.0636 -0.2399
19064W        W35538   7.469   8.923  11.435 -0.2148 -0.0362  0.0996
19065W        W35539   1.498   0.091  13.228 -0.1281  0.1998  0.0954
19066W        W35540  17.626  17.583   0.205 -0.0195 -0.1161  0.2077
19067W        W35541   0.476   7.139  15.688 -0.2498 -0.0309  0.2067
19068W        W35542   2.207   5.011  13.761  0.2506  0.3171  0.3236
19069W        W35543  10.173  11.178  11.041  0.0305 -0.2964 -0.0433
19070W        W35544  18.167  16.906   1.930  0.1932  0.0312 -0.1404
19071W        W35545  11.150   7.493  13.649  0.0083  0.2255 -0.1723
19072W        W35546   4.766   9.485   1.833  0.0782 -0.0165 -0.1518
19073W        W35547  18.088   8.352  13.799  0.1386 -0.4034  0.3684
19074W        W35548   9.222   3.839  11.492 -0.2858  0.2536  0.1676
19075W        W35549  12.392   4.222  11.585  0.0846 -0.0102 -0.0958
19076W        W35550  10.158   6.369   5.306  0.0117 -0.1074  0.3007
19077W        W35551  13.387  10.393   5.832 -0.0125 -0.1586  0.4791
19078W        W35552   3.667  13.750   3.747  0.0212 -0.0793  0.0824
19079W        W35553   5.674  10.955   2.473  0.0806 -0.0949  0.0448
19080W        W35554  16.384   6.971   4.963 -0.1742 -0.0741  0.1151
19081W        W35555   4.736  13.570  13.023  0.1446 -0.0485 -0.1348
19082W        W35556   0.919  12.348  11.509  0.1198  0.0443 -0.2366
19083W        W35557   0.854   1.404  15.228 -0.4086  0.2079 -0.0508
19084W        W35558   4.339  10.841  12.714 -0.2730 -0.2844  0.1172
19085W        W35559   1.093   3.449  14.294  0.1367 -0.2104 -0.0657
19086W        W35560   8.583  16.628  15.509  0.0199  0.0842  0.2518
19087W        W35561  14.467  17.766   2.542 -0.0329 -0.0407  0.1755
19088W        W35562   6.375  18.420  13.427 -0.3021  0.0353 -0.1240
19089W        W35563   9.254  16.061   2.525  0.2878 -0.2208 -0.2128
19090W        W35564  10.497  10.577  15.345 -0.0141  0.1483 -0.1243
19091W        W35565  11.258  17.332   0.879 -0.3395  0.1535 -0.0690
19092W        W35566  13.907   8.287   2.787 -0.0900  0.1365 -0.2228
19093W        W35567   7.120   4.458   4.872  0.0743 -0.0183  0.0561
19094W        W35568   4.599   9.049  11.767 -0.0772  0.2019  0.0460
19095W        W35569  17.804  11.063  11.050  0.0406  0.0100  0.1579
19096W        W35570   9.257   5.540  11.240  0.0535 -0.2029 -0.1376
19097W        W35571   1.040  15.715   2.267  0.1386  0.1723 -0.2863
19098W        W35572   2.316  12.231   4.709  0.0048  0.1367  0.0266
19099W        W35573  10.004  12.879   4.865  0.0429  0.1547 -0.0893
19100W        W35574  15.962   3.443  15.147  0.2333 -0.2682  0.5431
19101W        W35575  18.248   2.562  10.949  0.1542  0.0241 -0.0534
19102W        W35576  14.796  10.424  15.044 -0.0971 -0.0193  0.1746
19103W        W35577   4.778  10.597  12.600 -0.0444 -0.0129 -0.0221
19104W        W35578  15.855   4.451  13.826 -0.4033  0.3916  0.3750
19105W        W35579   7.961   5.495   4.361 -0.3502 -0.1011 -0.0198
19106W        W35580   4.493  17.380  15.102 -0.1182  0.3680 -0.1233
19107W        W35581   8.464   8.177   4.148  0.0486  0.0920  0.3525
19108W        W35582   2.978  12.758  13.504 -0.1721  0.2014  0.0857
19109W        W35583   7.995   0.708  12.464  0.0181 -0.1308 -0.2909
19110W        W35584  14.000  13.045   6.313  0.0602  0.0951 -0.0178
19111W        W35585  16.365   3.697  15.165  0.1397 -0.0564 -0.0786
19112W        W35586  14.051  15.728  13.156 -0.0979  0.2997 -0.3158
19113W        W35587   0.879  15.477  15.962  0.1950  0.0331  0.0858
19114W        W35588  13.416   3.868   3.884 -0.1789  0.0720 -0.2593
19115W        W35589  17.837  17.122  13.981 -0.0990 -0.3042  0.1609
19116W        W35590   0.987  16.452   5.427  0.1568  0.1237 -0.1289
19117W        W35591  16.409  12.496  15.232 -0.2435  0.1682  0.0127
19118W        W35592   6.065  14.452   4.896  0.0235  0.3018 -0.1315
19119W        W35593   5.277  13.231  12.762 -0.1823  0.0670 -0.2300
19120W        W35594  13.170   2.358  11.143  0.0961 -0.4326  0.0598
19121W        W35595  14.846  11.993  14.875 -0.2656  0.1624 -0.0465
19122W        W35596   5.431  16.959   4.241  0.1546 -0.1197 -0.2632
19123W        W35597   9.763   9.307   2.063 -0.2333 -0.3506  0.0886
19124W        W35598  17.016  12.990  12.786 -0.1850  0.0804  0.1006
19125W        W35599   6.751   2.253  13.366  0.4070  0.0592  0.0735
19126W        W35600   9.234  17.700  14.520  0.1429  0.2224  0.0945
19127W        W35601   6.551  15.014   3.673  0.1687 -0.2389  0.0986
19128W        W35602  17.728  13.865   2.878  0.2745 -0.3465 -0.1022
19129W        W35603  15.882  12.037   1.217  0.0098 -0.0026 -0.0523
19130W        W35604  14.418  10.065  15.875  0.1093 -0.2178  0.2606
19131W        W35605  16.021  10.018  15.589  0.0921  0.4149  0.1017
19132W        W35606  10.699   5.217  14.335  0.0505  0.0796  0.2048
19133W        W35607   6.490  10.025  14.624  0.2520  0.0322  0.1417
19134W        W35608  16.474   5.389   0.704  0.1341  0.0716  0.1456
19135W        W35609  13.423  16.274  13.933 -0.0339 -0.1626 -0.1316
19136W        W35610   7.346   7.720   5.316  0.2146 -0.0076 -0.1893
19137W        W35611   0.016   3.867  10.246 -0.0916 -0.1939 -0.0680
19138W        W35612  11.576  15.672   5.455  0.2581  0.0925  0.0645
19139W        W35613  13.675  10.413   4.283  0.3901  0.2345 -0.0263
19140W        W35614   4.854   8.344   3.400 -0.0530  0.0341  0.1357
19141W        W35615   6.239  13.874   0.254 -0.2356 -0.0439 -0.1832
19142W        W35616   5.996  12.235   5.333 -0.2891 -0.0574  0.1458
19143W        W35617   3.495  17.929   4.297  0.2750  0.0149  0.1293
19144W        W35618   0.016  17.877  11.072  0.1384 -0.3182  0.1015
19145W        W35619  12.633  13.680   2.246 -0.0860  0.2936 -0.0689
19146W        W35620   9.993   1.176   3.110 -0.2298 -0.1215 -0.1077
19147W        W35621  14.651  14.534   2.538 -0.4573  0.0685  0.0049
19148W        W35622  12.657   1.326  15.833 -0.1236  0.1496 -0.1672
19149W        W35623  13.853  10.136  11.357  0.1044 -0.2975  0.2275
19150W        W35624   1.893   1.548  14.362  0.3743  0.1182  0.0613
19151W        W35625   1.757   7.433   3.957  0.1787  0.1088 -0.0035
19152W        W35626  13.847   1.863   3.736  0.2304  0.1240  0.1451
19153W        W35627   6.342   7.216  14.970  0.0773 -0.2679  0.2571
19154W        W35628  17.654  15.985   2.839  0.2601  0.1240  0.3511
19155W        W35629   3.676  10.102  15.484  0.2031  0.4077 -0.2944
19156W        W35630   4.996  14.287   0.498  0.0904 -0.1182  0.2107
19157W        W35631   5.379  12.377   1.586 -0.3016  0.0964  0.1343
19158W        W35632   4.260   4.053  10.153 -0.3002 -0.1025 -0.0003
19159W        W35633   6.244  16.386   0.026  0.1080 -0.1799  0.0603
19160W        W35634   5.113   6.651   3.997 -0.1466 -0.0331 -0.0460
19161W        W35635  11.677   7.203   3.250  0.0008  0.0614 -0.3242
19162W        W35636   2.507  15.725   4.446 -0.1208 -0.1571 -0.2275
19163W        W35637  11.386   9.754   4.536 -0.1947 -0.4228 -0.0992
19164W        W35638   2.124  11.260   4.184  0.1360  0.1476  0.2111
19165W        W35639   5.597  10.435  11.187 -0.3172  0.1172 -0.4227
19166W        W35640  12.860   7.510   5.088  0.4028  0.1137 -0.3953
19167W        W35641   5.593   8.031   5.375  0.1097 -0.0158 -0.1674
19168W        W35642  12.659   8.680  12.641 -0.0670  0.0375 -0.3486
19169W        W35643   1.761  15.820   0.095 -0.0554 -0.0598 -0.0975
19170W        W35644   1.927  13.537  13.551 -0.2164 -0.2548  0.0714
19171W        W35645  12.526   0.700  10.210  0.5050 -0.4018 -0.2711
19172W        W35646   0.192   4.864  14.583 -0.0240  0.2083 -0.0220
19173W        W35647  13.169  14.227  14.610 -0.0434  0.0220  0.0043
19174W        W35648   9.449   4.383  15.254 -0.0814  0.3118 -0.2280
19175W        W35649  10.153   4.886   1.993  0.1605  0.2596  0.0165
19176W        W35650  12.297   5.247  13.144  0.0301  0.0229  0.0285
19177W        W35651  10.889   6.703   4.689 -0.0326  0.2095  0.1554
19178W        W35652   5.898   0.525   4.119 -0.0264 -0.0173 -0.2490
19179W        W35653   7.094   2.199  11.197 -0.0406 -0.3104  0.0253
19180W        W35654  14.789   4.597   2.645  0.1737 -0.0628 -0.0136
19181W        W35655   5.221   0.393   2.596  0.0274 -0.1750 -0.1621
19182W        W35656   7.399  13.530   3.249 -0.0233 -0.2211  0.1949
19183W        W35657  14.796   8.107  11.927 -0.1026  0.0021 -0.0686
19184W        W35658  11.175  15.807   4.746 -0.0325 -0.0740 -0.0796
19185W        W35659  17.603  11.575   3.207 -0.2274 -0.2574  0.0520
19186W        W35660   0.792   1.504  15.793 -0.1559  0.3344 -0.0029
19187W        W35661  13.106  12.724   5.601 -0.2973 -0.1263 -0.1380
19188W        W35662  10.421   2.056   0.453 -0.1704  0.0638 -0.1960
19189W        W35663   5.438  15.651  14.003 -0.3137  0.3635  0.1694
19190W        W35664   7.619   1.107  12.504 -0.0085 -0.1260  0.0276
19191W        W35665  17.652   5.978   3.723  0.2924  0.4033  0.0338
19192W        W35666   0.645   0.805  13.394 -0.2484 -0.1497 -0.0815
19193W        W35667  16.053  17.279  14.632  0.0945  0.1664  0.0931
19194W        W35668   0.511   6.484  15.427 -0.1589 -0.1917  0.2758
19195W        W35669  17.563   1.881  13.049  0.1214  0.2035  0.0743
19196W        W35670  17.884   5.581   9.679 -0.6895  0.0994 -0.0108
19197W        W35671  10.520   9.145   3.755  0.0445  0.1873  0.1353
19198W        W35672  17.772  16.462  10.493 -0.0186  0.0192  0.3262
19199W        W35673  10.134   5.403  14.098  0.3832 -0.1201  0.3957
19200W        W35674  13.912  11.677  13.823  0.1570 -0.3645 -0.3480
19201W        W35675  17.343  14.156   4.900  0.0115  0.2145 -0.0497
19202W        W35676   9.701  13.069  13.131 -0.1871  0.1801 -0.1253
19203W        W35677   5.642  13.464  15.391  0.2121  0.0224 -0.0571
19204W        W35678   4.135  12.635   2.556  0.0625 -0.0084 -0.0325
19205W        W35679  11.940   2.854   0.206 -0.4084 -0.2215 -0.1758
19206W        W35680   3.418  16.952   1.575 -0.1387 -0.0643  0.2874
19207W        W35681   2.345  11.641   1.359 -0.2895  0.3191 -0.0651
19208W        W35682   6.057  15.638   1.101  0.0734 -0.1354  0.0453
19209W        W35683  14.497  10.400   3.276  0.1226  0.0619 -0.1531
19210W        W35684  16.386   0.691   3.519 -0.4374  0.1289 -0.1363
19211W        W35685   8.646   6.215  14.013  0.0535 -0.1036  0.1073
19212W        W35686   8.102  12.954   3.810  0.2272 -0.0413 -0.0450
19213W        W35687   0.877   4.551  14.181  0.1411  0.1657 -0.2226
19214W        W35688   0.926  14.180   4.151 -0.3438  0.0525  0.1154
19215W        W35689   1.125   7.009  12.959  0.3384 -0.1479 -0.0797
19216W        W35690   1.671  13.025  13.626 -0.3041  0.1553  0.3302
19217W        W35691   0.109   9.211  14.759 -0.1328 -0.1157 -0.3013
19218W        W35692  14.219   5.445  13.069  0.0096 -0.2758 -0.1937
19219W        W35693   7.661  13.630   2.307 -0.1026  0.1696 -0.0103
19220W        W35694   3.974   3.827   0.209  0.1007 -0.2392  0.2274
19221W        W35695  11.303  16.424   0.551  0.2234  0.0868  0.0983
19222W        W35696  16.967  14.733  15.505  0.1262  0.3349  0.0354
19223W        W35697  13.767  11.345   2.812 -0.1014 -0.0162  0.0620
19224W        W35698  10.266   8.855  14.982  0.0620 -0.1051 -0.1027
19225W        W35699  18.039   9.413   5.472  0.3053 -0.1711 -0.2576
19226W        W35700  16.129  13.665  14.618  0.0256  0.0875 -0.2366
19227W        W35701   5.789  14.576  15.859  0.1312  0.2833 -0.0114
19228W        W35702  17.474   4.774  10.284  0.1886 -0.0011  0.2627
19229W        W35703   4.218  16.884  11.454 -0.0931 -0.2901 -0.0643
19230W        W35704  10.658  12.068  15.270 -0.3101 -0.1446  0.1930
19231W        W35705  17.679  11.119   4.177 -0.0687  0.0260 -0.4380
19232W        W35706  10.035  10.821   4.420 -0.4285 -0.0991 -0.1173
19233W        W35707   3.018  17.136   1.289 -0.1568  0.3344 -0.1259
19234W        W35708   8.722   0.748  15.354  0.1715 -0.0326  0.0680
19235W        W35709  16.125   0.872   2.608  0.0416 -0.0584  0.1677
19236W        W35710   9.383   7.842  13.178  0.0585  0.4499 -0.0656
19237W        W35711   2.502   0.510  11.236  0.4359  0.1644  0.0289
19238W        W35712  11.522   0.305  14.507 -0.0242  0.0786 -0.0008
19239W        W35713   5.522   7.676  14.705 -0.0148 -0.2764  0.1543
19240W        W35714   1.077  11.761   2.487 -0.1584 -0.1609  0.0985
19241W        W35715   0.747   5.268  13.410 -0.1844  0.0753 -0.0352
19242W        W35716   1.767  17.387   3.675  0.0452 -0.0951 -0.0543
19243W        W35717  17.741   1.049  13.617  0.1526 -0.0945  0.1997
19244W        W35718   1.477  15.672   2.069 -0.0025 -0.0376 -0.1405
19245W        W35719   6.667  18.024  15.775  0.0090  0.0773 -0.0438
19246W        W35720  14.561   5.100   4.979 -0.2375  0.3911 -0.3344
19247W        W35721  10.017   0.726  13.383  0.2200 -0.1677  0.1267
19248W        W35722   3.058   1.916   4.348 -0.1672 -0.1420  0.0732
19249W        W35723  18.461  12.790   2.815 -0.2474 -0.0987  0.2312
19250W        W35724   6.670   8.081   3.945 -0.0864 -0.0086 -0.3067
19251W        W35725   5.096  12.164  12.550 -0.2818 -0.1673  0.2495
19252W        W35726  10.463   6.383  14.369 -0.1528  0.0380  0.0120
19253W        W35727  13.014   6.060  14.485  0.0902 -0.2054  0.1129
19254W        W35728   1.110   6.027  13.739 -0.3663  0.0202 -0.2543
19255W        W35729  17.410   9.394  12.089  0.1028 -0.0984 -0.0472
19256W        W35730   8.204  13.052   2.798  0.1630  0.1506 -0.0469
19257W        W35731  12.869  15.334  14.739  0.2017 -0.1602  0.1148
19258W        W35732   9.407   0.851  11.417  0.1920  0.0767  0.1646
19259W        W35733  13.480  16.958   3.407  0.0801 -0.0553 -0.2421
19260W        W35734   5.277   0.408  13.673 -0.0518  0.0873  0.0046
19261W        W35735  18.051  13.983  10.998  0.1535 -0.0415 -0.0838
19262W        W35736  15.415  10.307   4.395 -0.1322 -0.0398 -0.0396
19263W        W35737   3.932  12.160   2.403 -0.5089  0.1622  0.0727
19264W        W35738  13.891  13.652   3.023 -0.1423  0.1033  0.0700
19265W        W35739   5.884  10.630   2.054 -0.0825 -0.1517 -0.0639
19266W        W35740   4.018  10.072  14.745 -0.1487  0.1744 -0.0514
19267W        W35741  17.792   9.579   1.059  0.0008  0.3050  0.2337
19268W        W35742  12.833  16.167   2.635  0.2605 -0.0193  0.1549
19269W        W35743   9.762   0.195  12.146 -0.1990 -0.0605  0.0148
19270W        W35744  10.294   9.557   2.086  0.3478 -0.0228 -0.0449
19271W        W35745   7.872  16.788   1.313  0.0783 -0.1141  0.0972
19272W        W35746   9.107   4.369   1.087  0.1361  0.1274 -0.0815
19273W        W35747   5.712  18.221   0.304 -0.1130 -0.2518  0.2783
19274W        W35748   4.420  17.205   1.871  0.0502 -0.2988  0.1231
19275W        W35749  16.150   0.123   1.227  0.1417 -0.0259  0.0916
19276W        W35750  16.334   8.352   0.406  0.0131  0.2198  0.0369
19277W        W35751  11.231  12.830   3.135 -0.0080 -0.1478 -0.0395
19278W        W35752   6.059   6.639   4.282 -0.1818 -0.0041 -0.0844
19279W        W35753  11.832  15.480  11.512 -0.0328  0.1719 -0.0168
19280W        W35754   2.945   8.828  14.968  0.5411  0.1770  0.1117
19281W        W35755  16.582   4.637  13.587  0.1973  0.0077 -0.1521
19282W        W35756  14.499   1.415   1.351  0.2166 -0.0489  0.0654
19283W        W35757   3.776  15.435  12.395  0.0946  0.2169 -0.5261
19284W        W35758   1.725  17.739  12.036 -0.2867  0.2852  0.0734
19285W        W35759   8.454   1.194  15.284 -0.0959 -0.0370 -0.0899
19286W        W35760   5.210   3.475  12.377 -0.0080 -0.0164  0.2012
19287W        W35761  11.010   3.040  14.475 -0.0394  0.1371 -0.2447
19288W        W35762  16.850   0.411  12.943  0.0145 -0.0591  0.1064
19289W        W35763  16.361   3.577   3.656 -0.1058 -0.1647  0.0646
19290W        W35764   1.715   7.616   0.390  0.3883 -0.1111  0.0640
19291W        W35765   1.657  17.959  15.316 -0.0831  0.1848 -0.0068
19292W        W35766   3.743  15.398  15.259  0.2977 -0.1918  0.2302
19293W        W35767   8.543  16.699   2.191 -0.1452  0.0357  0.0556
19294W        W35768  17.745   7.420   4.792 -0.1357 -0.0422 -0.2996
19295W        W35769   8.228   0.487   9.904 -0.1225 -0.0390  0.0024
19296W        W35770   8.327  15.716   2.308  0.0288 -0.1712 -0.1020
19297W        W35771  11.674   6.357  14.194  0.3416 -0.2442  0.0144
19298W        W35772  10.379   5.768  12.083 -0.1066  0.2122  0.2973
19299W        W35773   4.704  17.035  12.581 -0.0003  0.0968  0.3336
19300W        W35774   8.621   1.003   4.546  0.1155  0.0596 -0.5656
19301W        W35775  11.234  15.871  12.066  0.0733  0.1155  0.2332
19302W        W35776  15.252  10.900   1.987 -0.3195  0.1066 -0.2442
19303W        W35777  16.157   2.238  11.192  0.1076 -0.0063  0.2185
19304W        W35778  13.762   6.209  11.391  0.0579 -0.2041 -0.0595
19305W        W35779  11.850   0.280   4.656 -0.0484  0.2080 -0.0002
19306W        W35780   9.633  15.370   1.919  0.1777 -0.0140 -0.3091
19307W        W35781   7.576   1.454  11.360  0.0127 -0.1380  0.0391
19308W        W35782   1.585  17.607  14.045  0.0232  0.1324  0.0773
19309W        W35783   6.145  12.139   3.210 -0.3167 -0.1032  0.1721
19310W        W35784   9.972  12.377  15.778 -0.0712  0.3484 -0.1355
19311W        W35785   9.816  17.345   3.877 -0.2542  0.2011  0.1940
19312W        W35786  14.423   6.808  15.491  0.0093  0.1722 -0.0545
19313W        W35787  13.571  10.571   3.265  0.0400  0.1711 -0.0232
19314W        W35788  16.816   1.688   2.771 -0.0830  0.0384  0.0715
19315W        W35789  16.073  13.289  15.135 -0.1715 -0.2400  0.0672
19316W        W35790   4.682  12.175  11.828  0.4341 -0.1496 -0.1925
19317W        W35791  12.824   1.249   2.498 -0.2162 -0.2146  0.0974
19318W        W35792   6.147  15.861  13.330  0.4181  0.0720 -0.1706
19319W        W35793  10.930   1.116  13.440  0.0808 -0.1936 -0.2593
19320W        W35794  16.177   2.622  12.415 -0.1894  0.1324  0.4104
19321W        W35795   4.980   6.732  15.145  0.1069 -0.0550  0.1700
19322W        W35796  13.652   2.408  15.395 -0.1117  0.2491  0.0178
19323W        W35797  18.118   8.242   2.428  0.1990  0.2509 -0.2861
19324W        W35798   0.066  17.980   1.545  0.1613 -0.2845 -0.0176
19325W        W35799   0.955   8.919  13.534  0.0454  0.2124 -0.1954
19326W        W35800   8.041  11.211  13.682 -0.1898 -0.2935 -0.1409
19327W        W35801   5.840  15.896  15.126  0.0385 -0.1352 -0.0829
19328W        W35802   6.016  17.418  12.872  0.4715  0.0487  0.3287
19329W        W35803  15.265  11.983  13.297  0.0708 -0.1505  0.0780
19330W        W35804  11.787  10.943   4.779  0.2490  0.1842 -0.0056
19331W        W35805   2.337  13.829   0.463  0.2051 -0.0630  0.2991
19332W        W35806  17.661   5.667  14.936  0.1577  0.1790  0.4221
19333W        W35807   9.143   9.735   0.789  0.0201 -0.1146  0.0162
19334W        W35808  10.130  16.772   0.933  0.1118 -0.1648  0.2873
19335W        W35809  17.401   5.117   3.298 -0.0123  0.0900 -0.1525
19336W        W35810   9.661   9.826  13.738  0.2126  0.0813 -0.0866
19337W        W35811  14.862  14.301  13.320 -0.0495 -0.2653 -0.0099
19338W        W35812   7.326  14.929   4.138  0.1083 -0.2677 -0.1303
19339W        W35813  11.535   7.502   4.863  0.1306  0.1529 -0.1448
19340W        W35814  14.386  16.392   4.142 -0.2626  0.0470 -0.0225
19341W        W35815   3.856   0.894  14.061 -0.0195 -0.2155 -0.1256
19342W        W35816   0.037   3.603   4.463  0.1333  0.1164  0.1186
19343W        W35817  10.273  16.277   3.727 -0.2063  0.1238  0.4287
19344W        W35818   9.156   6.359   4.677  0.1463 -0.1149 -0.1007
19345W        W35819   7.446   9.492  15.871 -0.1938  0.1091  0.1313
19346W        W35820  13.586   1.550  11.690 -0.0278 -0.2176  0.0613
19347W        W35821   9.136   9.101   3.053  0.3187 -0.0223 -0.3023
19348W        W35822   7.172  10.294   3.183 -0.0625  0.0271  0.1303
19349W        W35823   2.224   5.058   0.374 -0.1621 -0.2046  0.1834
19350W        W35824  15.660   9.008   3.066  0.1243 -0.1788 -0.0812
19351W        W35825  16.936   8.144   5.480  0.1329  0.0123  0.1120
19352W        W35826  15.079  10.631   1.611 -0.0278 -0.0993 -0.0102
19353W        W35827   9.659  16.400   3.932  0.0467  0.0689 -0.1688
19354W        W35828  10.140  14.080  13.178 -0.0201 -0.1573 -0.0752
19355W        W35829  11.233  12.520   3.918 -0.1079  0.0272 -0.1655
19356W        W35830  16.964   6.634   3.056 -0.1710  0.1152  0.2760
19357W        W35831  15.848   4.317  15.646  0.0484  0.2888 -0.3108
19358W        W35832   7.460   5.524   3.580 -0.0518  0.2692  0.2216
19359W        W35833  11.940  18.057   4.277 -0.0827 -0.1929  0.1051
19360W        W35834  12.915   7.266   1.871 -0.0333  0.3477 -0.1505
19361W        W35835   1.579   9.901  11.580  0.1403  0.1304  0.0155
19362W        W35836   5.555  15.961   5.963  0.0312  0.0217 -0.1296
19363W        W35837  15.737   5.359  15.660  0.3384 -0.0310 -0.2513
19364W        W35838   6.133  14.154  15.804 -0.0989 -0.0017 -0.0692
19365W        W35839  17.588  18.079  11.862  0.2752  0.1120  0.0050
19366W        W35840   8.205   2.985   0.149  0.0696 -0.1167  0.0549
19367W        W35841   6.513   9.520   2.036 -0.2954 -0.4798 -0.1553
19368W        W35842   4.955  11.608  11.479 -0.1535 -0.0311 -0.1642
19369W        W35843   9.332   7.456  13.550 -0.0608 -0.0420  0.0460
19370W        W35844  12.809  17.174  13.673  0.2385 -0.1783  0.1649
19371W        W35845   9.937  14.670  14.331  0.2999  0.3183  0.0903
19372W        W35846  17.502   1.195   3.356 -0.0192 -0.3704  0.0493
19373W        W35847  14.242   1.990  14.685 -0.0328 -0.1130  0.3090
19374W        W35848   5.956   8.888  13.704 -0.3380  0.1971 -0.2113
19375W        W35849   7.497   4.333  10.916 -0.0914  0.1870  0.0835
19376W        W35850   9.379   5.765   5.438 -0.0414 -0.1609 -0.0748
19377W        W35851  13.056  16.777  11.350 -0.1383  0.3657  0.0257
19378W        W35852   7.566   0.411   4.134  0.0959 -0.2826  0.0370
19379W        W35853  17.211  12.099   1.626 -0.7466  0.1323  0.1929
19380W        W35854  16.281   7.206  12.661  0.0443 -0.1770  0.0317
19381W        W35855  12.245  14.614  12.124 -0.2026  0.3600  0.1837
19382W        W35856   4.716   7.954   3.105  0.0103 -0.1240  0.0433
19383W        W35857  17.074  12.771  11.470 -0.1232  0.1805 -0.0931
19384W        W35858   8.378  13.490   0.572 -0.1114 -0.0300 -0.0285
19385W        W35859  12.946  18.012   2.830 -0.1916  0.2676  0.1207
19386W        W35860   0.202  16.387  13.195  0.0651 -0.0968  0.1653
19387W        W35861   2.334  14.266  12.919  0.0643  0.0853  0.0058
19388W        W35862   1.675  17.348  12.889 -0.2222  0.0563  0.1289
19389W        W35863   1.239   2.792   2.363  0.1832 -0.1594 -0.1734
19390W        W35864  15.797  11.139  11.799 -0.0298 -0.0919  0.0396
19391W        W35865  10.237   8.044   1.079  0.0039  0.0818 -0.0209
19392W        W35866  11.718  10.437   2.679 -0.0258 -0.3325  0.1313
19393W        W35867  18.063  11.662  14.064 -0.1445  0.0149 -0.1508
19394W        W35868   9.195   9.630  15.837  0.0010  0.1064  0.1650
19395W        W35869  13.394  16.120   1.762 -0.0238 -0.0137 -0.0059
19396W        W35870   3.086   0.649  11.650  0.2034  0.0404 -0.0037
19397W        W35871  12.526   9.524   3.426  0.0264 -0.0904  0.3725
19398W        W35872   4.747  14.100   3.124  0.1191 -0.0583  0.0139
19399W        W35873   6.886  14.445   5.213  0.3420  0.0922 -0.1508
19400W        W35874  14.098   4.347  12.247  0.3567 -0.0351 -0.3277
19401W        W35875   3.803   7.658  13.460 -0.0856  0.1449  0.4972
19402W        W35876  15.825  14.738  15.668  0.1355 -0.0363 -0.0356
19403W        W35877   0.076  17.270   2.819 -0.1833  0.0156 -0.1087
19404W        W35878  10.627   2.521  11.497 -0.2215  0.3170 -0.0524
19405W        W35879  11.858   2.667  15.289 -0.0465  0.0122  0.0339
19406W        W35880  11.261  10.376   3.808  0.0755  0.1868 -0.1763
19407W        W35881  12.469  18.199  11.804 -0.1009  0.0542  0.3185
19408W        W35882  13.169   7.307   2.272  0.0738  0.0441  0.0278
19409W        W35883  16.113   2.289  13.102  0.1567  0.0943 -0.2265
19410W        W35884  16.361  10.891   5.403  0.2117  0.0097 -0.3186
19411W        W35885  11.180   1.679  15.575  0.0535 -0.0963  0.1691
19412W        W35886   6.151   3.579   4.372  0.1516  0.0236 -0.1391
19413W        W35887   4.329  16.087  13.359  0.2858 -0.1500 -0.3687
19414W        W35888   8.897   0.825  11.306  0.0967 -0.0524  0.0904
19415W        W35889  10.606   7.671   0.694 -0.2651  0.0211  0.0673
19416W        W35890   4.519  13.367  15.585 -0.1265  0.2467 -0.0342
19417W        W35891  13.875  17.496   2.622 -0.0627 -0.3322  0.0414
19418W        W35892   1.156   3.384  11.404 -0.2531  0.2348 -0.0867
19419W        W35893   2.765  14.643   0.150 -0.1012  0.2138  0.2107
19420W        W35894   6.730  18.247  13.128  0.2166 -0.1479  0.0349
19421W        W35895   4.580  12.295  14.680 -0.1577  0.0581  0.0912
19422W        W35896   2.242  10.011   2.050 -0.0075  0.1693 -0.1073
19423W        W35897   1.279   3.385   4.220 -0.2209  0.0775  0.1986
19424W        W35898   2.018  15.644   2.291  0.0279 -0.2124 -0.3920
19425W        W35899  13.523   4.729   1.438  0.0350 -0.2183  0.2190
19426W        W35900  15.159   3.999   3.283  0.2638  0.2501 -0.0912
19427W        W35901   7.350  14.039  13.808 -0.1368  0.1422 -0.2623
19428W        W35902   0.023   0.722   5.080 -0.1056 -0.1885  0.2357
19429W        W35903   6.914  12.329   2.249  0.0830  0.0060  0.3210
19430W        W35904   5.477   8.778  13.620  0.1556  0.1397  0.1582
19431W        W35905   4.460  11.252  11.627  0.1111  0.2392  0.1519
19432W        W35906   6.817  16.279   1.843  0.0503  0.4578 -0.0561
19433W        W35907  17.654   2.726   3.573 -0.1871 -0.2996  0.2276
19434W        W35908  10.502  12.086   1.658 -0.0044  0.0854 -0.3281
19435W        W35909   8.568   6.660  12.385  0.3047  0.1476 -0.0267
19436W        W35910  10.389  14.889  12.087  0.1640  0.0776 -0.1739
19437W        W35911   5.334  11.343  14.358 -0.3319 -0.0268 -0.1004
19438W        W35912   8.521  11.259  11.051 -0.3237 -0.2420 -0.0355
19439W        W35913   7.371   0.848   3.911  0.2669 -0.0759  0.0494
19440W        W35914   7.912  10.461   3.044  0.0395  0.0641 -0.1063
19441W        W35915   9.823  10.274  12.014 -0.0706  0.3057  0.0275
19442W        W35916   3.182   6.713   0.077  0.1814  0.3483 -0.4267
19443W        W35917   3.976  15.770  14.125  0.1434  0.0007  0.1322
19444W        W35918  12.961  14.266   3.770 -0.1406 -0.0819  0.0421
19445W        W35919   5.103   8.873  13.990 -0.1880  0.0273  0.1496
19446W        W35920   3.339  16.107  10.207  0.0905 -0.1910 -0.0308
19447W        W35921   9.662   8.605   5.468  0.3768  0.1090  0.1937
19448W        W35922  12.469   2.148  13.873 -0.1188 -0.0861  0.1845
19449W        W35923   3.103  11.996   4.901  0.2639  0.2451 -0.0752
19450W        W35924   2.538  15.946  12.487 -0.0482 -0.2384 -0.1952
19451W        W35925   8.357   5.804  13.777  0.1359 -0.2277 -0.0411
19452W        W35926   0.839  15.284   2.119  0.2610  0.4559  0.1606
19453W        W35927   7.527  15.747   0.332 -0.2738  0.0876  0.0146
19454W        W35928  13.656   9.508   2.720  0.0377 -0.3911 -0.0766
19455W        W35929   3.443   7.903   2.163  0.2586  0.0728 -0.3638
19456W        W35930   5.931   6.449   0.083  0.3009 -0.2626 -0.0197
19457W        W35931  12.223  16.244   5.241  0.0574  0.0453 -0.2826
19458W        W35932  12.419  17.296  14.970  0.1290  0.1516 -0.1539
19459W        W35933  14.578   4.762  11.421 -0.0635  0.0587  0.4043
19460W        W35934   5.511   1.792   1.337  0.1286 -0.1433 -0.3258
19461W        W35935  11.506   5.479   1.077 -0.2179  0.1282  0.1155
19462W        W35936   2.451   2.684   2.168  0.3890 -0.1049  0.0656
19463W        W35937   6.499   6.134  11.969  0.2712 -0.0023  0.0059
19464W        W35938   5.986  10.513   1.155 -0.0798  0.2398  0.0934
19465W        W35939  13.359   3.792  15.908 -0.1245 -0.2762  0.0820
19466W        W35940  11.158   0.458  12.666 -0.4306 -0.2890 -0.1870
19467W        W35941   3.819   5.422   4.275 -0.1250 -0.2309 -0.0775
19468W        W35942   3.991   8.166  11.467  0.1014  0.1897  0.4008
19469W        W35943  14.895  10.383  15.511  0.1401  0.1550  0.0172
19470W        W35944  11.555   0.584  13.030  0.2552  0.0935  0.1174
19471W        W35945  10.087   0.538   0.287  0.3467 -0.1919 -0.2076
19472W        W35946   5.059  15.614  14.396  0.0863  0.0028 -0.2054
19473W        W35947   8.975  10.289   4.953 -0.2937 -0.0290  0.1045
19474W        W35948  15.579   4.304   0.699 -0.0987 -0.1757 -0.0010
19475W        W35949  13.830  15.398  14.573 -0.0049  0.1501 -0.1076
19476W        W35950  12.926   4.395  13.809 -0.0011  0.1083 -0.0188
19477W        W35951  11.106   8.194  11.556 -0.1997  0.0514 -0.1163
19478W        W35952   2.163   2.043  12.672 -0.1214  0.0294  0.0526
19479W        W35953   7.816  17.283  11.987 -0.1333 -0.0100 -0.1705
19480W        W35954   1.367  18.372   5.835  0.1985  0.0959 -0.3792
19481W        W35955   8.496   1.619  13.290  0.1448  0.2705  0.2023
19482W        W35956   7.076   5.836   1.627  0.2332  0.2636  0.2102
19483W        W35957  18.020   1.239  14.042 -0.2145 -0.0718 -0.1839
19484W        W35958   2.076  10.593  12.973 -0.0858  0.1072 -0.1254
19485W        W35959   2.513   2.318  15.920 -0.1803 -0.1575 -0.3388
19486W        W35960   1.006   1.848  14.976 -0.4007  0.3018  0.0058
19487W        W35961  15.665   6.320  15.818 -0.0728  0.0616 -0.1052
19488W        W35962   0.311   6.168   2.945  0.3458 -0.3726 -0.1454
19489W        W35963   2.577   0.110   2.374  0.1296 -0.1422  0.1466
19490W        W35964   9.376  16.728   4.259 -0.2148 -0.0323 -0.0282
19491W        W35965  17.258   7.494   0.171  0.0842  0.0447 -0.2480
19492W        W35966  15.747   1.140   0.502  0.2323 -0.0878  0.4147
19493W        W35967  16.034   4.634  12.439 -0.2124 -0.0538 -0.2788
19494W        W35968   7.872  15.330   1.130  0.2731 -0.0269 -0.1293
19495W        W35969   3.389   2.736   2.506  0.2651 -0.0727  0.1323
19496W        W35970   1.406   2.373   4.117  0.0746 -0.0064  0.3350
19497W        W35971   9.000   9.334   1.209  0.0436  0.2203  0.0791
19498W        W35972   4.803  12.699   4.378  0.2327  0.0510 -0.0957
19499W        W35973   7.678   7.692   1.743 -0.0488 -0.2289  0.4314
19500W        W35974  11.412   2.099  14.203 -0.1716 -0.1322 -0.3089
19501W        W35975   8.743   0.780  10.809  0.1261 -0.3221  0.1795
19502W        W35976  14.749   8.471  14.840 -0.2297  0.0172 -0.1012
19503W        W35977  11.653   2.828  12.973 -0.0306 -0.1193  0.3282
19504W        W35978   0.385   4.385  11.229  0.2888  0.0973 -0.4378
19505W        W35979   3.689   0.935   3.412  0.1602 -0.1172  0.0072
19506W        W35980  14.903   3.247  12.190 -0.0408 -0.0485 -0.3034
19507W        W35981   9.031  11.576  10.355 -0.1603  0.1402  0.0614
19508W        W35982   0.725   4.748  12.091 -0.0189  0.0411 -0.1081
19509W        W35983   4.319   9.934   0.444  0.1122  0.1246  0.3875
19510W        W35984  15.518   3.335  11.369  0.2862 -0.3416  0.4053
19511W        W35985  17.261  13.021   2.656 -0.3860  0.2602 -0.0536
19512W        W35986  15.001   1.722  12.946 -0.0959 -0.0483  0.0761
19513W        W35987   1.867  14.232   4.911 -0.1709  0.0209 -0.0028
19514W        W35988  10.072   2.530  15.272 -0.1082 -0.0736 -0.2123
19515W        W35989   0.801   2.429   4.279  0.0246  0.0617 -0.0526
19516W        W35990   6.901   2.588   0.817 -0.0426 -0.0904 -0.1975
19517W        W35991   4.250   4.255  14.144  0.2178  0.0942  0.3853
19518W        W35992  15.981   9.187  14.760 -0.2961 -0.0362 -0.1294
19519W        W35993   9.333   5.726  12.313  0.0307 -0.0040  0.2071
19520W        W35994   5.308  15.907   4.578 -0.2386 -0.1597  0.2449
19521W        W35995  13.366  10.734  15.561  0.1375  0.1261 -0.0180
19522W        W35996   3.994   1.365   3.635  0.4583 -0.2175 -0.1828
19523W        W35997   0.656  13.915  13.476  0.1343 -0.0035  0.1285
19524W        W35998  17.473   7.189  13.162 -0.1238 -0.2118  0.0487
19525W        W35999  14.254   4.418   3.236  0.0151 -0.1584 -0.0309
19526W        W36000   2.440   6.635  11.757 -0.0446 -0.0132 -0.2540
19527W        W36001   6.406   3.247  14.426 -0.2487  0.0095 -0.0715
19528W        W36002  14.769   5.802   2.014  0.2341 -0.2348  0.0119
19529W        W36003  11.302   1.019  12.971  0.2085  0.2285 -0.2636
19530W        W36004  16.932   8.317  12.735  0.1970 -0.0824  0.0878
19531W        W36005   0.492   3.998  11.461 -0.1712  0.3756 -0.0576
19532W        W36006  16.179  14.601   5.640  0.3771 -0.1549 -0.1466
19533W        W36007  12.966  18.414   0.827 -0.1144  0.0977  0.1630
19534W        W36008  16.888   7.181   0.431 -0.3318 -0.0577 -0.3383
19535W        W36009   2.070  13.057   0.157 -0.1448  0.2114 -0.1949
19536W        W36010   6.147  10.910   2.590 -0.1756 -0.0876 -0.0762
19537W        W36011  17.972   7.242  13.432  0.0466 -0.0537  0.2092
19538W        W36012   1.356  11.728  14.061 -0.0237  0.1886  0.2048
19539W        W36013   2.770  18.074   2.242 -0.0945 -0.2190 -0.0732
19540W        W36014   2.931   0.384   2.576  0.3551 -0.2548 -0.1672
19541W        W36015  13.002   3.767  11.225  0.0402  0.0339  0.1403
19542W        W36016   6.865   7.712  13.493  0.0601  0.0694 -0.1865
19543W        W36017   0.367  10.084   5.021 -0.1399  0.1027  0.0998
19544W        W36018   5.826   7.644  11.386 -0.1619  0.1974  0.0711
19545W        W36019  16.579   4.909   3.898 -0.2308 -0.2398  0.2123
19546W        W36020  16.855   9.075   4.580 -0.1617 -0.1524  0.1554
19547W        W36021  18.151  10.408  13.294  0.1119 -0.0094  0.1868
19548W        W36022  10.624   7.568   5.164 -0.1173  0.2316  0.1088
19549W        W36023  16.161   4.697   5.241  0.0537  0.2742  0.1744
19550W        W36024   6.025   4.932  12.194  0.1906  0.2891 -0.3319
19551W        W36025   1.764   5.876   0.495  0.0131 -0.0101 -0.0361
19552W        W36026   9.035   8.893   5.466 -0.2819  0.1027 -0.0952
19553W        W36027  11.326   7.032   2.288 -0.1246  0.0448 -0.0993
19554W        W36028  17.705  16.189  14.216 -0.1915 -0.1598  0.2345
19555W        W36029   2.728  11.423  11.833 -0.0924  0.1988 -0.0595
19556W        W36030  14.933   6.704  15.627  0.0798 -0.1271  0.3148
19557W        W36031   3.379   3.699  11.308 -0.0691  0.0137 -0.1023
19558W        W36032   8.055  16.043   2.503  0.2555 -0.3059 -0.0165
19559W        W36033   5.148  15.133   1.283 -0.3162  0.0211 -0.0235
19560W        W36034  15.349  17.213   1.442 -0.0741 -0.1885  0.2001
19561W        W36035   9.757  14.924  14.699  0.1507  0.2117  0.2813
19562W        W36036  13.157   1.058   1.933 -0.0744  0.2004 -0.4257
19563W        W36037   5.313   2.961   2.682  0.0199  0.0816 -0.0002
19564W        W36038   4.458  12.598  13.194  0.1672 -0.0249 -0.0751
19565W        W36039  10.678  16.466  10.864 -0.3877  0.4227 -0.0789
19566W        W36040  12.222  14.141  15.864  0.1299  0.0399  0.0955
19567W        W36041   7.163   1.379   0.406 -0.0933 -0.0456 -0.1231
19568W        W36042  17.646  14.033   3.338 -0.2671  0.1788  0.0143
19569W        W36043  17.451  17.512  11.763  0.1034 -0.0258 -0.0154
19570W        W36044   0.443  17.578   2.943 -0.1624 -0.0447  0.0315
19571W        W36045  17.470   9.753   4.428  0.0332 -0.1583  0.0064
19572W        W36046  11.127  14.925   3.660 -0.3712  0.2838 -0.0311
19573W        W36047   0.812  16.133   2.356 -0.2915  0.1165 -0.0481
19574W        W36048  18.435   1.013   3.989 -0.1472 -0.2220 -0.3279
19575W        W36049  15.058   4.732  14.444 -0.0843 -0.2185  0.3519
19576W        W36050   9.452   0.644   4.121 -0.1737 -0.2610 -0.2846
19577W        W36051   3.737  16.418   4.486  0.2651  0.1063 -0.2527
19578W        W36052  12.766  13.656   1.055 -0.0679  0.0353 -0.1618
19579W        W36053  16.337   1.275   5.095  0.0420 -0.2150  0.1468
19580W        W36054  16.423  10.189   3.138 -0.1947 -0.0125 -0.0949
19581W        W36055   3.113   3.974   5.291  0.1042 -0.1168  0.1596
19582W        W36056   4.024  14.325   3.817 -0.0687 -0.0598 -0.2582
19583W        W36057   2.069  14.765  14.215  0.3237 -0.1467 -0.0155
19584W        W36058   1.460   6.432   1.232  0.1246 -0.0886  0.2809
19585W        W36059   5.573   3.850  13.476  0.0538 -0.0871  0.2370
19586W        W36060  12.260   6.322  14.979  0.1945  0.1192 -0.1499
19587W        W36061  10.646   5.922  15.045 -0.1036  0.0449 -0.2108
19588W        W36062   8.152  12.869  14.288 -0.0166  0.1361  0.1925
19589W        W36063   5.639  14.411  15.418  0.2141  0.1292 -0.0358
19590W        W36064   3.215  15.303  12.566  0.0368 -0.0668  0.2852
19591W        W36065   8.076   3.728  12.626  0.3995 -0.2336 -0.1369
19592W        W36066  10.862   9.279  14.202 -0.1045  0.0538  0.0022
19593W        W36067  13.803  18.083  10.802  0.0616 -0.0330  0.0918
19594W        W36068   9.924  10.238  12.502  0.0913 -0.2176 -0.2111
19595W        W36069  14.109  12.860  12.913  0.1219  0.0712  0.3332
19596W        W36070   2.916   9.401   5.927  0.0956 -0.0611  0.1445
19597W        W36071  16.030   6.370  12.981 -0.2041 -0.0660  0.1506
19598W        W36072  12.007  16.514   1.423 -0.2828  0.5227  0.2710
19599W        W36073  12.486   6.410   3.429  0.2388 -0.0741 -0.0745
19600W        W36074   3.071   4.660   4.506 -0.1919  0.0762 -0.1517
19601W        W36075  12.144   0.154  12.661  0.0461 -0.0715 -0.1658
19602W        W36076  10.369  17.275  12.626  0.0871  0.1658 -0.0923
19603W        W36077   7.716  15.060   2.766  0.1234 -0.4024 -0.0244
19604W        W36078  14.546   0.679  13.674  0.0272  0.0434 -0.0740
19605W        W36079   9.702   4.982   0.860  0.0549 -0.1893 -0.4050
19606W        W36080   6.703  15.356   4.034  0.2628 -0.2029 -0.3279
19607W        W36081  15.398   3.141   3.991 -0.1554  0.1502  0.0032
19608W        W36082  17.706   5.031   0.571  0.0101  0.3350  0.1214
19609W        W36083   8.864  12.964  12.592  0.0016  0.3086 -0.1960
19610W        W36084   6.490  13.659  12.383  0.0083  0.3263 -0.1564
19611W        W36085   8.909   1.785   2.537 -0.0804  0.0239 -0.0188
19612W        W36086   1.875   6.577  14.230  0.1005  0.0098 -0.2305
19613W        W36087   7.307  15.971   4.321  0.2588 -0.0741  0.0864
19614W        W36088   6.751   1.609  15.048  0.1655 -0.1875 -0.0494
19615W        W36089   6.308  17.123  15.454 -0.0542  0.3336 -0.1477
19616W        W36090  17.157   1.562  14.414 -0.0413  0.3337  0.0508
19617W        W36091   5.856   8.243   1.876 -0.0617 -0.0282  0.3265
19618W        W36092  13.570   7.927  12.203 -0.3851  0.1618 -0.1874
19619W        W36093  14.658   2.418  13.294 -0.0353  0.0476  0.3913
19620W        W36094   3.867  13.744  11.401 -0.0699 -0.0910  0.1480
19621W        W36095  12.836  13.854  15.275  0.1332 -0.0763  0.4858
19622W        W36096  15.153  10.095  12.655 -0.3218  0.1151  0.2373
19623W        W36097   4.445  15.036   4.821  0.0404  0.2345 -0.3725
19624W        W36098   9.329  17.722   2.640  0.2335 -0.3738  0.2455
19625W        W36099   2.761   2.672  13.011  0.1134  0.2538 -0.1861
19626W        W36100  14.772  14.075  15.361 -0.0400  0.0231  0.2442
19627W        W36101   1.534  15.615   5.071 -0.1044  0.3192 -0.1321
19628W        W36102   7.496  12.453  12.407  0.1295  0.1301 -0.0239
19629W        W36103  15.425  15.892   2.612 -0.0079 -0.2967 -0.1013
19630W        W36104   4.709   3.209   2.166 -0.2363  0.2103 -0.1238
19631W        W36105  10.793   2.313  15.207 -0.1984 -0.1955  0.2514
19632W        W36106   4.953   3.680  12.727 -0.0267  0.0510 -0.0048
19633W        W36107  15.285  14.177   3.277 -0.1065  0.2594 -0.1698
19634W        W36108   9.198  17.231  13.397  0.2387  0.3719  0.1851
19635W        W36109  18.158   7.775   2.109 -0.0822 -0.0196  0.1248
19636W        W36110  10.121   8.975   2.817 -0.1451  0.1745 -0.0091
19637W        W36111   5.521   2.808   2.225  0.0098 -0.0416 -0.4019
19638W        W36112   4.581  16.595   0.306 -0.1232  0.0780 -0.1058
19639W        W36113   1.076  14.117  15.637 -0.0319 -0.1211 -0.2669
19640W        W36114  17.920  12.380   2.043  0.0176 -0.1882 -0.0496
19641W        W36115  18.321   6.213   4.516  0.3193 -0.5457  0.1425
19642W        W36116   7.112  18.117  13.949 -0.0467  0.2450  0.2794
19643W        W36117  16.420   5.453  12.082  0.0298  0.0142  0.0864
19644W        W36118  13.446  17.194   2.477  0.3758 -0.1018 -0.0330
19645W        W36119  17.938   0.451  15.599 -0.0596  0.1351 -0.1638
19646W        W36120   8.854  15.023   3.470  0.0568 -0.0969  0.2847
19647W        W36121   7.210   9.469  12.848  0.1751 -0.1308 -0.1339
19648W        W36122  11.924  11.821  14.686 -0.1636 -0.1686  0.4036
19649W        W36123  12.371   7.159   1.061  0.1472 -0.1539 -0.1891
19650W        W36124   1.073   1.492   4.955 -0.1940 -0.0886  0.1153
19651W        W36125   6.702   7.537   1.423 -0.1105 -0.3487 -0.0212
19652W        W36126  18.378  13.260   3.389  0.0321  0.1065 -0.2879
19653W        W36127   8.479   1.473   0.336 -0.0933  0.0591 -0.2236
19654W        W36128   9.428   2.824   3.410  0.0355 -0.1262 -0.1898
19655W        W36129  18.143   6.583   4.769 -0.3028 -0.2259  0.2017
19656W        W36130  18.174   9.981   3.658 -0.0432 -0.1082 -0.0037
19657W        W36131  15.862   5.876   4.632  0.0907 -0.2165  0.1225
19658W        W36132   4.823   7.060   4.833 -0.2259 -0.2402  0.2388
19659W        W36133  13.025   9.689  13.061  0.1042 -0.2476  0.1388
19660W        W36134  17.197   8.037   0.339  0.4892  0.3056  0.0386
19661W        W36135   1.865   1.076   1.734 -0.1052  0.1134 -0.0576
19662W        W36136  16.103   6.653   4.472  0.0537  0.4545  0.1651
19663W        W36137  17.384  13.036  15.837  0.1181 -0.1771 -0.1750
19664W        W36138  10.264   6.539  13.258  0.0532  0.2548 -0.0528
19665W        W36139   1.619   1.079  13.510  0.1632 -0.0027  0.4484
19666W        W36140   3.492   0.518   5.374  0.3111 -0.1353 -0.1729
19667W        W36141   8.245   6.012   3.396 -0.1136 -0.0584 -0.1812
19668W        W36142  12.090  10.311   2.297  0.0339 -0.2447 -0.1953
19669W        W36143   0.014   6.062   1.407 -0.3323  0.1457 -0.0991
19670W        W36144   0.215  13.697  15.624 -0.0440  0.1964 -0.1039
19671W        W36145  15.962  15.460   3.717 -0.0498 -0.1372 -0.4300
19672W        W36146   9.556   4.831   4.450 -0.1573 -0.2576 -0.3560
19673W        W36147  11.172   6.257   4.671 -0.2157  0.1447  0.0101
19674W        W36148  11.149  16.761  12.573 -0.0798 -0.0788 -0.1329
19675W        W36149   4.409   9.149   1.628 -0.0304  0.1872  0.1906
19676W        W36150   2.614  13.653   4.760  0.2823  0.0758 -0.0980
19677W        W36151   6.195   1.006  15.449  0.1309  0.2232  0.0471
19678W        W36152   6.820  11.697  12.738 -0.2324 -0.0164  0.3301
19679W        W36153   6.072  13.189   4.440  0.1808  0.1259  0.0299
19680W        W36154  15.144   4.481  15.916  0.3332 -0.2250 -0.0356
19681W        W36155   4.438  10.712   1.978 -0.0038  0.1562  0.2515
19682W        W36156   3.254   2.935  13.871 -0.2003 -0.0415  0.3057
19683W        W36157  10.401  14.210   5.394 -0.0406  0.1698  0.4046
19684W        W36158  10.854   2.066  14.202 -0.0596 -0.1613 -0.1822
19685W        W36159   0.745   4.932   0.490 -0.0164 -0.0584  0.3358
19686W        W36160   3.877   2.363   1.597 -0.0457 -0.1714 -0.0993
19687W        W36161   2.244  11.809  12.349 -0.1534  0.1158 -0.2415
19688W        W36162  17.587  14.197   1.787  0.0121 -0.0939  0.0493
19689W        W36163   6.313  16.406  14.668 -0.0200 -0.2435  0.0102
19690W        W36164   9.998  12.279   0.339  0.1091  0.0291  0.1905
19691W        W36165   4.592  14.034   0.336  0.0348  0.1806  0.0430
19692W        W36166   4.454   5.887  14.342  0.0950  0.2358  0.0113
19693W        W36167   0.533  11.237   2.999  0.0508 -0.0813  0.4131
19694W        W36168  17.516  15.804  14.466 -0.0382 -0.0407 -0.1199
19695W        W36169  10.914  10.529  14.315  0.2110  0.1138  0.1428
19696W        W36170  15.444  11.953   2.806 -0.1053  0.4122  0.0491
19697W        W36171   3.529   1.936   4.341 -0.2190 -0.0173 -0.1072
19698W        W36172   6.277  10.663   3.066 -0.0656  0.0578 -0.1355
19699W        W36173   3.223   8.281   1.157  0.1517 -0.2481 -0.0541
19700W        W36174   6.351   9.382  13.179 -0.0696  0.3345 -0.2606
19701W        W36175   5.653   5.961  14.803  0.1536 -0.2977  0.0552
19702W        W36176  10.680   1.714   2.255 -0.0640  0.0424 -0.0567
19703W        W36177   1.303  16.141   3.411  0.0324 -0.0113 -0.1594
19704W        W36178   0.966  12.220   2.934 -0.0156 -0.1130  0.0045
19705W        W36179   8.548   4.616   4.282 -0.2644 -0.1640  0.0367
19706W        W36180  12.674   6.154  13.208 -0.0618  0.2851  0.1122
19707W        W36181   6.799  10.085   2.301  0.1173 -0.0760 -0.3474
19708W        W36182   0.977  11.836   1.971  0.2526  0.1103  0.1230
19709W        W36183   5.001  15.232  13.277 -0.4000 -0.2462 -0.2617
19710W        W36184   7.710   5.824   1.697  0.4781 -0.1673 -0.0904
19711W        W36185  17.794  15.606   5.546 -0.1501 -0.2826  0.0753
19712W        W36186  10.316  16.693   2.505 -0.1205  0.1109 -0.1215
19713W        W36187  10.573  17.372   3.182  0.1562 -0.0894  0.0133
19714W        W36188  17.788  13.751  14.784 -0.1308  0.1580  0.2838
19715W        W36189   6.273  13.323  12.725  0.1513  0.0649  0.4861
19716W        W36190   8.045  10.672  14.628 -0.0108 -0.2129 -0.0057
19717W        W36191   9.482   1.302  11.622 -0.0520  0.0792  0.2147
19718W        W36192   7.294   0.699  11.331 -0.1203  0.0172  0.0939
19719W        W36193   8.348   2.586  14.373 -0.0130 -0.0517 -0.3418
19720W        W36194   9.739  18.214   1.187  0.1480  0.0428 -0.2992
19721W        W36195   8.567  15.735   0.478  0.2384  0.1877  0.3950
19722W        W36196  11.210  13.990   2.395 -0.2543 -0.0913 -0.2436
19723W        W36197  15.488   4.600  13.078  0.0820 -0.1411 -0.2071
19724W        W36198  12.747   0.409   3.643  0.1768  0.0118  0.2441
19725W        W36199  14.833  14.612   2.117 -0.0009 -0.1011 -0.0394
19726W        W36200   9.898   3.905   0.068  0.3351  0.1016  0.1571
19727W        W36201  15.478  12.907   1.628  0.0446 -0.1347  0.1928
19728W        W36202   5.048   4.603  13.209  0.0884  0.0581  0.2909
19729W        W36203   8.978  12.777   2.709  0.2379 -0.4148 -0.0439
19730W        W36204   8.816  10.588   3.855  0.1636 -0.0765  0.0943
19731W        W36205   7.851  11.851   1.914  0.2168 -0.1247 -0.3046
19732W        W36206  17.699  17.766  13.231  0.2290  0.1469  0.2350
19733W        W36207   7.562   8.653  15.283 -0.0386  0.1145 -0.1011
19734W        W36208  17.405   9.121  11.667  0.0045  0.1092  0.3336
19735W        W36209  10.424   6.708  13.822 -0.0168 -0.0541  0.1552
19736W        W36210   5.065  12.183   1.913  0.1810 -0.1006 -0.1021
19737W        W36211   3.775   6.982  12.796  0.0051  0.0541  0.0816
19738W        W36212  10.311  14.610   3.154 -0.2117  0.0372  0.0622
19739W        W36213   5.484   9.474  14.470  0.1235  0.0203  0.2768
19740W        W36214  13.742  13.891   0.122 -0.0422  0.0179  0.1901
19741W        W36215   7.492  16.853  14.848 -0.0053 -0.2205  0.0375
19742W        W36216   4.976   2.211  14.870  0.2204 -0.0164  0.1279
19743W        W36217   3.446   8.997  10.993  0.0989  0.0159  0.2467
19744W        W36218  11.355  17.377   2.697  0.0488 -0.1974  0.0710
19745W        W36219   7.018  17.039  13.687 -0.0858  0.2159 -0.4127
19746W        W36220  13.355   1.457   5.552 -0.1211  0.2175 -0.2876
19747W        W36221   4.706   2.743   5.238  0.0276  0.0778  0.1393
19748W        W36222   5.316   2.406   0.206 -0.4000 -0.0971  0.1174
19749W        W36223   0.438   0.894  14.116 -0.1322  0.0815 -0.2354
19750W        W36224  10.046   9.365   3.724 -0.1254 -0.0269 -0.2836
19751W        W36225  13.873  18.324  14.627  0.0248 -0.1337  0.0012
19752W        W36226  15.292  11.019  11.682  0.0722  0.1167 -0.1490
19753W        W36227  13.304  12.168   4.636 -0.6363  0.0827  0.2253
19754W        W36228  16.358  11.142   4.963 -0.0224  0.1196  0.0047
19755W        W36229   0.587   5.406   0.320  0.2170  0.2812 -0.3554
19756W        W36230  11.712   0.052  13.170 -0.5349 -0.2276  0.2073
19757W        W36231   6.022   3.410   1.609  0.0756  0.2185 -0.0166
19758W        W36232   7.147  17.504   3.182 -0.0630  0.0318 -0.2228
19759W        W36233   2.036   6.059   4.443  0.0244 -0.2581 -0.0886
19760W        W36234   1.102   3.952   3.144  0.0761  0.2475 -0.0411
19761W        W36235   9.023   8.747  15.903 -0.1685  0.2238  0.2681
19762W        W36236   4.941  16.134  11.639 -0.1476  0.0287  0.1085
19763W        W36237   4.766   6.984   3.536 -0.0704 -0.1777 -0.1723
19764W        W36238   5.750   4.907   5.055  0.2350 -0.2739 -0.0322
19765W        W36239  13.732   1.692  15.794  0.0337 -0.2335 -0.0872
19766W        W36240   8.946  14.301   2.488 -0.0509 -0.1312 -0.1638
19767W        W36241   9.930   3.218   2.622  0.0204  0.0873  0.6344
19768W        W36242  13.827  11.353  11.453 -0.4067 -0.0016  0.0623
19769W        W36243   4.093   1.386   5.655 -0.4285  0.1196  0.0516
19770W        W36244   2.005  10.823  12.533 -0.2098  0.2587  0.3684
19771W        W36245   4.124  14.910  12.302 -0.0460  0.0209 -0.3001
19772W        W36246  15.463  16.769  12.122 -0.1003  0.2151 -0.1950
19773W        W36247   4.868   2.998   2.600  0.0875  0.1275  0.1981
19774W        W36248   9.511   1.170  13.963 -0.4181 -0.0198  0.0594
19775W        W36249  16.725  13.956  14.851  0.2426  0.2107  0.2451
19776W        W36250   8.459  11.928  14.099 -0.3440  0.0159 -0.1417
19777W        W36251  14.084   5.181   4.770 -0.0148 -0.1644  0.1266
19778W        W36252  14.227   7.997  13.183  0.1295  0.0743 -0.1996
19779W        W36253  17.229  18.423   0.406 -0.1187  0.0511 -0.3122
19780W        W36254   8.288  15.512  15.356 -0.0418 -0.0245  0.0611
19781W        W36255  13.285   6.017  15.381  0.2578 -0.0945  0.1178
19782W        W36256   8.638  12.048  12.189 -0.1038  0.2287  0.1848
19783W        W36257   8.472   3.030   2.420 -0.2391  0.4782  0.3882
19784W        W36258  18.270   4.628   5.267 -0.1834  0.1154  0.0190
19785W        W36259   5.610   4.718  12.304  0.0715 -0.1246  0.0995
19786W        W36260  14.876   6.585   1.970 -0.3311 -0.2393  0.1539
19787W        W36261   4.049  18.072   3.073 -0.1363  0.1294  0.1323
19788W        W36262   9.311  16.205   3.614  0.4085  0.0965 -0.2257
19789W        W36263   8.179  16.904  12.220  0.3304  0.0711 -0.1877
19790W        W36264   8.771  13.980  13.215 -0.1357  0.2729 -0.2906
19791W        W36265   4.629   3.560  12.189  0.2280 -0.0158  0.2324
19792W        W36266   1.966  16.591  14.395 -0.2709  0.1144 -0.0259
19793W        W36267   2.482   9.706   1.670 -0.3744 -0.0924  0.2392
19794W        W36268   3.717  10.382  12.641 -0.3001  0.0940  0.2431
19795W        W36269  10.055  12.734   0.137  0.0190  0.1059  0.0118
19796W        W36270   0.561  15.727   5.159  0.2612 -0.1464  0.0644
19797W        W36271   9.139   8.452   3.367  0.2642  0.3543 -0.0693
19798W        W36272   3.497  18.060  15.434  0.1974 -0.1293 -0.0815
19799W        W36273  16.853  17.837  12.782  0.2364 -0.0270  0.2517
19800W        W36274  13.264   1.153   4.158  0.1722 -0.0877 -0.0362
19801W        W36275  12.265  10.183   4.567  0.1185 -0.2315 -0.0707
19802W        W36276   6.421  14.034  15.419  0.3636  0.3925 -0.1287
19803W        W36277  12.573   7.133   0.104 -0.1372  0.0759 -0.4561
19804W        W36278   4.977   0.363  12.935 -0.1177 -0.0467 -0.0709
19805W        W36279  13.521   9.571  13.187  0.2425  0.2233 -0.1406
19806W        W36280   5.138  15.891  12.174  0.0257  0.1664 -0.1287
19807W        W36281  17.627   7.217   2.643  0.2245 -0.3161  0.0364
19808W        W36282  17.528   3.410   3.035 -0.2297 -0.0217 -0.0422
19809W        W36283  14.965   2.444   5.004 -0.2197 -0.0456 -0.1813
19810W        W36284   2.682   8.457  13.936  0.1361  0.0402  0.0210
19811W        W36285   4.755   7.190  15.782 -0.1525 -0.0145  0.5747
19812W        W36286  10.751   5.209  11.241 -0.1572  0.0593 -0.1874
19813W        W36287  13.361  12.420   4.172 -0.1077  0.3044  0.1576
19814W        W36288  12.286  13.711  15.101 -0.2258 -0.1814 -0.1467
19815W        W36289  17.443  11.320   0.251 -0.1265  0.1538  0.1820
19816W        W36290   1.330   8.977   5.647 -0.1628  0.1567  0.0005
19817W        W36291   2.125   2.819  15.103 -0.4091  0.1363  0.0222
19818W        W36292  12.888  13.690   4.915 -0.4428 -0.1340 -0.3243
19819W        W36293  12.631  16.806  11.735  0.1873 -0.0008 -0.0054
19820W        W36294  15.974   8.611   0.737 -0.1097 -0.0806  0.4414
19821W        W36295  14.481   7.023  12.158  0.0475  0.5610 -0.0156
19822W        W36296  17.556  10.168  13.940 -0.1492 -0.2715 -0.1038
19823W        W36297   2.277   1.284   4.438 -0.0083  0.2021 -0.2136
19824W        W36298   0.273   2.451   1.923  0.0958  0.0351 -0.2290
19825W        W36299   7.217  13.252  11.130  0.2422  0.1431  0.0831
19826W        W36300  14.647  13.076   1.340  0.1251  0.0836  0.1274
19827W        W36301   5.462   9.272   4.494 -0.0842 -0.0101  0.2002
19828W        W36302   1.962   2.815   4.512  0.0013  0.1216  0.1506
19829W        W36303   6.938  17.395  10.906 -0.1225 -0.1487  0.0432
19830W        W36304  12.474   1.633  13.228  0.0367  0.0370 -0.0889
19831W        W36305   2.648   0.746   2.353  0.0295  0.1088 -0.1657
19832W        W36306   8.518  12.947   0.848 -0.1338 -0.1911 -0.1693
19833W        W36307  14.591  12.141   0.977  0.0040  0.1437 -0.3054
19834W        W36308  14.543   0.407   4.012 -0.1493  0.0858  0.1309
19835W        W36309   8.072   9.039  14.245 -0.0903  0.0219  0.1644
19836W        W36310   1.461   7.634  14.980 -0.1858 -0.0205 -0.2085
19837W        W36311  13.881  13.892  13.711 -0.2190  0.1068  0.2626
19838W        W36312   7.258   6.563  12.879 -0.5238 -0.0180 -0.0157
19839W        W36313   3.013   2.972   2.812  0.0396 -0.0127 -0.1414
19840W        W36314   1.246  16.362   4.970 -0.1076  0.0292  0.1572
19841W        W36315   0.684   2.585  14.347  0.4560  0.3664 -0.1291
19842W        W36316   6.550   8.489   0.717  0.1031 -0.1225 -0.0954
19843W        W36317   3.069  11.420  13.412 -0.1389 -0.1085 -0.1388
19844W        W36318  13.337  10.009  11.394  0.1049 -0.1743 -0.0030
19845W        W36319   1.096  18.156  11.937 -0.0766 -0.0859  0.2563
19846W        W36320   0.599  15.450   2.947  0.4886 -0.1507 -0.0258
19847W        W36321  11.700  10.751  12.297  0.1902 -0.3250 -0.0109
19848W        W36322   2.093  16.520   2.774  0.1990 -0.1449 -0.0195
19849W        W36323  17.729   0.539  13.332  0.0515  0.1309 -0.0294
19850W        W36324   8.723  10.517   0.795  0.3308  0.0693  0.2966
19851W        W36325   7.118  15.750  14.666  0.1562  0.1318 -0.1360
19852W        W36326   0.043   6.900   3.885 -0.1197 -0.1144  0.0082
19853W        W36327   5.828  15.736  11.295 -0.0813  0.0226 -0.0047
19854W        W36328  13.224   1.811  14.303  0.1006 -0.1654  0.1183
19855W        W36329   2.237   1.088  15.361 -0.0073  0.0423 -0.1184
19856W        W36330   0.725  14.095  10.903  0.0785  0.0949  0.1454
19857W        W36331   8.931   7.201   3.522 -0.4851  0.1093  0.3481
19858W        W36332  15.712  15.016  14.636 -0.1920  0.3131 -0.3025
19859W        W36333  17.643  12.939  15.277 -0.2219  0.3841  0.0519
19860W        W36334   4.682  16.184   4.058  0.1164 -0.0325 -0.1159
19861W        W36335  16.320  11.512   1.707 -0.1252  0.0341  0.2343
19862W        W36336  16.686   7.568   3.334  0.3108  0.0089  0.0222
19863W        W36337  14.793   6.474  13.794 -0.2145 -0.1835 -0.0917
19864W        W36338  15.772  15.152  11.316 -0.1480 -0.2556  0.1603
19865W        W36339  10.337   1.986   4.896 -0.0530  0.2233 -0.0711
19866W        W36340   8.343  10.577   0.313  0.0469 -0.0702 -0.0999
19867W        W36341  13.652   6.037   3.847 -0.0238  0.0292  0.0818
19868W        W36342   6.617  12.878   5.206  0.0430  0.0106  0.2118
19869W        W36343   0.040  12.116  12.789 -0.3264 -0.1071 -0.0019
19870W        W36344  17.628   5.306  13.782 -0.0086  0.0641  0.1119
19871W        W36345   4.172   4.188  11.124 -0.1166 -0.2511  0.2598
19872W        W36346  18.243   5.811  12.684 -0.2568 -0.1741  0.0402
19873W        W36347   4.175   2.758   3.735  0.1701  0.2761 -0.0957
19874W        W36348   9.869   6.686  13.552  0.2486  0.0975 -0.2885
19875W        W36349   1.558   8.336  11.021 -0.1909  0.2316 -0.2456
19876W        W36350  14.064  14.224  15.906 -0.0287 -0.2685 -0.0143
19877W        W36351  14.681   4.169  13.955  0.1731  0.0991 -0.0636
19878W        W36352   4.343  15.889   1.574  0.0353  0.0592 -0.2900
19879W        W36353   6.903  11.693   3.446  0.0584 -0.2281  0.1231
19880W        W36354  16.137   8.665   1.257  0.1918 -0.1854  0.1550
19881W        W36355  16.108  16.321   3.056  0.0951 -0.0619  0.3224
19882W        W36356  15.497   4.607  14.129  0.0276 -0.1637 -0.1049
19883W        W36357  10.917   9.111   4.052  0.2998 -0.0415  0.1712
19884W        W36358   6.870  17.482  12.673 -0.0755 -0.3994  0.1585
19885W        W36359   3.695   2.346   5.966  0.0345  0.1719  0.0841
19886W        W36360   5.823   5.766  15.229 -0.0487 -0.1993  0.1653
19887W        W36361   9.590  13.910  13.690  0.1200 -0.1034  0.1920
19888W        W36362  16.470   6.552   2.097  0.1092  0.0893 -0.3252
19889W        W36363  11.045  12.308  15.516  0.1877  0.0366  0.0681
19890W        W36364   4.716   8.236   0.156 -0.0892 -0.0924 -0.0675
19891W        W36365   4.857   0.377  14.456 -0.0682 -0.3593  0.1547
19892W        W36366  13.023   8.440   3.249  0.2557 -0.0947 -0.0244
19893W        W36367  11.312  11.084  12.885  0.0819  0.3325 -0.2689
19894W        W36368   2.350  11.472   3.565 -0.0689  0.0690 -0.2049
19895W        W36369  10.101  11.036  13.169 -0.2379 -0.1059  0.0405
19896W        W36370   7.617   5.773   5.916 -0.1107 -0.2923 -0.4243
19897W        W36371   5.503  15.294  13.505  0.1026 -0.1395 -0.2012
19898W        W36372  13.618   2.216   1.826  0.0397  0.1297 -0.0699
19899W        W36373  12.218   8.846  14.752 -0.3530 -0.0930  0.1431
19900W        W36374   9.482  14.223  11.508  0.0094 -0.2630  0.1658
19901W        W36375  11.038   2.559   0.775  0.0243 -0.0469 -0.2005
19902W        W36376  11.260   0.212  11.711 -0.0495 -0.0982 -0.1143
19903W        W36377   8.976   7.981   2.442 -0.2792 -0.3125 -0.1024
19904W        W36378  14.018   3.466   1.489  0.1039 -0.0397 -0.2085
19905W        W36379  12.093   8.119  15.316  0.0539 -0.5579 -0.0528
19906W        W36380   5.970   8.124  13.436 -0.0743 -0.0181  0.2224
19907W        W36381   0.900  13.144   5.070 -0.0170 -0.2379  0.0437
19908W        W36382  15.246   5.907   3.543  0.1283  0.0713 -0.0339
19909W        W36383   0.565  10.840  12.354 -0.0623  0.2568  0.2580
19910W        W36384   7.305   1.698   3.513  0.0519 -0.2303  0.0560
19911W        W36385   1.386  17.829  14.453  0.1900 -0.0674  0.1155
19912W        W36386   2.531   3.272  15.865  0.0808  0.1084  0.1963
19913W        W36387  14.340   2.831   0.595 -0.1707 -0.0019  0.1440
19914W        W36388   7.282   6.001  11.765 -0.0107 -0.1988  0.1728
19915W        W36389  16.985   3.806   9.959  0.0701  0.1947 -0.1562
19916W        W36390  12.691  17.100  15.474  0.1987  0.1774 -0.0176
19917W        W36391   5.420   5.784  14.279 -0.0305  0.0371 -0.1670
19918W        W36392   9.060   8.844   0.806  0.1582 -0.0348 -0.1630
19919W        W36393  14.573  13.253  10.995 -0.1772 -0.1832  0.0649
19920W        W36394  11.449  14.157   2.919  0.2843  0.5097  0.1746
19921W        W36395  10.581   1.194  10.705 -0.1093 -0.2485 -0.0252
19922W        W36396   0.189   4.957  12.705 -0.1086  0.1394  0.0255
19923W        W36397  12.243  14.689  14.570  0.0135  0.0828 -0.3027
19924W        W36398   0.159  17.574  14.026 -0.0895 -0.0047  0.0613
19925W        W36399   0.002   7.388   4.574  0.3213 -0.4861 -0.1250
19926W        W36400   5.114  14.134   4.604  0.0602 -0.4112  0.0247
19927W        W36401   2.731  12.013  12.555  0.0481  0.1462  0.1264
19928W        W36402   2.001  16.507   0.074 -0.0876 -0.1382 -0.0011
19929W        W36403   2.867   3.637   3.652  0.0033  0.2115  0.0218
19930W        W36404   1.170   5.016  11.462 -0.1661 -0.0712 -0.1119
19931W        W36405  14.810  11.135  11.519 -0.0953 -0.0614 -0.0258
19932W        W36406   9.132   5.252   4.332 -0.2842  0.0292  0.1833
19933W        W36407  14.402   4.149   2.683  0.0844 -0.0390 -0.1075
19934W        W36408   6.553   1.672  13.324  0.1367 -0.2042 -0.2764
19935W        W36409   0.344   1.793  12.268  0.0073 -0.1164 -0.0321
19936W        W36410  16.351   3.638   4.251 -0.2174 -0.0214 -0.0027
19937W        W36411   9.016   8.826  12.574 -0.0301 -0.1771  0.1639
19938W        W36412  14.446   8.052  11.536  0.0712  0.0397  0.2408
19939W        W36413   1.941   0.050  15.245 -0.1709  0.2722  0.0740
19940W        W36414  17.306  11.279   2.204 -0.2194 -0.1966  0.0091
19941W        W36415   7.854  18.383  15.655  0.1012  0.1302  0.3626
19942W        W36416   2.246   7.823  11.000  0.1614  0.0470 -0.1340
19943W        W36417  17.674   3.898   0.764 -0.1216  0.3647  0.3065
19944W        W36418  15.308   4.438  15.404 -0.1420  0.0324  0.0829
19945W        W36419  15.115   0.569  11.230 -0.5567 -0.0441 -0.1491
19946W        W36420  14.617   1.669   2.222  0.2972 -0.2767 -0.0209
19947W        W36421   5.359  11.551  11.784  0.0710  0.1108 -0.0892
19948W        W36422  14.294  16.128  14.050 -0.4804  0.1112 -0.1502
19949W        W36423   0.801   3.354   4.310  0.2547 -0.0948  0.1229
19950W        W36424  15.741   1.210   1.532  0.2058  0.1907 -0.3370
19951W        W36425   4.086   8.771   1.476 -0.1145 -0.0773 -0.1438
19952W        W36426  15.151  11.025   2.965 -0.1733  0.0806  0.2056
19953W        W36427  16.367   3.874   1.656 -0.1387  0.0962  0.1183
19954W        W36428   9.784   8.636  14.290  0.2075  0.0301  0.1092
19955W        W36429   3.272   5.714   3.074 -0.0612  0.4177  0.2615
19956W        W36430   0.338  14.728   4.492 -0.0819 -0.1779 -0.1063
19957W        W36431   4.734   3.293   1.712 -0.1184  0.1560 -0.0593
19958W        W36432  16.020   3.694   3.248 -0.0600  0.1909  0.1688
19959W        W36433   3.704   5.416  13.113  0.0720 -0.1483 -0.1233
19960W        W36434   2.905   6.808  12.564 -0.1383 -0.0779 -0.2855
19961W        W36435  11.807   3.613  11.612 -0.1831  0.2526  0.4392
19962W        W36436  15.813  11.656  15.402 -0.3484 -0.0879 -0.1940
19963W        W36437   2.405  17.632  11.307 -0.2528 -0.1327  0.2541
19964W        W36438   6.892   3.598   1.345  0.0111  0.1710  0.1883
19965W        W36439  10.655  14.196   2.688  0.1046  0.0843 -0.0788
19966W        W36440  11.919  15.449  15.576  0.0482 -0.5218  0.0604
19967W        W36441   0.305   3.167   4.149 -0.1244 -0.1525 -0.1569
19968W        W36442  16.935   3.126   5.201 -0.1896  0.0894 -0.2473
19969W        W36443  16.877   9.484   2.822  0.4556 -0.0949 -0.0737
19970W        W36444  11.386   6.378   1.240  0.0366  0.0452 -0.1378
19971W        W36445  17.295  14.190   6.320 -0.0802 -0.1342  0.2308
19972W        W36446  14.613   0.997   4.685 -0.1133  0.3001 -0.1239
19973W        W36447  13.769  13.105   3.949 -0.0136  0.0294 -0.2547
19974W        W36448  13.886   4.822   2.999 -0.1886 -0.1152 -0.0283
19975W        W36449   8.588   7.462   4.603  0.0926  0.1518  0.3296
19976W        W36450  16.900   1.971  13.567  0.0773 -0.0608 -0.0856
19977W        W36451  17.406   0.724  13.815 -0.0733 -0.1339 -0.2071
19978W        W36452  17.757  13.138   0.284 -0.1082  0.0974 -0.0667
19979W        W36453  15.027   4.832  13.414  0.1280  0.2218 -0.3069
19980W        W36454   9.306  12.393   5.118  0.1645 -0.0288 -0.1300
19981W        W36455   3.557   2.150  14.136 -0.5432 -0.0816  0.1362
19982W        W36456   8.863   4.254   2.175  0.1520  0.0374 -0.3697
19983W        W36457  15.038   5.559   2.342  0.0323  0.1702  0.1181
19984W        W36458  10.096   5.943   3.770 -0.1395 -0.2557  0.1844
19985W        W36459  14.855   1.684  13.830 -0.0851 -0.2484  0.0913
19986W        W36460  17.380   8.558   3.995 -0.2306  0.1216 -0.0324
19987W        W36461  14.523   9.439  11.482  0.1510  0.3019  0.0674
19988W        W36462  12.413  10.290  12.199  0.1012 -0.1750 -0.3384
19989W        W36463  11.453   1.104  11.841 -0.3311  0.2919 -0.1662
19990W        W36464  11.420   2.337   9.811 -0.2165  0.0171  0.0314
19991W        W36465   7.510  15.972  13.115 -0.0970  0.0045 -0.0636
19992W        W36466   1.406  10.860  14.857  0.2338  0.0037 -0.0864
19993W        W36467   6.434   3.032  10.965 -0.0972 -0.0811  0.2690
19994W        W36468   0.430   8.678   1.287  0.1942 -0.0428  0.0752
19995W        W36469  10.887  10.482  12.755 -0.1572  0.3260 -0.3293
19996W        W36470   8.212   9.277  15.046  0.2010  0.3642  0.1400
19997W        W36471  15.126  13.348   0.590  0.1753 -0.0806  0.0753
19998W        W36472   9.058  16.815  15.271 -0.4928  0.1006  0.0038
19999W        W36473  14.641  16.868   5.040  0.3931  0.0738  0.0605
20000W        W36474  12.290   7.686   1.652 -0.0076  0.1362 -0.0183
20001W        W36475  17.591   9.354   5.228 -0.1392  0.0826  0.0262
20002W        W36476   4.665   8.443   2.890 -0.1283  0.0050 -0.2063
20003W        W36477   2.379   4.554  11.071 -0.2610 -0.0660 -0.0380
20004W        W36478  15.756  14.063   3.064 -0.3077 -0.0279  0.0166
20005W        W36479  17.450   0.128  11.049  0.2740 -0.1645  0.2270
20006W        W36480  10.013   3.366  15.497 -0.0369 -0.1852  0.1958
20007W        W36481   9.789   9.412  11.671 -0.0081  0.2542  0.3114
20008W        W36482   6.298  15.554  14.021  0.2927  0.0311  0.0006
20009W        W36483   5.078  10.423  13.557 -0.0689 -0.0953 -0.0225
20010W        W36484  13.062  12.228  12.318  0.2395 -0.0394  0.0670
20011W        W36485   1.322   2.044  13.800 -0.1838  0.2830 -0.2118
20012W        W36486  13.970   1.767   5.074  0.0894  0.0363  0.2390
20013W        W36487   0.058  10.240   2.487 -0.1820  0.0434 -0.2502
20014W        W36488  17.282   0.424   3.041 -0.6921 -0.0804 -0.3797
20015W        W36489   6.196  13.330   0.364 -0.0124 -0.2090  0.2989
20016W        W36490   4.738   6.112  15.216  0.0751 -0.2794  0.0297
20017W        W36491   9.815   5.850  12.126 -0.1297  0.0597 -0.3035
20018W        W36492  18.144  16.639   4.178  0.0584 -0.0731  0.1473
20019W        W36493  11.452   1.456  12.646 -0.1272  0.2881  0.0844
20020W        W36494   6.160   0.158   3.871 -0.0178  0.2458  0.3483
20021W        W36495  13.445  16.961   0.314  0.1054 -0.1394 -0.0632
20022W        W36496  14.499   9.620   0.983 -0.0398 -0.2125  0.3469
20023W        W36497  12.323   2.137  13.335  0.1408  0.0835  0.0651
20024W        W36498   5.883  18.343  13.183  0.1457 -0.1967  0.0259
20025W        W36499   8.491   4.235  12.548 -0.2253 -0.0887 -0.1483
20026W        W36500  12.734   5.175   4.221  0.0701 -0.2217  0.0125
20027W        W36501   8.565  14.232  13.963  0.0956  0.1090 -0.2486
20028W        W36502  18.469   6.172   2.337  0.3548 -0.2618 -0.1216
20029W        W36503   8.443  15.326   3.716  0.0917 -0.1771 -0.0320
20030W        W36504  13.651  15.247   0.354  0.0104  0.0911  0.1534
20031W        W36505  18.107  11.728  15.496 -0.4384  0.2216 -0.0158
20032W        W36506   2.474  16.202  11.971  0.0306 -0.1490  0.1098
20033W        W36507   0.673  17.551  12.846 -0.0657 -0.0797  0.3105
20034W        W36508  15.610   5.296   4.154  0.0090  0.0126  0.2197
20035W        W36509  10.905  13.428   5.527 -0.1279 -0.0196  0.1292
20036W        W36510  11.410   7.482  15.394  0.2148  0.2213 -0.0015
20037W        W36511   0.995  14.263   5.404 -0.0826  0.0715  0.1774
20038W        W36512   9.894   5.445   3.879  0.3271 -0.1860 -0.1243
20039W        W36513  16.179  15.683  14.177 -0.1628 -0.1156 -0.6899
20040W        W36514   8.337   9.426  15.570  0.1098 -0.2834 -0.0159
20041W        W36515   8.713   1.884   4.835 -0.2252  0.0754 -0.0647
20042W        W36516  13.232   8.607  11.850 -0.1097  0.0862 -0.3077
20043W        W36517  15.966   0.778  15.688  0.1246 -0.3840  0.0512
20044W        W36518  18.326   0.792  11.552 -0.1833 -0.2860  0.0155
20045W        W36519   7.302  14.549   2.215 -0.1503  0.1026 -0.0195
20046W        W36520   4.234  10.743  11.784 -0.0330 -0.2268 -0.2464
20047W        W36521   9.683   8.520   1.491 -0.0692 -0.1308  0.1571
20048W        W36522  12.029  15.478   1.824 -0.2687  0.0677 -0.3425
20049W        W36523  11.180   0.871   4.749  0.0251 -0.1359  0.3452
20050W        W36524  11.425   1.962  11.291  0.2721 -0.0583  0.0742
20051W        W36525   4.459  13.121   0.119 -0.1183  0.0422 -0.0581
20052W        W36526   3.340  17.467   3.333  0.2210  0.0503 -0.1583
20053W        W36527   2.532   0.645   3.827  0.0658 -0.1231 -0.3276
20054W        W36528   4.999  10.554   5.677  0.2131  0.3647 -0.3763
20055W        W36529  16.531  14.344   0.950  0.0017  0.2244 -0.0133
20056W        W36530  16.035  13.470  13.702 -0.0138  0.0116 -0.1936
20057W        W36531  14.272   8.778   4.325 -0.0900  0.2575  0.0714
20058W        W36532   2.061  15.025  11.238 -0.0297  0.0403  0.0047
20059W        W36533   9.774   1.056   4.905 -0.1653  0.0622 -0.0673
20060W        W36534  10.657  16.930   1.663 -0.0036  0.0205 -0.1773
20061W        W36535   4.000   8.418   0.889 -0.2336  0.4222  0.1112
20062W        W36536   2.614   4.426  15.076 -0.1153  0.0778  0.0599
20063W        W36537  16.628  15.448  13.319  0.1008 -0.1555  0.1743
20064W        W36538   4.010   9.218  15.933  0.2225  0.1219 -0.1236
20065W        W36539   9.964  17.603   5.316  0.0948 -0.0926 -0.1453
20066W        W36540   9.225  18.395  12.658 -0.0150 -0.0125  0.0079
20067W        W36541  13.520  10.512  11.166 -0.1651  0.0842 -0.2245
20068W        W36542  16.490  16.279   1.281  0.2408 -0.1261  0.2520
20069W        W36543   7.698  10.727  11.007 -0.2701  0.0367 -0.1438
20070W        W36544   2.340   9.622   3.202  0.0163 -0.1318  0.0657
20071W        W36545  10.485  11.416   0.468  0.0220  0.1684 -0.1768
20072W        W36546   9.953   1.235  13.599 -0.1163  0.1811 -0.0006
20073W        W36547  10.133   8.941   5.424 -0.0123 -0.1248 -0.0260
20074W        W36548   2.527  13.464  14.760 -0.0506 -0.1976  0.0282
20075W        W36549  11.332   4.215   0.253 -0.0022  0.0139 -0.1190
20076W        W36550   7.371   4.955  13.230 -0.0192 -0.0594  0.4020
20077W        W36551   9.853   3.090   3.344 -0.2352  0.0346 -0.1046
20078W        W36552   7.786  10.705   1.128  0.3559 -0.2450  0.0719
20079W        W36553  13.155   6.365  13.192  0.1123 -0.0520  0.1106
20080W        W36554  18.133   8.780   0.886  0.1449 -0.0950 -0.0753
20081W        W36555   5.043   0.905  12.251 -0.1966 -0.2772 -0.2983
20082W        W36556   2.722   2.136  13.820  0.0340  0.1398  0.0864
20083W        W36557  12.461   6.193   1.567  0.0645 -0.0160 -0.0888
20084W        W36558  14.954   3.460   0.426  0.2373  0.0433  0.0583
20085W        W36559   0.708   7.097   2.658 -0.1584  0.1026  0.0451
20086W        W36560  11.770   9.393   4.279 -0.0513 -0.0884 -0.1498
20087W        W36561   9.481   7.727   0.758 -0.2196  0.0401 -0.3685
20088W        W36562   9.263  16.381  13.756  0.0259 -0.0207 -0.1098
20089W        W36563   2.870   4.141   2.961 -0.1812 -0.1646  0.2600
20090W        W36564   1.162   5.111  11.971 -0.0099  0.0242  0.2178
20091W        W36565  18.080  13.759   5.393  0.0316 -0.2922  0.4389
20092W        W36566  12.333   8.875   3.194  0.1144 -0.0018  0.0263
20093W        W36567   2.617   1.850   3.223 -0.1932 -0.1041 -0.0944
20094W        W36568   5.055   7.851   3.479  0.2882  0.1140  0.0425
20095W        W36569   0.271   4.243  12.593 -0.0277  0.2303  0.3265
20096W        W36570  13.219   0.129  11.492 -0.0001 -0.1577  0.2345
20097W        W36571  15.175   0.977   0.712 -0.1932 -0.0038  0.1100
20098W        W36572   0.851   1.984   4.660 -0.0013 -0.1183  0.2656
20099W        W36573  15.861   1.621   0.713 -0.1111 -0.3923  0.0540
20100W        W36574  10.960   7.428   2.976 -0.0375  0.0511 -0.0431
20101W        W36575  17.605  17.041  14.466  0.2008 -0.1261  0.0677
20102W        W36576  11.660  12.242  12.096  0.1515 -0.1012 -0.1805
20103W        W36577   6.006   3.583  11.818  0.1538  0.2599 -0.1659
20104W        W36578  17.041  13.903   3.232  0.1946 -0.2240  0.1371
20105W        W36579  17.255   2.327   4.960 -0.2501 -0.1055 -0.1137
20106W        W36580  10.667   5.478   4.491  0.1572 -0.1790 -0.2678
20107W        W36581  11.141   1.481  11.112 -0.2213  0.0551  0.2836
20108W        W36582   5.532  14.457  13.863 -0.2123  0.0936 -0.2482
20109W        W36583   1.112  18.191  14.645  0.0743 -0.4041 -0.1728
20110W        W36584  14.796   3.818  11.051 -0.1625  0.0461  0.0711
20111W        W36585   7.236   2.593  14.432 -0.1081  0.2521  0.2885
20112W        W36586   4.030  12.514  13.544  0.0368  0.0403 -0.1333
20113W        W36587   3.499  14.583   1.212  0.1609  0.3224 -0.1279
20114W        W36588   9.639  15.243  15.113 -0.1647  0.1320  0.1511
20115W        W36589   9.395   2.104  13.713  0.0661 -0.0706 -0.0616
20116W        W36590  15.884   1.890  13.344 -0.1656  0.1276  0.1927
20117W        W36591   2.942   3.265  14.859  0.0562  0.3032  0.3281
20118W        W36592   6.449  13.142  12.278 -0.3515 -0.0574  0.0498
20119W        W36593  17.058  11.106   1.154 -0.1320  0.2793 -0.3614
20120W        W36594   6.024  15.028   2.922  0.2045 -0.1844  0.0556
20121W        W36595  16.594  17.684  13.367 -0.0276 -0.0524  0.1087
20122W        W36596   3.193   6.955  15.540 -0.1488  0.1183  0.1046
20123W        W36597  15.325   6.552  14.850  0.1505  0.0297 -0.2854
20124W        W36598   4.112   4.655  13.686  0.0907  0.1418 -0.1784
20125W        W36599  11.875   0.424   1.734 -0.2105  0.3141 -0.2943
20126W        W36600  10.921   3.967  12.902 -0.1450 -0.1045  0.0081
20127W        W36601  18.233  17.238  12.727  0.0855 -0.3485  0.3889
20128W        W36602   9.558   3.220  11.303 -0.0072  0.2608  0.0176
20129W        W36603  17.474   2.929  11.149  0.0139 -0.0990  0.2475
20130W        W36604  18.105  15.328   0.855  0.0907  0.1390 -0.1133
20131W        W36605  13.683  17.080  14.511 -0.0601 -0.0029 -0.2425
20132W        W36606   6.493   9.369  15.160 -0.1648 -0.0533  0.3305
20133W        W36607   4.143   6.678  14.222 -0.1655 -0.1183  0.0548
20134W        W36608   3.260   2.161  10.872  0.2189 -0.1005 -0.0506
20135W        W36609   9.117  17.377  11.297 -0.0375 -0.2232  0.1031
20136W        W36610   4.748  11.246   6.015 -0.1725  0.1102 -0.1350
20137W        W36611  14.628  11.724  15.341 -0.0229  0.0372 -0.2193
20138W        W36612   2.558  13.477  14.132 -0.0907 -0.3795 -0.0264
20139W        W36613   1.677  14.924  12.518  0.2550  0.1214 -0.0759
20140W        W36614   5.932   8.729  12.267  0.1253 -0.1029  0.2093
20141W        W36615  11.824   3.762  12.929 -0.0011  0.5207  0.1478
20142W        W36616  13.304   8.056  15.530  0.3561 -0.0332  0.0196
20143W        W36617   8.941   3.334  15.434 -0.1841 -0.1858 -0.0178
20144W        W36618   8.926  14.078   1.651 -0.0281 -0.2301  0.0656
20145W        W36619  14.263   8.737  14.918  0.1006 -0.1830 -0.1546
20146W        W36620  15.151  15.111   3.179  0.0463  0.0876  0.1149
20147W        W36621   7.135  10.774   1.614  0.1532 -0.2296 -0.1158
20148W        W36622  11.046  17.564  13.510 -0.0924  0.3064 -0.1322
20149W        W36623   1.453  16.619  14.535 -0.0544 -0.1214 -0.2869
20150W        W36624  17.626   1.773  14.560  0.2475  0.2465 -0.0137
20151W        W36625   7.279  17.111   0.535 -0.4327 -0.1820  0.2224
20152W        W36626  16.368   8.420  13.913  0.0225  0.1885  0.0154
20153W        W36627   4.632   8.654   0.799 -0.0447 -0.1903 -0.1035
20154W        W36628   7.551  16.778  13.841  0.2727 -0.0357 -0.2130
20155W        W36629   6.386   3.779  15.334 -0.0350 -0.1107 -0.3018
20156W        W36630  11.245  12.643  13.297  0.0061  0.0184  0.1978
20157W        W36631   8.218  12.344  15.888  0.0679 -0.0279 -0.0834
20158W        W36632  16.516  12.320   5.401 -0.0190 -0.0086 -0.2612
20159W        W36633  16.904  14.541  15.009  0.1969  0.3926 -0.1245
20160W        W36634   5.650  17.383   0.452  0.0080 -0.1821  0.0877
20161W        W36635   2.116   7.049  14.252  0.4227  0.1089  0.1250
20162W        W36636   8.322   5.386   1.735 -0.0403 -0.2180  0.3034
20163W        W36637  13.815   2.399   0.692 -0.0036 -0.0190 -0.1895
20164W        W36638  11.610   0.271   2.950 -0.0138  0.0996 -0.1576
20165W        W36639   9.071  12.984  14.563 -0.0637 -0.1117  0.4103
20166W        W36640   5.973  18.410   3.416  0.2257 -0.0559  0.1924
20167W        W36641  16.497   9.576   2.056 -0.1246 -0.0558  0.0564
20168W        W36642   3.073  14.824  14.293 -0.0957  0.2764  0.2620
20169W        W36643   5.953   1.383   4.095  0.0513  0.1016  0.2692
20170W        W36644  14.671   0.081  10.080 -0.0218  0.1292  0.1254
20171W        W36645   1.471   4.918   3.875  0.3212 -0.1598 -0.1618
20172W        W36646  13.827   0.800   0.190  0.2318  0.2522  0.4045
20173W        W36647   0.407  10.597   5.321 -0.2273  0.2341 -0.2368
20174W        W36648  16.812  11.920  11.531  0.2629  0.1300  0.0596
20175W        W36649  16.917   3.487   4.193  0.0308  0.2292  0.0105
20176W        W36650   6.958  17.280  13.144  0.0123  0.2239 -0.2218
20177W        W36651  15.055  18.127  13.884  0.2927  0.2983  0.1132
20178W        W36652  17.031   0.385  11.381  0.1347  0.0476  0.1654
20179W        W36653  13.093  15.341   3.864  0.2255 -0.4020 -0.1258
20180W        W36654   1.280  13.182   2.524  0.3770  0.2515 -0.1269
20181W        W36655   6.305   6.810   5.554 -0.0702  0.2107  0.1602
20182W        W36656   4.947   1.386   3.543 -0.1748  0.0725  0.1535
20183W        W36657   8.386  15.259  11.224 -0.1744 -0.2155  0.0942
20184W        W36658  17.917  15.528  12.136  0.0590  0.2346 -0.2322
20185W        W36659   2.473  12.304  10.759 -0.1028  0.0613  0.1100
20186W        W36660   9.410   8.453   0.188  0.0658  0.1382 -0.0420
20187W        W36661   8.451   1.496   2.198 -0.0698 -0.4284 -0.0121
20188W        W36662   6.152   2.512   4.223 -0.0321  0.1382 -0.3325
20189W        W36663   5.332   8.464   0.691 -0.0409 -0.1699 -0.1075
20190W        W36664   0.436  16.138  15.147 -0.0931  0.0367  0.0420
20191W        W36665  16.665  12.896   1.277 -0.0597  0.2729  0.1062
20192W        W36666   1.227  14.176  11.523  0.0872 -0.1114  0.1785
20193W        W36667  10.088  15.761  15.840 -0.2220  0.0015 -0.1800
20194W        W36668   3.762  10.977  15.692 -0.0821 -0.1505  0.1465
20195W        W36669  14.337   8.584  11.438 -0.0076 -0.1560  0.1514
20196W        W36670  11.559  15.847   4.427 -0.0666 -0.0389  0.0651
20197W        W36671   0.835  12.102   1.210 -0.0192  0.1275 -0.0470
20198W        W36672  10.238   5.818   0.535  0.1367 -0.0772 -0.1398
20199W        W36673   0.787   6.456  11.790 -0.3166 -0.2448  0.1556
20200W        W36674   7.773  16.471  14.432 -0.0828  0.0439 -0.1211
20201W        W36675   1.567   4.772  13.303 -0.0122  0.0356 -0.1023
20202W        W36676  11.993  13.243  14.470 -0.2526 -0.0898 -0.1515
20203W        W36677  11.808  15.719   0.500  0.1936 -0.3132  0.2796
20204W        W36678   8.432   8.066  12.639 -0.2702 -0.1803 -0.2201
20205W        W36679   6.312   3.517  15.745 -0.1132 -0.2697  0.2280
20206W        W36680  13.318   7.396  14.512 -0.1832 -0.2184 -0.1893
20207W        W36681  10.010  10.750   4.932  0.0668  0.0457  0.1720
20208W        W36682   6.233  17.492  11.156 -0.0722  0.2034  0.0184
20209W        W36683   6.062   8.376   5.431  0.1806  0.1649 -0.1760
20210W        W36684  13.027  15.412  15.355  0.0831 -0.0563  0.0396
20211W        W36685  14.405   4.277   5.016  0.1405 -0.1599 -0.0475
20212W        W36686   5.250  18.372  13.760  0.0782  0.1804 -0.0464
20213W        W36687  14.293   9.567   5.989  0.0552  0.1407  0.4002
20214W        W36688   4.719   7.330  12.970 -0.0954  0.0524  0.0492
20215W        W36689   6.170  17.788  11.971  0.2630 -0.0683 -0.2116
20216W        W36690   6.973  14.808   0.805 -0.2496  0.1233 -0.1000
20217W        W36691   6.580  17.082  13.918  0.2575 -0.0761 -0.1883
20218W        W36692   0.321   3.971   1.607 -0.3129 -0.3308 -0.1203
20219W        W36693   8.744   0.118  12.509 -0.6178  0.2880  0.1958
20220W        W36694  15.938   8.700  15.608  0.1173 -0.2587  0.0457
20221W        W36695  13.692  16.549  15.128 -0.2125  0.4097  0.0792
20222W        W36696   0.491   2.084  11.567 -0.1375 -0.0816 -0.1106
20223W        W36697   2.659  10.057   3.326 -0.2449 -0.2572  0.0071
20224W        W36698  18.156   0.732  13.664 -0.1423  0.2726  0.3399
20225W        W36699  13.948  16.333  13.794 -0.0339 -0.0449 -0.0005
20226W        W36700   6.778   8.064  15.842 -0.0985  0.1498 -0.1300
20227W        W36701  13.395  15.102  15.603 -0.0968  0.0973 -0.0193
20228W        W36702   7.999   0.036  14.450 -0.2443  0.0767 -0.0421
20229W        W36703   0.514  10.563  13.311  0.0269 -0.4229  0.0214
20230W        W36704   5.587   0.936  12.107  0.1075  0.0206 -0.2084
20231W        W36705   6.149  13.929   1.908 -0.1125  0.4069  0.0531
20232W        W36706   5.462  14.815  15.144 -0.2070  0.3691  0.4705
20233W        W36707   3.649  13.300   4.018 -0.0405  0.1310 -0.1065
20234W        W36708   8.982  18.312   9.429 -0.0286 -0.0310 -0.4533
20235W        W36709  13.366   0.962   0.145 -0.0504 -0.1194  0.1808
20236W        W36710   6.392  10.164  12.750 -0.0402 -0.0809  0.0028
20237W        W36711  14.421   3.909  11.962  0.1221  0.2236 -0.2462
20238W        W36712  11.833  17.662   5.307  0.0643  0.2123 -0.0456
20239W        W36713  15.747  14.779  15.143 -0.1299  0.2775 -0.0102
20240W        W36714  11.039  14.372   1.609  0.2774 -0.1857  0.0248
20241W        W36715   0.015   5.415   4.859  0.0191 -0.2312 -0.0310
20242W        W36716  12.480   3.762   3.644 -0.2459  0.0856 -0.2142
20243W        W36717   0.817   1.171   3.955 -0.0516  0.2269  0.0195
20244W        W36718  15.243  17.922  11.514 -0.0678  0.1351 -0.1285
20245W        W36719   0.547   9.866   4.047 -0.0208 -0.0130  0.1331
20246W        W36720  16.654  15.353  15.492 -0.1609 -0.4959 -0.5712
20247W        W36721   6.542   2.789  13.531 -0.1943  0.2433  0.0336
20248W        W36722   3.189  12.153  12.652 -0.0961 -0.0385  0.0838
20249W        W36723   1.530   4.173   2.925  0.0728 -0.0665 -0.3868
20250W        W36724   6.243   8.750   5.134  0.2127 -0.0451  0.0676
20251W        W36725   4.915   3.231  13.592 -0.2201 -0.0182 -0.1380
20252W        W36726   6.713   0.307   2.304  0.1679  0.1177 -0.0686
20253W        W36727  16.414  10.275  14.243 -0.2774 -0.0124 -0.1092
20254W        W36728  15.033  11.328  11.983  0.0466  0.3231  0.1329
20255W        W36729   5.613  14.665  11.076  0.2686 -0.0046 -0.0094
20256W        W36730  16.522   2.776   0.233  0.0187  0.0376  0.1250
20257W        W36731  11.119  13.714   5.184 -0.0300  0.4413 -0.2538
20258W        W36732  11.691   4.918  11.434  0.1234 -0.3574 -0.2051
20259W        W36733   4.762  15.336   4.268  0.1516 -0.1184  0.2635
20260W        W36734  14.950  13.063   0.952  0.3641 -0.1205  0.1131
20261W        W36735  17.092   1.327  15.184  0.0858  0.0535  0.1418
20262W        W36736   0.904  11.379   0.517  0.1216  0.1951 -0.0853
20263W        W36737  10.140   5.073   2.512  0.0806 -0.1510 -0.3432
20264W        W36738   6.368   3.566  12.382 -0.0494  0.2442 -0.0492
20265W        W36739   2.865   2.696   2.364  0.0421  0.2994 -0.3981
20266W        W36740  14.706  16.108  14.976 -0.1542  0.2905 -0.1184
20267W        W36741   3.977  11.682   1.169 -0.0629  0.0222 -0.0081
20268W        W36742  16.973  15.521   3.149  0.2868 -0.2744  0.0306
20269W        W36743  14.255   9.602   4.860  0.0539 -0.3445 -0.5030
20270W        W36744  13.627   1.570  14.041  0.0613 -0.2499 -0.2020
20271W        W36745   7.266  13.563  12.736  0.2615  0.2318 -0.2195
20272W        W36746   5.655  14.234   5.560  0.0702  0.1189  0.0879
20273W        W36747   2.053   7.688  15.907  0.0179 -0.1027 -0.1138
20274W        W36748   8.476  12.128   2.766  0.1281  0.0227  0.1238
20275W        W36749  13.344   2.129  15.022 -0.1407  0.0920  0.0571
20276W        W36750  12.660  13.966  14.799  0.0668  0.1103 -0.3811
20277W        W36751  12.111  18.112   0.096  0.0781  0.3025 -0.0334
20278W        W36752  13.002  17.979  14.478  0.0863  0.0129 -0.3727
20279W        W36753  11.410  16.653  14.242  0.0558  0.1682  0.1579
20280W        W36754   6.993  11.023  13.236 -0.1556 -0.2256 -0.0221
20281W        W36755   5.756  12.854  15.188 -0.1257  0.1078  0.1495
20282W        W36756   9.908   0.059   5.811 -0.1633 -0.2147  0.3713
20283W        W36757   4.480  12.602   1.182 -0.1561  0.0423  0.2834
20284W        W36758   6.462  12.874  11.516  0.4102 -0.3416  0.1231
20285W        W36759   2.772  13.232  12.127 -0.0318  0.2361 -0.2446
20286W        W36760  10.337  14.794   1.460  0.4279 -0.0829 -0.0186
20287W        W36761  11.256  16.118   3.039  0.0472 -0.0515  0.1954
20288W        W36762  16.746   7.071   5.337 -0.0904  0.1124 -0.0736
20289W        W36763   5.722   2.078   2.561 -0.0914 -0.0849 -0.1086
20290W        W36764  15.089   3.235  12.964  0.1161 -0.3655 -0.3337
20291W        W36765  17.690   6.005  12.432  0.2380  0.1627  0.0369
20292W        W36766  12.556  10.389   0.845 -0.0764 -0.0241  0.1178
20293W        W36767  12.177   5.739   2.323  0.1376  0.0010 -0.0123
20294W        W36768   9.852   9.153  13.019 -0.0093  0.0726  0.2035
20295W        W36769  11.487   0.776  15.346  0.1424 -0.1318 -0.1323
20296W        W36770   9.884   8.668   5.939  0.1473 -0.1534 -0.1598
20297W        W36771   8.599  11.910   5.151  0.1442  0.0441  0.3183
20298W        W36772   1.604  17.370   1.284  0.0441 -0.1466  0.2743
20299W        W36773  15.162  13.907   0.577 -0.1688 -0.0179  0.0518
20300W        W36774   3.347   3.034   3.225 -0.1247 -0.1704  0.4286
20301W        W36775   0.252  14.121  13.021  0.0343  0.0819  0.3354
20302W        W36776   8.488  12.631   3.857  0.4074 -0.0073 -0.1251
20303W        W36777  15.190  11.935   1.864 -0.0779  0.3128 -0.2749
20304W        W36778   1.249   5.050  15.409 -0.1059 -0.0827 -0.1039
20305W        W36779   1.511   3.871   0.245  0.2852 -0.0303 -0.1476
20306W        W36780   7.970   9.537  11.900  0.1061  0.1127  0.2095
20307W        W36781  17.646  10.065  15.060 -0.1799 -0.0586  0.1384
20308W        W36782   0.458  12.420  14.501 -0.0425  0.0989  0.1787
20309W        W36783   8.343  15.239   1.787  0.0045 -0.0371 -0.2216
20310W        W36784  18.328   0.308   4.123  0.0536  0.0345  0.1430
20311W        W36785  17.576  14.123  15.263 -0.2049 -0.0695 -0.0340
20312W        W36786  16.663   1.496   0.099 -0.3794 -0.3512  0.2662
20313W        W36787   2.140  10.736  15.486 -0.0939  0.1923 -0.1560
20314W        W36788   7.849  10.305  13.743  0.1785 -0.0673 -0.1181
20315W        W36789  13.491   4.825  12.322  0.2561  0.3007  0.0602
20316W        W36790   1.118   0.715  14.329 -0.1492  0.0073  0.3601
20317W        W36791   9.781   0.041   5.340 -0.0205  0.1751  0.0852
20318W        W36792  13.646   5.744   1.209 -0.0302 -0.0061 -0.1262
20319W        W36793   3.674  13.772   1.609  0.1836  0.1979  0.2348
20320W        W36794   7.092  18.085   2.382 -0.0885 -0.0953  0.3448
20321W        W36795  16.713  10.490   5.370 -0.3002 -0.0740  0.1914
20322W        W36796  13.117  11.115  14.722 -0.1635 -0.1316 -0.0916
20323W        W36797  17.425   5.790  13.194  0.1568 -0.0804 -0.0563
20324W        W36798   3.382  11.026  14.014  0.0442  0.2151  0.1026
20325W        W36799   9.654  11.730   4.008 -0.2132 -0.0263  0.0168
20326W        W36800   9.213  16.395  11.825 -0.0053 -0.2302  0.0991
20327W        W36801   8.818   7.811  12.767 -0.2140 -0.0285  0.1244
20328W        W36802   0.587   8.248  15.821  0.1082 -0.2852  0.0063
20329W        W36803   4.675   3.467  11.603 -0.1149  0.1600  0.1180
20330W        W36804  12.624   9.881   2.889  0.0280  0.0507 -0.1125
20331W        W36805   8.823  15.717  11.984 -0.1156  0.3365  0.0459
20332W        W36806  11.233  13.628  12.907 -0.1950  0.1549  0.2006
20333W        W36807   3.933   0.540  10.605 -0.2891  0.1529  0.2242
20334W        W36808   4.607  15.931   2.068 -0.2005 -0.6227 -0.1259
20335W        W36809  15.495   2.159  12.091 -0.0168 -0.0432 -0.0308
20336W        W36810   4.855   8.488  11.307  0.3479  0.0585  0.0426
20337W        W36811   9.827   9.587   5.291  0.1607  0.5188  0.1932
20338W        W36812  11.440   4.267  14.367  0.0707 -0.0103  0.2106
20339W        W36813   1.285  13.822   1.135  0.0513  0.0556  0.0986
20340W        W36814  12.341   0.929  11.270 -0.1282 -0.0809 -0.1904
20341W        W36815   7.264  13.304   2.279  0.0857 -0.2394  0.1625
20342W        W36816  13.740  16.535   5.011  0.1514  0.0881 -0.1681
20343W        W36817  10.757  16.184   2.988  0.0494  0.2358 -0.1900
20344W        W36818  12.406   0.406   1.340 -0.2445 -0.0291 -0.0808
20345W        W36819   7.819   9.822   4.185  0.0365 -0.3176  0.2193
20346W        W36820  16.406  17.750   5.555 -0.0818 -0.1105  0.1668
20347W        W36821   5.497  17.096  12.285 -0.0522  0.1796 -0.0129
20348W        W36822   4.567  17.423   3.966 -0.1606 -0.4431  0.2533
20349W        W36823   3.784   3.304  15.564 -0.4569 -0.0244 -0.1739
20350W        W36824  12.790  12.080   5.589 -0.0882  0.1409  0.1280
20351W        W36825  11.828   3.817  14.557  0.0962  0.0544  0.0189
20352W        W36826  10.953  16.351   2.058 -0.1545  0.0852  0.0190
20353W        W36827   6.451  12.292   4.046  0.3220  0.2605 -0.0880
20354W        W36828  13.418   9.315  15.828 -0.2236  0.3252 -0.1397
20355W        W36829  18.461   4.470  15.373  0.0511 -0.0897  0.0883
20356W        W36830  11.843   7.265   4.554 -0.0104  0.1201  0.2408
20357W        W36831   9.790  14.740  15.233 -0.2534  0.1140  0.2448
20358W        W36832   9.188   9.662  12.498  0.0173  0.0988 -0.0422
20359W        W36833   2.884   9.500   1.462 -0.0528  0.2587  0.3457
20360W        W36834  12.478   9.432  15.720 -0.3063  0.2764 -0.1242
20361W        W36835   2.179   7.635   4.358  0.0409  0.0031  0.4882
20362W        W36836  12.525   6.511   5.146 -0.1056 -0.0484  0.1405
20363W        W36837  15.119   1.682  15.769  0.1049  0.3085  0.1616
20364W        W36838   6.206  15.482   2.848 -0.0728  0.0876  0.2114
20365W        W36839  11.911  10.353  11.548 -0.0286 -0.0471 -0.2919
20366W        W36840  17.713   7.700   1.064  0.2122  0.3128 -0.0880
20367W        W36841  12.233  10.360   5.952  0.0855 -0.1301  0.0643
20368W        W36842  13.931  13.879  15.475  0.0009  0.2782 -0.0821
20369W        W36843  17.266  12.093  14.143 -0.0478 -0.0510 -0.0496
20370W        W36844   6.683  11.811  10.579  0.2085 -0.1938  0.1370
20371W        W36845   5.842   6.745   3.412  0.1474  0.0631  0.0758
20372W        W36846  10.467  13.416   3.181  0.1735  0.1015  0.3044
20373W        W36847   9.081   6.260  12.493  0.1759 -0.2970 -0.1754
20374W        W36848  12.693  16.699  13.445  0.1442  0.0358 -0.1708
20375W        W36849  11.325   8.105   4.216 -0.1110 -0.0007  0.0553
20376W        W36850   7.802  17.426   5.203  0.0135 -0.0651  0.1023
20377W        W36851  16.587   4.216   1.957  0.1631  0.2157  0.0869
20378W        W36852   9.461   3.862   4.819 -0.3486  0.1565  0.0514
20379W        W36853   8.774  10.976  15.918 -0.0846 -0.1139  0.1286
20380W        W36854  18.160   0.650   2.665 -0.0570  0.4678  0.0538
20381W        W36855  17.421   4.871  11.998 -0.1250 -0.0215  0.0882
20382W        W36856  16.084   9.980  12.767  0.4281 -0.2507  0.0060
20383W        W36857  10.748   6.814   3.901  0.0908 -0.2510 -0.2285
20384W        W36858   5.569  17.281   4.574  0.1288  0.0933 -0.0540
20385W        W36859   0.883  17.408   3.105 -0.1162 -0.1892  0.1188
20386W        W36860  15.145   7.416  11.217  0.2638  0.0832 -0.1800
20387W        W36861  15.690  14.876   5.487 -0.0028  0.2600  0.2361
20388W        W36862  14.761  14.843  13.034 -0.0353  0.1501  0.2360
20389W        W36863   9.290   4.537   2.003 -0.1528  0.0154  0.2040
20390W        W36864  15.338   7.914  12.393  0.0603  0.1798  0.0505
20391W        W36865   1.981   8.283   2.546 -0.0478  0.1320  0.1263
20392W        W36866   3.636  18.138   2.227  0.0744  0.2571  0.3649
20393W        W36867  16.801  10.988  11.764 -0.0813 -0.3870  0.0306
20394W        W36868   1.619  14.447  15.072  0.1168  0.1199 -0.4083
20395W        W36869  18.007   9.509   1.916 -0.1444  0.2087  0.0798
20396W        W36870   7.100   3.893   1.714 -0.2275  0.0476  0.1371
20397W        W36871   4.237   6.742  13.738  0.1509  0.1146 -0.0904
20398W        W36872   8.374  11.702   2.121  0.0241 -0.1428 -0.0657
20399W        W36873   0.985   3.871  11.492 -0.1745 -0.1643  0.2750
20400W        W36874  18.356   9.606  10.605 -0.2977 -0.1418  0.1013
20401W        W36875  14.205   5.953  14.949 -0.2635 -0.1233  0.0353
20402W        W36876   8.755   2.423   0.461  0.0204  0.2187 -0.3046
20403W        W36877   5.914  11.053   1.327  0.1062  0.0053  0.3673
20404W        W36878  10.580   6.684   5.303 -0.0321 -0.2378 -0.0264
20405W        W36879  16.320  10.319   2.604 -0.2387 -0.1776 -0.2927
20406W        W36880  16.988  16.737  14.771 -0.0483 -0.3125  0.0827
20407W        W36881  11.730  16.567   1.011  0.1153 -0.1979 -0.2030
20408W        W36882   9.089   4.668  13.410  0.3111 -0.0039 -0.0279
20409W        W36883   6.632  10.309  15.639 -0.0396 -0.0475 -0.0956
20410W        W36884   5.745  11.119  13.382 -0.0938  0.0847  0.1437
20411W        W36885   0.361  10.717   3.216 -0.0673 -0.0502  0.1121
20412W        W36886   3.695   0.831  10.250 -0.0267 -0.1817 -0.0913
20413W        W36887  13.920  15.012   3.683 -0.2125  0.0976 -0.1572
20414W        W36888   3.730  15.564  14.530  0.1758  0.2855 -0.0244
20415W        W36889  12.128  13.102  11.431 -0.3684 -0.1014 -0.0256
20416W        W36890   9.897   6.021   4.309  0.0841 -0.0393 -0.1075
20417W        W36891   8.363  15.592  12.344  0.2651  0.2173 -0.0163
20418W        W36892   9.616  15.069  13.321  0.0155  0.0270  0.0888
20419W        W36893   3.098   1.905   5.812 -0.2091  0.1288 -0.1234
20420W        W36894   1.698  17.929  14.843 -0.2338 -0.4782 -0.3857
20421W        W36895  17.611  10.576   3.234 -0.2135  0.2598  0.1128
20422W        W36896   0.611   2.457  15.806 -0.1399 -0.0229 -0.2911
20423W        W36897  18.365   9.115   5.282 -0.1136  0.1590 -0.3340
20424W        W36898  16.208  13.153   4.776  0.1637 -0.1025 -0.0862
20425W        W36899  14.065   3.564   2.587 -0.1832 -0.1733 -0.0082
20426W        W36900  13.336  12.915   4.217 -0.1157 -0.0386  0.0347
20427W        W36901   1.867  16.898   4.772  0.3735 -0.1664  0.4429
20428W        W36902   3.797   2.366  11.927 -0.0925 -0.0246  0.1868
20429W        W36903   4.866  11.128   4.556  0.2647 -0.0982  0.2508
20430W        W36904  11.564   5.930   1.427 -0.1140 -0.2223 -0.0366
20431W        W36905   8.970  17.215  14.934  0.0042  0.0682  0.0717
20432W        W36906   4.846   9.252  12.532  0.0887 -0.0322 -0.0831
20433W        W36907  17.586   7.512   3.837 -0.1082 -0.0214 -0.0350
20434W        W36908  18.047  10.852   3.060  0.0201 -0.3890 -0.0380
20435W        W36909   7.644  14.579   0.958 -0.1678 -0.0116  0.1123
20436W        W36910  16.211   0.022   4.136 -0.1181  0.0233  0.1375
20437W        W36911  13.844  12.799   2.195 -0.1160  0.3578  0.0563
20438W        W36912  11.760   9.889   2.260  0.0213  0.1425 -0.1028
20439W        W36913  10.377  13.617   0.633  0.3254  0.0437  0.0227
20440W        W36914   7.798  12.368  14.438 -0.0399 -0.0709 -0.2095
20441W        W36915  11.035   5.121  12.992  0.1747  0.0814  0.1782
20442W        W36916   2.343  16.268  14.581  0.0753  0.0314  0.1207
20443W        W36917   9.244  15.018   4.906 -0.0174 -0.0509 -0.2447
20444W        W36918   2.021  12.077  14.857  0.0677 -0.0132  0.3284
20445W        W36919  13.928   5.572   0.825  0.1952 -0.0267  0.0435
20446W        W36920  12.147   0.494  11.545  0.2394 -0.0486  0.2214
20447W        W36921  12.355  18.167  13.631 -0.2387  0.1003  0.0403
20448W        W36922  15.816  17.506  15.834  0.0740 -0.0191 -0.0367
20449W        W36923  11.392  18.156   1.933 -0.1204  0.0557 -0.2085
20450W        W36924   8.549  15.564   1.367  0.1274  0.0379  0.1622
20451W        W36925   4.963   0.161   0.539  0.0761 -0.1375 -0.1253
20452W        W36926  17.050   6.311  13.166 -0.4571  0.1945  0.0124
20453W        W36927   1.081   9.061   0.661 -0.0824  0.1989  0.0663
20454W        W36928  17.655   0.811  14.285 -0.1469 -0.0432 -0.0083
20455W        W36929  15.501  14.235   1.731 -0.0628 -0.2755 -0.0494
20456W        W36930   1.260  13.375  14.890 -0.0179  0.3438  0.1120
20457W        W36931  11.298   0.170   9.454 -0.4291  0.0806 -0.2808
20458W        W36932   4.723   4.422  12.191  0.0175  0.0250 -0.0517
20459W        W36933   9.696  10.809   3.383 -0.0796 -0.0318 -0.0015
20460W        W36934  13.176  16.950  13.458 -0.3276  0.3613  0.2813
20461W        W36935   0.358  11.812   2.120 -0.1001 -0.2171  0.1374
20462W        W36936   9.779  12.617  11.655  0.1489 -0.1415 -0.2524
20463W        W36937   9.776  15.810   2.111 -0.0076  0.3207 -0.1253
20464W        W36938   2.478   8.732   1.604 -0.0305  0.2188 -0.1742
20465W        W36939   8.612  10.782  14.875 -0.1072  0.2068  0.2461
20466W        W36940   7.487   3.336  13.847 -0.2028 -0.3806 -0.1742
20467W        W36941  16.587  10.651   3.143  0.0461  0.0737  0.1519
20468W        W36942   8.075  15.632  11.881 -0.1355 -0.1434 -0.0055
20469W        W36943   2.533   9.114  14.211  0.1674  0.0905 -0.0948
20470W        W36944  12.079   0.786  15.279  0.0972 -0.0314 -0.1287
20471W        W36945   3.471   0.562   3.712 -0.0392 -0.1541 -0.1718
20472W        W36946  14.897   0.883  15.446  0.1262  0.0134  0.2980
20473W        W36947  14.022  10.956   5.669  0.0439  0.0149  0.0666
20474W        W36948   8.916   3.273   2.440 -0.1409  0.2551 -0.3268
20475W        W36949  17.479   3.995  11.129 -0.1799 -0.1163 -0.2500
20476W        W36950   6.711   1.248   0.670 -0.6483  0.2802 -0.0748
20477W        W36951   6.091   8.628  12.795  0.0333  0.0300 -0.1137
20478W        W36952   4.471   7.878  15.622 -0.2529  0.0831  0.2789
20479W        W36953  14.832   7.995  13.871  0.3280 -0.2518  0.2073
20480W        W36954   3.114   9.847   4.224  0.1548  0.1547 -0.1570
20481W        W36955  14.046   9.267   4.528 -0.0056 -0.1269 -0.0246
20482W        W36956  11.423  14.032  12.661  0.0787 -0.1191 -0.3071
20483W        W36957  16.340  15.411   5.261 -0.0549 -0.1452 -0.0100
20484W        W36958  15.778   2.365  13.516 -0.1775 -0.1291  0.0529
20485W        W36959   8.104   7.944  11.025  0.1414  0.0337  0.0018
20486W        W36960  14.990   9.744   3.540  0.0198 -0.1615 -0.1609
20487W        W36961   5.474   6.080   2.296  0.4307  0.0289  0.0399
20488W        W36962   6.422   1.475   3.199  0.0614 -0.1158  0.0580
20489W        W36963   1.982   5.168   1.198 -0.0363 -0.2512 -0.1094
20490W        W36964   3.139   4.985  14.354 -0.3121  0.0985  0.1655
20491W        W36965   1.245   3.594   1.572 -0.0194 -0.1065  0.0061
20492W        W36966   9.425   1.009   1.705  0.0434 -0.2108  0.0369
20493W        W36967   9.623  17.454  12.645  0.3200  0.0885  0.0873
20494W        W36968  17.124  14.369   1.548 -0.1064 -0.0267  0.0400
20495W        W36969   5.437  13.035   2.508 -0.0884 -0.1942 -0.1336
20496W        W36970  12.212   1.050  13.172 -0.1000 -0.0926  0.2024
20497W        W36971   9.720   8.523  12.817  0.1244  0.0031  0.0633
20498W        W36972   1.580   5.277   4.296  0.3314 -0.0545  0.1747
20499W        W36973   7.294   2.587  12.873  0.3831  0.1287  0.5228
20500W        W36974   0.821   9.043   1.885  0.1084 -0.0747 -0.1656
20501W        W36975   4.700   3.284  14.971  0.0663  0.2245  0.0917
20502W        W36976  14.359  10.532   2.381 -0.2407  0.0878  0.0429
20503W        W36977   3.866   5.979  13.077 -0.2375 -0.1024  0.2036
20504W        W36978   9.303   3.604  12.258 -0.1518 -0.3140  0.0531
20505W        W36979   4.155   9.340  13.998  0.0394  0.0467  0.1209
20506W        W36980   9.687   3.410  12.558  0.0491  0.0670 -0.1923
20507W        W36981   5.108  13.765   3.347 -0.2664 -0.1161 -0.4487
20508W        W36982   3.889  12.181   5.211  0.5019  0.3051  0.0699
20509W        W36983  10.488   6.791   0.271  0.1287  0.3064 -0.0769
20510W        W36984  10.380   1.175  13.185  0.0302  0.3585 -0.1741
20511W        W36985   1.474   0.932   0.947  0.2202 -0.1299  0.1170
20512W        W36986   1.861  12.173  12.319 -0.4073  0.1859 -0.0975
20513W        W36987  16.633  17.260  11.514 -0.0262  0.1364  0.1290
20514W        W36988  16.626  14.728   3.384 -0.1106 -0.3445  0.1522
20515W        W36989   4.903   9.705  13.575 -0.0104 -0.0241 -0.1023
20516W        W36990  16.984   0.517  15.505 -0.2290  0.0372 -0.4170
20517W        W36991   3.565  17.143  15.317 -0.1475  0.0235 -0.2725
20518W        W36992  12.775   7.553  14.591 -0.2159  0.1038  0.0699
20519W        W36993   4.185  11.527  11.943 -0.2048  0.2146 -0.3862
20520W        W36994  11.925   0.106   2.593  0.1107  0.0186 -0.2425
20521W        W36995  18.460   4.278  13.855  0.4155 -0.0054  0.0809
20522W        W36996   5.902   4.497  14.983 -0.0057 -0.1925 -0.0821
20523W        W36997   4.988   7.914   2.092  0.1840 -0.0489 -0.2948
20524W        W36998  12.689  12.789   5.339  0.1929  0.1152  0.3131
20525W        W36999   8.848   7.027  12.136 -0.0436  0.0346  0.3085
20526W        W37000   6.420  18.246  11.846  0.1926 -0.0458  0.1215
20527W        W37001  18.185  15.812   4.497  0.2771 -0.0624 -0.2396
20528W        W37002  15.080   4.972   1.456  0.1009  0.2720  0.0705
20529W        W37003   9.789  11.457   5.680 -0.3677  0.0243 -0.0124
20530W        W37004  11.883  16.780   2.324 -0.1644  0.3392 -0.3014
20531W        W37005   7.645  18.132  15.282 -0.1848  0.2436 -0.1795
20532W        W37006  11.725  16.763  13.768  0.2433 -0.6011 -0.1761
20533W        W37007  14.214  18.423  13.993 -0.2104  0.1421 -0.0265
20534W        W37008   5.664  17.879   1.914 -0.0051 -0.1415  0.3686
20535W        W37009  16.055   1.059  14.784 -0.1410 -0.0041 -0.1201
20536W        W37010   9.484   4.452   0.691 -0.0362 -0.1930 -0.2303
20537W        W37011   7.126   5.411  15.683  0.0935 -0.0513 -0.1299
20538W        W37012  13.739  13.995   4.119 -0.1943 -0.0642 -0.4216
20539W        W37013   1.964   2.682   2.156 -0.0412  0.0733 -0.0567
20540W        W37014   1.754  15.497   3.173  0.0530  0.1911  0.3290
20541W        W37015  12.073   4.603  15.701 -0.2323  0.0897 -0.1527
20542W        W37016   6.894  13.842   1.801  0.1325 -0.0438 -0.0581
20543W        W37017   3.417  15.378   0.151  0.2060 -0.1844 -0.0538
20544W        W37018  13.323   5.694  12.591  0.2262 -0.0408 -0.1490
20545W        W37019   3.977  13.360  11.779 -0.2444  0.0997 -0.2624
20546W        W37020  11.773   4.876   2.696  0.4733 -0.5111  0.1689
20547W        W37021   9.215   8.498  10.657 -0.2153 -0.0386 -0.2336
20548W        W37022  13.298  11.344  15.324  0.0539  0.0269  0.0509
20549W        W37023   8.043  11.900   4.642 -0.0413  0.0716  0.0085
20550W        W37024  11.137   5.675  14.228  0.0901  0.4405  0.0676
20551W        W37025  15.233  13.776  11.549 -0.1135 -0.0856  0.0877
20552W        W37026   6.712  12.749   3.826  0.0692 -0.0204 -0.0496
20553W        W37027   6.188   7.815  12.211  0.1413  0.1266  0.0828
20554W        W37028  15.834   8.329   3.223  0.1881 -0.1136 -0.3267
20555W        W37029  18.327   0.050  13.108 -0.0441  0.1435  0.0843
20556W        W37030   1.700  14.411  14.222 -0.2644  0.3239  0.0719
20557W        W37031   0.713  17.112  14.285  0.1502  0.2186 -0.2535
20558W        W37032   9.958  11.249   4.675  0.1274  0.3809 -0.1779
20559W        W37033   5.495   8.493   5.334 -0.0577 -0.2668  0.1478
20560W        W37034  16.395   8.056  14.320  0.2195  0.2057  0.2129
20561W        W37035  13.675   3.136   1.195 -0.0399  0.4304  0.1095
20562W        W37036  18.277   4.849   3.238  0.0325  0.2309 -0.1322
20563W        W37037  15.445  11.604   0.723 -0.0271 -0.1147  0.0829
20564W        W37038   1.309   5.915   2.773 -0.0846 -0.2458  0.2122
20565W        W37039   6.928   1.044   2.501 -0.2881 -0.3006  0.0754
20566W        W37040  18.209   6.932  11.885  0.1192  0.2792  0.0735
20567W        W37041   6.525   2.988   1.884  0.0835 -0.1190 -0.1354
20568W        W37042  18.233  10.504   2.030  0.3403  0.0638 -0.1949
20569W        W37043  12.781  10.896   4.387 -0.0548 -0.0531 -0.2652
20570W        W37044  17.597  15.329   4.026  0.0822  0.1459  0.1726
20571W        W37045   5.170  15.073   4.256  0.0811  0.1239 -0.0232
20572W        W37046   6.524   2.476  11.161 -0.4584  0.2589 -0.2259
20573W        W37047   5.368   0.851  15.441 -0.0495 -0.2579  0.1547
20574W        W37048   5.483   7.266  11.330  0.2498  0.0898 -0.3406
20575W        W37049   2.496   7.890  14.689 -0.0253  0.0085 -0.1180
20576W        W37050   1.651  13.442  13.980 -0.2286 -0.6535  0.0236
20577W        W37051   5.997   0.076   2.817  0.2290 -0.3893  0.1864
20578W        W37052   5.293   5.150   1.479 -0.1603 -0.0119 -0.2139
20579W        W37053   8.612  16.845  12.449 -0.0577  0.0811 -0.0294
20580W        W37054  16.721  12.129  15.382  0.1498  0.0830 -0.0800
20581W        W37055  16.484   4.284   0.173 -0.0250 -0.0151 -0.2751
20582W        W37056   7.128   4.539   1.851 -0.1269  0.0995 -0.2275
20583W        W37057  18.327  14.243  12.052 -0.2154 -0.1612 -0.4145
20584W        W37058  13.076   2.737  13.824 -0.5703 -0.2617 -0.0814
20585W        W37059   2.753   8.679   2.024  0.0098  0.1482 -0.0064
20586W        W37060  11.462  15.323   0.177 -0.0860 -0.2158 -0.0201
20587W        W37061   8.478  15.661  14.563  0.0523 -0.0254 -0.1721
20588W        W37062  14.240  11.659  15.018  0.0001  0.1269  0.2528
20589W        W37063   4.537  11.380   4.871 -0.1754  0.0648  0.1792
20590W        W37064  10.856   6.081  13.890 -0.0193  0.0410  0.0098
20591W        W37065  11.366   8.297   5.568 -0.1428 -0.0470  0.0296
20592W        W37066   2.358  17.587   5.391 -0.2722 -0.2594 -0.1201
20593W        W37067   7.851  17.972   3.857 -0.4702  0.3487 -0.1893
20594W        W37068  14.414   6.405   0.320 -0.2578 -0.0083  0.0018
20595W        W37069  18.009   6.379  10.210 -0.0868  0.0027  0.2364
20596W        W37070  10.308   4.063  14.981  0.2916 -0.1067  0.0106
20597W        W37071  10.980   8.321  14.751 -0.4919 -0.0528 -0.0527
20598W        W37072  13.130  11.836  13.893 -0.3530 -0.3417 -0.1273
20599W        W37073   9.262  17.054  14.250 -0.1114 -0.2446  0.2453
20600W        W37074   8.772   5.961  14.631 -0.0115  0.1580  0.1012
20601W        W37075   3.392   9.125   2.527  0.0727 -0.0798  0.0555
20602W        W37076  11.367   0.181   4.241  0.2608 -0.0588  0.1386
20603W        W37077   5.255   4.839  14.747  0.0862 -0.0068  0.1692
20604W        W37078   0.514   1.779   0.323 -0.1674  0.0560 -0.0703
20605W        W37079   6.726  16.609  13.856  0.0272  0.2261  0.3461
20606W        W37080  17.797   8.037   0.652 -0.1663 -0.1532  0.1223
20607W        W37081   9.059   1.106   2.921 -0.1797 -0.0043  0.0998
20608W        W37082  12.376   4.812   3.353 -0.1739 -0.0195  0.0235
20609W        W37083   7.036  12.626  12.460  0.0732 -0.1782  0.4610
20610W        W37084   1.976   0.132   0.462  0.1849 -0.1196 -0.1876
20611W        W37085   4.295   7.339   2.545  0.4419 -0.0154  0.2873
20612W        W37086  11.359   9.825  14.870 -0.2207  0.1728  0.0332
20613W        W37087  11.028   4.735  13.284  0.0022  0.1370  0.0878
20614W        W37088   4.602   4.579  11.278 -0.1418  0.0591  0.2000
20615W        W37089   8.615   9.345  10.968  0.0523  0.3185 -0.0211
20616W        W37090   4.478   4.436  11.760  0.0769  0.1852  0.0370
20617W        W37091   5.894  17.349  15.544  0.0639 -0.2195  0.2014
20618W        W37092  18.479  16.915  15.645 -0.0723 -0.1450  0.0027
20619W        W37093   6.248   9.336   2.620  0.0028  0.1002 -0.0079
20620W        W37094  12.287  18.472  13.132  0.0918 -0.0241 -0.2511
20621W        W37095  12.198  15.109  12.202 -0.0496  0.0140  0.3106
20622W        W37096   9.844   9.358  13.975  0.1598 -0.0216 -0.0338
20623W        W37097  18.449   3.304   1.722 -0.1213  0.0187 -0.1926
20624W        W37098   7.350  13.506   5.814  0.1092  0.0244 -0.1117
20625W        W37099   9.161  15.448  15.834 -0.2353  0.0805 -0.2752
20626W        W37100   1.434  12.444  11.472 -0.0391 -0.2262 -0.2771
20627W        W37101   6.811  15.410   2.034  0.0299 -0.0360 -0.2075
20628W        W37102  12.552  12.542  15.066 -0.1320 -0.2899 -0.0258
20629W        W37103   2.410  15.415  12.938 -0.1609 -0.0337  0.0673
20630W        W37104  11.854   9.925  13.928 -0.0621  0.2511  0.4168
20631W        W37105   9.303   3.620   2.681 -0.0003  0.0352 -0.1980
20632W        W37106  16.191   2.434   2.521  0.5492  0.2513 -0.0098
20633W        W37107   9.589  15.131   2.524  0.0594 -0.2489 -0.0258
20634W        W37108  13.863   2.883  13.663 -0.2508 -0.4731  0.1591
20635W        W37109   0.419   1.010  12.950 -0.3074 -0.0170 -0.2013
20636W        W37110  13.156   6.218  12.682  0.3429 -0.1069  0.2020
20637W        W37111  10.005  13.350   3.534 -0.5000 -0.2543 -0.2867
20638W        W37112   4.956  18.367   1.087  0.0989 -0.1868 -0.2804
20639W        W37113  11.734  14.185   5.213 -0.0684  0.1909  0.0947
20640W        W37114   3.458  15.950   5.232 -0.0618 -0.2069 -0.2403
20641W        W37115  11.501   7.522   4.228  0.2449  0.0554  0.1047
20642W        W37116  10.115   3.845  12.028 -0.1009  0.1279  0.0763
20643W        W37117   7.046   0.473  14.475  0.2123 -0.1302 -0.0181
20644W        W37118  14.865   0.588  12.138  0.0439 -0.3241 -0.1446
20645W        W37119  10.401   6.920   0.744 -0.0413  0.0214  0.2313
20646W        W37120  18.062   9.201  13.566  0.0892  0.0064 -0.2809
20647W        W37121   1.376  17.128  13.701  0.0039  0.0226 -0.1941
20648W        W37122  18.266  11.622  11.852 -0.1036  0.0300 -0.0642
20649W        W37123  12.929   2.870  15.555  0.0540 -0.0508  0.1133
20650W        W37124   9.779  13.053  15.197  0.0618  0.3849  0.0543
20651W        W37125  10.402  11.962   1.085  0.0425 -0.2369 -0.0092
20652W        W37126   6.813  16.145   3.088  0.2590 -0.1311  0.0520
20653W        W37127   0.375  10.366  11.411  0.1744 -0.4316 -0.3744
20654W        W37128  13.390  13.468   1.545  0.1945 -0.0747 -0.0480
20655W        W37129   4.916   1.724  12.002 -0.0556  0.0538  0.3142
20656W        W37130  17.084   8.406  11.166 -0.0971 -0.3448  0.3076
20657W        W37131   5.874   8.240  12.948  0.2601  0.3109 -0.2722
20658W        W37132  13.758  13.354   3.478  0.2192  0.1737  0.0158
20659W        W37133  17.054  13.584  12.131  0.2042  0.0820 -0.1246
20660W        W37134   3.130  13.573   0.352  0.0317  0.0562  0.1231
20661W        W37135   7.149  14.456   0.532 -0.1002 -0.0541 -0.0620
20662W        W37136   8.656   9.021   1.011  0.1348 -0.0470  0.2891
20663W        W37137   5.741   7.935   1.056 -0.0726 -0.0457  0.1701
20664W        W37138   5.464   3.745   2.637  0.1311 -0.0617  0.1297
20665W        W37139   7.523   0.132  14.255 -0.4018  0.0520  0.0153
20666W        W37140   2.971  17.687  11.999 -0.1763  0.1540 -0.0601
20667W        W37141   3.866   2.376  15.966  0.3027  0.4255  0.0105
20668W        W37142   1.699   6.881   0.965  0.2816  0.3453  0.1317
20669W        W37143   5.126   3.439  15.872 -0.2240  0.1337  0.1413
20670W        W37144   9.094  11.542  14.780 -0.2611  0.2842  0.1307
20671W        W37145  15.608   0.313  13.886  0.3249 -0.0349 -0.1382
20672W        W37146  11.347   9.961   0.555 -0.1178 -0.2774  0.1037
20673W        W37147  11.692  15.266   0.626  0.2044  0.2637  0.0085
20674W        W37148   0.106   2.079   2.912 -0.0444 -0.2605  0.1227
20675W        W37149  12.775  12.740   0.841  0.1411 -0.0406 -0.2902
20676W        W37150   8.911  12.305  11.402 -0.1789 -0.4818 -0.3891
20677W        W37151  13.836  16.027  12.290  0.0973  0.2319 -0.0573
20678W        W37152   2.199   5.051   3.610 -0.0717  0.0754  0.1618
20679W        W37153  16.990   3.603   5.625 -0.1506 -0.2718  0.1292
20680W        W37154  11.826   0.825  15.758  0.0529  0.2000  0.0379
20681W        W37155  13.167  15.693   0.979 -0.0826 -0.1233  0.0976
20682W        W37156   2.153  17.404  11.636  0.1998  0.1419  0.1261
20683W        W37157  12.095  16.021   4.775  0.1149 -0.1161 -0.1444
20684W        W37158  12.517   4.932   2.253  0.2684 -0.4968  0.5026
20685W        W37159   4.206  18.385   4.238  0.0088  0.0060  0.0409
20686W        W37160  12.496   8.584  13.734  0.1877 -0.3429  0.0622
20687W        W37161   3.908   1.659  13.051 -0.1745  0.0496  0.0294
20688W        W37162  10.298   4.214   4.322  0.0166  0.0245  0.0573
20689W        W37163  13.613   7.467  12.529 -0.1792 -0.2154 -0.0055
20690W        W37164  14.354   8.563   1.617 -0.0812  0.0007  0.1267
20691W        W37165   3.681  12.477   0.984 -0.0482 -0.3731  0.1103
20692W        W37166   4.152  14.673   4.163  0.2664  0.0972 -0.0624
20693W        W37167   1.113  14.640  11.704  0.0250 -0.1218 -0.0667
20694W        W37168   2.070   2.316  15.252 -0.2654  0.0464 -0.2072
20695W        W37169  16.832   1.857   3.805 -0.2183 -0.0899 -0.1036
20696W        W37170  12.899   4.543   2.155 -0.3378  0.0065 -0.2990
20697W        W37171   1.865  18.254  12.911  0.0683 -0.0742 -0.1070
20698W        W37172  16.715  18.340   5.176 -0.0486  0.0981 -0.0214
20699W        W37173   0.468  16.470   4.501 -0.4026 -0.0217  0.0682
20700W        W37174   5.932   9.327   2.987  0.3530  0.1356  0.0489
20701W        W37175   1.016  15.776  12.321  0.0728  0.3289  0.0918
20702W        W37176  13.140  15.111   5.232 -0.0719 -0.0688 -0.1260
20703W        W37177   2.490   4.290   2.217  0.0908 -0.0162 -0.1939
20704W        W37178   1.423  16.817  15.881  0.0732 -0.0305  0.2217
20705W        W37179  13.642  16.477   3.562 -0.1026 -0.0813  0.3912
20706W        W37180   7.961   4.873   0.248  0.0864 -0.0268 -0.1622
20707W        W37181   7.745   4.192  13.647  0.1014  0.0422  0.2113
20708W        W37182  15.873  14.675   4.779  0.0628  0.2398 -0.0893
20709W        W37183  10.466   1.692  14.610  0.1051 -0.2049 -0.2137
20710W        W37184  14.327  18.412  14.480 -0.1359 -0.2391  0.0489
20711W        W37185   9.927   6.552   4.398 -0.2146  0.2331  0.2707
20712W        W37186  13.137  17.372   3.317 -0.0433 -0.0508  0.2110
20713W        W37187   2.385  15.193  11.996 -0.3299 -0.0592  0.1258
20714W        W37188   5.728   3.201  13.170 -0.1089 -0.0828 -0.3151
20715W        W37189   0.233   2.767  14.640 -0.1001  0.3166  0.0440
20716W        W37190   1.171  11.898  15.052  0.1946 -0.0917  0.3084
20717W        W37191   0.714   2.177   3.877 -0.2208  0.1073  0.3525
20718W        W37192  11.002  17.093   2.925 -0.2070 -0.2774  0.0775
20719W        W37193   3.641  15.231  10.814  0.1305 -0.2378  0.0913
20720W        W37194  10.137  13.312  12.405 -0.0956  0.0404  0.1754
20721W        W37195   0.245   5.877  12.974  0.0121 -0.2448  0.0372
20722W        W37196   0.012  14.093   2.180 -0.0292 -0.0487  0.0281
20723W        W37197   1.915   4.933  12.392 -0.0515 -0.0750 -0.2962
20724W        W37198   7.366   3.562  11.401 -0.1091 -0.1175  0.2163
20725W        W37199   1.279  11.965   4.449 -0.0041 -0.0818 -0.1310
20726W        W37200   3.416   3.295   4.607  0.1889  0.1544  0.2128
20727W        W37201  14.951   9.455  14.893 -0.1192 -0.0058  0.1880
20728W        W37202   5.075   6.470  13.299  0.1219  0.1233  0.1671
20729W        W37203   1.257   7.507   2.457  0.1569 -0.3765  0.0761
20730W        W37204  15.408   3.164   0.503  0.0366 -0.1771 -0.1029
20731W        W37205  16.933   0.566   4.477 -0.3607 -0.1916 -0.0051
20732W        W37206   2.948  11.070   4.222  0.4489  0.3030 -0.2933
20733W        W37207   5.753  16.800   4.633  0.4012 -0.2897  0.1924
20734W        W37208   4.732   0.410   3.258 -0.1509  0.0343 -0.0680
20735W        W37209  16.653   5.594  15.287  0.2402  0.2921  0.3180
20736W        W37210   0.768   3.749   1.393 -0.1679  0.0392  0.2211
20737W        W37211   9.275  13.834  11.738 -0.4236 -0.3186  0.2126
20738W        W37212  10.628   3.015   2.920  0.0269  0.3178 -0.2114
20739W        W37213  11.291  16.653  11.665  0.1930 -0.0271 -0.0517
20740W        W37214  18.403  10.428  11.185 -0.2925  0.3676 -0.1163
20741W        W37215   5.934  13.813  10.808  0.2154  0.2172  0.1892
20742W        W37216  15.552   4.611   3.660  0.2046  0.4631 -0.0096
20743W        W37217  10.081  18.192  11.639  0.0175  0.0928  0.1689
20744W        W37218   0.941  16.479   3.433 -0.0166 -0.0502 -0.0723
20745W        W37219  14.422  12.053  15.829  0.0400  0.2405  0.1284
20746W        W37220   5.022   8.402  10.089  0.1731 -0.1197  0.0850
20747W        W37221   5.065   3.010  12.535 -0.0472 -0.1662 -0.0830
20748W        W37222   3.144  11.458   5.998 -0.1222 -0.1149 -0.0615
20749W        W37223  10.585  10.108  14.251 -0.0393 -0.0896 -0.0318
20750W        W37224   8.654  16.024  14.174  0.0226  0.0070  0.1964
20751W        W37225   1.747  16.505   5.088 -0.0856 -0.1044 -0.0305
20752W        W37226   0.709   5.149  11.793  0.4535  0.2374  0.0527
20753W        W37227   4.461   7.873   1.344 -0.2674  0.4111  0.0299
20754W        W37228   1.385  15.577   3.520  0.1736 -0.0057 -0.0107
20755W        W37229   2.619   5.400  15.532 -0.1822 -0.2014  0.2319
20756W        W37230  17.783  15.428   1.649  0.1003 -0.1478  0.5288
20757W        W37231   4.205   2.092   5.107  0.0061 -0.0361 -0.0252
20758W        W37232   8.993   1.687  12.615  0.0306 -0.1336 -0.0467
20759W        W37233   4.103   8.855   2.390  0.0674  0.2296 -0.0478
20760W        W37234   6.066   0.965   0.664  0.0498 -0.1717  0.1117
20761W        W37235   4.478   8.559   1.711  0.0045 -0.1131 -0.2447
20762W        W37236   9.150   1.461   1.595  0.0176  0.1307  0.3047
20763W        W37237   3.104  11.327  15.928 -0.2697 -0.0104  0.0420
20764W        W37238  14.892   1.634  12.397 -0.4959 -0.0504 -0.1144
20765W        W37239   9.771  17.267   4.797 -0.0777  0.2240 -0.0205
20766W        W37240  11.126   6.167   0.553  0.1907 -0.0357  0.0369
20767W        W37241   4.044  18.285  12.679  0.4123 -0.1776 -0.2021
20768W        W37242   5.994  15.479   0.374  0.1522 -0.1059  0.2389
20769W        W37243   4.922   0.786  13.724  0.2590  0.0378 -0.1029
20770W        W37244   9.103   7.746   1.620 -0.0888  0.1705  0.2855
20771W        W37245  15.268   7.752  13.608 -0.3313 -0.1043 -0.0686
20772W        W37246  11.350  12.314  11.631 -0.0441  0.0451 -0.4028
20773W        W37247   9.097   1.467  14.592  0.2905 -0.2524  0.1606
20774W        W37248   9.103   7.122  10.484  0.0911 -0.0780 -0.1868
20775W        W37249   6.624   7.825  13.968 -0.3410 -0.0004 -0.1149
20776W        W37250   3.749  10.730  10.550  0.0539 -0.1293  0.1066
20777W        W37251   2.881  14.793  13.813 -0.0256 -0.1515 -0.1231
20778W        W37252   8.889   0.768   3.224 -0.1318 -0.0518  0.1731
20779W        W37253  14.160  18.435   0.002 -0.0767  0.0876 -0.1034
20780W        W37254  14.752  13.405  14.761  0.0967  0.1152 -0.0362
20781W        W37255  10.904   6.357   0.066  0.1211  0.3211  0.0480
20782W        W37256  14.619  13.413  12.202 -0.2389 -0.0717  0.0729
20783W        W37257  13.391   6.142  10.016 -0.0024 -0.2032 -0.1367
20784W        W37258   7.626  17.714   5.655  0.1045 -0.1179  0.0206
20785W        W37259   1.238   4.055  12.676  0.2792  0.0666 -0.0754
20786W        W37260  17.155  10.688  11.561 -0.1926  0.2124 -0.0377
20787W        W37261   7.613  13.989   5.768  0.2359  0.1823 -0.0776
20788W        W37262  14.549  14.040   4.528 -0.1978  0.2495  0.0070
20789W        W37263  14.079  17.949   2.830  0.0539  0.0520  0.1232
20790W        W37264   1.408  14.091   2.040  0.0593 -0.1459 -0.3758
20791W        W37265   9.013   4.689   6.053 -0.0597 -0.0994 -0.1621
20792W        W37266  16.560  13.756  11.965 -0.0728  0.0348  0.1343
20793W        W37267  12.930   2.938   0.219 -0.1915 -0.0993  0.0072
20794W        W37268  13.574   6.467   4.132  0.0401  0.3688  0.4392
20795W        W37269  16.344   3.283   3.117 -0.0547 -0.3209  0.0215
20796W        W37270   2.436   2.871  13.322 -0.3064 -0.2928 -0.0059
20797W        W37271   8.953  17.206   0.603 -0.0050  0.0150  0.0182
20798W        W37272  14.948  13.718   0.139  0.0609 -0.0521  0.4105
20799W        W37273  16.814   1.542   1.212  0.1480  0.1656 -0.0054
20800W        W37274   6.230   9.867   1.795 -0.2400  0.1045 -0.3428
20801W        W37275   9.267   6.004   0.013 -0.0965 -0.1479 -0.2679
20802W        W37276   8.507   4.841  13.417  0.0287 -0.0505 -0.2165
20803W        W37277   6.098   0.824   2.662 -0.1947  0.2947  0.1128
20804W        W37278  18.180   5.970   1.842  0.2104 -0.1511  0.1521
20805W        W37279   5.750  16.508   5.009  0.1070  0.1345 -0.3355
20806W        W37280  14.292  17.499  12.805  0.0546  0.1319  0.1099
20807W        W37281   1.274   8.913   1.625  0.3331 -0.1355 -0.4051
20808W        W37282   0.722  13.909   0.753  0.0878  0.1253 -0.2431
20809W        W37283  11.494  17.261   5.458 -0.1602 -0.0582 -0.0981
20810W        W37284  16.112   5.132   2.257  0.2373 -0.3914  0.0780
20811W        W37285  14.949  16.264   1.490 -0.0747 -0.1973  0.2622
20812W        W37286  14.690  13.090   3.936 -0.0533  0.0429 -0.1812
20813W        W37287   3.915  11.191  12.828 -0.1202 -0.2738  0.1866
20814W        W37288   3.338  17.826   0.063 -0.0729 -0.1030 -0.0841
20815W        W37289  11.384  12.520  14.681  0.0060  0.0205  0.1319
20816W        W37290   8.081  14.559   4.444  0.1901 -0.1444  0.1374
20817W        W37291   8.614   5.139   4.332 -0.3257  0.2441 -0.5118
20818W        W37292  11.383   6.730   4.597 -0.3652  0.0736  0.0299
20819W        W37293   6.892   6.740   0.928 -0.1694  0.2646  0.1811
20820W        W37294   7.972   3.134   2.345 -0.2834  0.2531 -0.0389
20821W        W37295   1.210  12.895   3.856 -0.0446 -0.3786  0.1656
20822W        W37296   0.586  11.926  14.719  0.1651 -0.2779  0.3821
20823W        W37297   7.930   2.592  14.092  0.2783  0.1218 -0.0221
20824W        W37298   9.320   0.277  10.267  0.0303  0.1941 -0.1048
20825W        W37299   5.845   9.548  14.138  0.3151 -0.0753 -0.2134
20826W        W37300  10.808  11.965  15.732  0.3166  0.0444 -0.0678
20827W        W37301   2.481  10.286   5.049  0.2636  0.1467 -0.1315
20828W        W37302   6.899  10.584   2.185  0.1811  0.1302  0.3399
20829W        W37303   5.828   0.929  12.521 -0.2028  0.2949 -0.0387
20830W        W37304  13.692  13.921   4.633  0.0941 -0.1398 -0.2034
20831W        W37305   6.467   5.335  15.886 -0.2628  0.0070 -0.1164
20832W        W37306  17.780   4.726   3.165  0.0760  0.0385  0.0910
20833W        W37307  16.913   4.491  12.926  0.1419 -0.0139  0.1872
20834W        W37308   6.789   3.529  14.385 -0.1388 -0.0409 -0.3464
20835W        W37309  13.260  17.634  12.955  0.2108  0.2163  0.0158
20836W        W37310   3.624   0.277   2.207 -0.0412 -0.2144  0.2795
20837W        W37311  17.071   7.626   4.664 -0.0646 -0.0494 -0.0597
20838W        W37312  18.066  17.564  15.906  0.0576 -0.2001 -0.1391
20839W        W37313  13.952  13.183  14.446 -0.1515  0.0384 -0.0880
20840W        W37314   1.670  16.816   3.817  0.1856  0.0094  0.2986
20841W        W37315   5.223  10.436   3.683  0.0612  0.1735 -0.0398
20842W        W37316   6.240   3.112   4.651  0.0628 -0.0272  0.0686
20843W        W37317   1.090  10.907   0.685 -0.1541  0.0397  0.1542
20844W        W37318   9.758  14.368  13.909 -0.3374 -0.1040  0.2036
20845W        W37319   9.466   5.915   3.080  0.1513  0.1516 -0.0129
20846W        W37320   0.583   4.611   2.951 -0.2558  0.1034  0.0541
20847W        W37321  10.281  18.443   2.325 -0.1295 -0.2833  0.1059
20848W        W37322   4.622   5.212  15.247 -0.0189  0.1699 -0.2399
20849W        W37323  18.059  10.060   2.641  0.2357 -0.1666  0.1295
20850W        W37324  18.056  17.336   3.237 -0.2159 -0.2796 -0.0366
20851W        W37325  11.014  11.399   1.375  0.2165  0.1131  0.1112
20852W        W37326  16.180  14.222  15.879  0.0111 -0.0122  0.2051
20853W        W37327   3.959   1.210  14.397  0.0404 -0.3912 -0.1126
20854W        W37328   8.979  10.616  14.548 -0.1652 -0.2986  0.2368
20855W        W37329   2.321  12.575   1.104  0.0731  0.2818 -0.0106
20856W        W37330  17.090   7.840  12.716 -0.0707 -0.3637  0.1210
20857W        W37331   7.526  16.017   2.548  0.2253  0.0065  0.1319
20858W        W37332   8.886  18.124   0.279  0.1353  0.0432 -0.0971
20859W        W37333   1.329   3.087  15.419 -0.1477 -0.4452 -0.4575
20860W        W37334   6.963  18.423  13.492 -0.2247 -0.0734 -0.0687
20861W        W37335  12.545  10.689  14.324 -0.1793  0.1066  0.0819
20862W        W37336  11.092  13.029   2.670  0.0397  0.1999 -0.2337
20863W        W37337   8.298   4.046  15.832  0.0844  0.1973  0.2165
20864W        W37338  11.973   1.801   2.420 -0.0296 -0.4252  0.0442
20865W        W37339  12.051  18.123   3.291  0.2973  0.0894  0.0777
20866W        W37340  15.592   2.352   6.110  0.3894  0.1176  0.4401
20867W        W37341   5.340   4.984  11.489 -0.1576  0.2848  0.0688
20868W        W37342  13.225  10.886   0.586 -0.1984  0.1250 -0.2565
20869W        W37343   7.199   3.925  14.836  0.1937 -0.1058 -0.0519
20870W        W37344   1.980   0.474  11.133  0.1457 -0.0699  0.2050
20871W        W37345   5.578   1.398  13.403 -0.1031  0.0440 -0.0304
20872W        W37346   7.020  11.352  11.946  0.0112  0.1704 -0.2539
20873W        W37347   0.249   9.819  12.372  0.0803 -0.0202  0.2187
20874W        W37348   8.896   0.027   2.042 -0.1526 -0.0154  0.2515
20875W        W37349  10.101  16.390  11.627 -0.1113  0.1812  0.1125
20876W        W37350  12.888   6.072  10.992 -0.2320  0.3975  0.0597
20877W        W37351   4.093   5.006   0.408 -0.0509 -0.3041 -0.2452
20878W        W37352  10.420   0.583   0.875 -0.2462  0.0791  0.0049
20879W        W37353   8.008   4.393   2.516  0.0602 -0.1431 -0.1481
20880W        W37354  14.779  18.405   2.900  0.1607  0.0557  0.0301
20881W        W37355   5.831   4.672  11.836 -0.0870  0.1083 -0.0406
20882W        W37356   3.143  10.239   5.031 -0.0364 -0.1761  0.1540
20883W        W37357  12.532  17.055  12.683  0.1073  0.4275 -0.1546
20884W        W37358   4.421   3.496   2.418 -0.2148  0.0548 -0.4537
20885W        W37359   0.717  14.744   1.955 -0.0550  0.1555  0.2022
20886W        W37360  11.569  18.358  15.151 -0.1881 -0.2087  0.0270
20887W        W37361   2.420   5.304   2.162  0.0431 -0.0117  0.0494
20888W        W37362   4.514   6.894   2.599  0.0894 -0.1578  0.3504
20889W        W37363  17.767  10.093   3.139 -0.1173  0.0066 -0.0440
20890W        W37364  11.271   2.794  10.755 -0.2857  0.0425  0.1516
20891W        W37365   0.550   2.122  11.059 -0.0529  0.0385 -0.0279
20892W        W37366  15.972  11.851  12.249 -0.0516 -0.2990  0.0047
20893W        W37367  15.319   4.886   0.561  0.1359 -0.2148 -0.0886
20894W        W37368  11.458  15.825  11.652 -0.1202 -0.1470 -0.0775
20895W        W37369  13.949   9.538   2.283  0.2554  0.0577 -0.0255
20896W        W37370  16.240   3.075   1.837  0.3166  0.2689  0.0556
20897W        W37371   2.730   0.426  15.782  0.3264 -0.2986  0.1207
20898W        W37372   1.393   0.422  11.403 -0.1185  0.1434 -0.0886
20899W        W37373  14.206   5.660   4.907  0.2967 -0.0560 -0.2938
20900W        W37374   6.434   4.019  13.801 -0.0382 -0.2038 -0.0881
20901W        W37375  10.006  15.104  12.304  0.0042  0.0564 -0.1090
20902W        W37376  18.449  12.874  14.073  0.2793 -0.0061  0.1168
20903W        W37377  11.679   1.960   3.693 -0.3881 -0.0430 -0.0123
20904W        W37378  13.662   5.070  11.821  0.0838  0.1132 -0.0276
20905W        W37379  15.187   6.873  12.251  0.2075  0.3327 -0.1098
20906W        W37380   5.351   2.914  13.403 -0.0337  0.0207  0.0286
20907W        W37381   2.132  10.954   3.815 -0.1115  0.0095  0.2723
20908W        W37382  16.353   3.864   4.865  0.0257  0.0401  0.2465
20909W        W37383  17.105  12.526   2.189 -0.0743  0.0121  0.0886
20910W        W37384  18.207  18.208   3.005  0.1225  0.0670 -0.0388
20911W        W37385   7.806   2.904   1.391  0.1228  0.0398 -0.2274
20912W        W37386   0.087   9.571   0.092  0.4089  0.2275 -0.0557
20913W        W37387   1.987  16.025  12.365  0.3115 -0.1004  0.1284
20914W        W37388   9.826   5.736  12.691  0.3488 -0.3355  0.3276
20915W        W37389  10.433  18.413  15.194  0.2884  0.1264 -0.0895
20916W        W37390   7.488   4.431   2.315 -0.0382  0.1237 -0.0643
20917W        W37391   2.265   7.400  13.129  0.3159  0.3465 -0.0511
20918W        W37392   8.294  16.535   1.644 -0.1351  0.0869 -0.0804
20919W        W37393   2.698  17.925   3.653 -0.1764 -0.1586 -0.1326
20920W        W37394   8.885  12.684   0.509  0.0527 -0.0400  0.3229
20921W        W37395   7.050  13.729  11.472 -0.0246  0.2482 -0.0637
20922W        W37396   1.143   4.263  14.573  0.2053 -0.0794  0.4007
20923W        W37397  16.444   0.244   3.742 -0.1121 -0.0182  0.0854
20924W        W37398  13.586   1.123   3.096 -0.1272  0.1690 -0.0828
20925W        W37399   7.932   8.517   0.616 -0.0174  0.3238 -0.0469
20926W        W37400   1.576  14.491   2.956 -0.2730 -0.0868 -0.0262
20927W        W37401  10.398   8.394  11.958  0.0706  0.1401 -0.0405
20928W        W37402  16.031   6.062   2.292  0.1394 -0.5177  0.1959
20929W        W37403   9.802  10.912   2.827  0.1620 -0.0948 -0.0320
20930W        W37404   8.918  17.326   3.728  0.0575  0.4501  0.2465
20931W        W37405   9.324   8.919   0.387 -0.0587  0.1325 -0.0021
20932W        W37406  18.242   4.893   2.537 -0.0477 -0.3629  0.1512
20933W        W37407   4.191   4.317  12.219  0.1480 -0.0421 -0.0324
20934W        W37408  13.881  10.036  12.702  0.0123 -0.0838  0.3027
20935W        W37409   6.113   1.473  13.525  0.0074  0.1689  0.1199
20936W        W37410   9.530  15.897  14.557 -0.0296  0.2281  0.0455
20937W        W37411  18.100  11.785   1.827  0.0109 -0.0512  0.1767
20938W        W37412  17.984  11.505   4.057 -0.0210  0.3352 -0.0207
20939W        W37413   1.128   3.232  12.964  0.1957 -0.2227 -0.1047
20940W        W37414   9.168   3.976  15.493  0.0050 -0.2805 -0.2834
20941W        W37415   6.733  17.975  13.586  0.1592  0.0104 -0.1615
20942W        W37416   1.944   5.277   4.657 -0.1390  0.1775  0.0903
20943W        W37417   0.068  11.612  14.384  0.0756  0.2361  0.1399
20944W        W37418   6.119   4.070  14.831  0.1220  0.2055  0.2598
20945W        W37419   2.404  13.249  12.859  0.2449  0.1271  0.0136
20946W        W37420  12.601  16.107  10.819 -0.5041  0.2413 -0.0439
20947W        W37421  13.291  10.870   6.081 -0.0811 -0.0372 -0.2045
20948W        W37422   0.843  12.753  11.104  0.0649 -0.2406  0.0691
20949W        W37423   7.286   8.020  15.844 -0.0121  0.2150  0.3849
20950W        W37424   3.832  11.644  15.179 -0.2155 -0.0072 -0.1839
20951W        W37425   6.337   0.189  15.192 -0.0916  0.1724  0.0627
20952W        W37426   5.678   5.343  13.030 -0.2855 -0.1493 -0.1849
20953W        W37427  11.556  16.121  10.841 -0.0135 -0.3818 -0.3326
20954W        W37428   7.888   0.862  13.482  0.0483  0.3449  0.0217
20955W        W37429  15.473   8.641  15.821  0.0157 -0.0034 -0.0939
20956W        W37430   2.277  18.300  14.352  0.1150  0.1053 -0.2294
20957W        W37431  16.085  15.987  13.532  0.1811 -0.1154  0.1766
20958W        W37432  14.693   9.823   1.463  0.0009 -0.2387 -0.2727
20959W        W37433  16.750  13.588  11.576 -0.1255 -0.0840  0.0674
20960W        W37434   2.823  10.003   0.036  0.0554  0.1662  0.2540
20961W        W37435   9.803  16.085   0.203  0.2162  0.3219 -0.1148
20962W        W37436  16.950  12.451   4.473 -0.0818 -0.1469 -0.2672
20963W        W37437   3.295  12.353   3.120 -0.1845 -0.1410  0.0888
20964W        W37438  10.559   8.033   5.404 -0.1844 -0.0883 -0.2834
20965W        W37439   8.817  16.957   1.841  0.2858  0.1306 -0.0544
20966W        W37440   9.770   2.586   3.132  0.1656 -0.0981  0.0331
20967W        W37441   2.845   7.612  15.074  0.1829  0.0823  0.2679
20968W        W37442   7.899  14.138   1.162  0.0119  0.1399 -0.0953
20969W        W37443   6.427  10.760   2.119  0.2553  0.2044 -0.1684
20970W        W37444  15.086  17.340   1.970  0.1434 -0.0243  0.3693
20971W        W37445   1.849  11.930  14.326  0.0221  0.2890  0.5196
20972W        W37446  12.829  13.312   5.726 -0.2392 -0.1871  0.0407
20973W        W37447   3.661  16.893   5.112  0.2520  0.0557  0.1821
20974W        W37448  17.477   5.018  15.624  0.1923  0.0199  0.2085
20975W        W37449   5.718   4.842   4.608  0.3030  0.0085  0.4881
20976W        W37450  12.719  12.843   5.890 -0.0843  0.0199  0.1251
20977W        W37451  10.378   6.807   4.678 -0.0321 -0.1147  0.4034
20978W        W37452  12.500  11.697  11.737 -0.1893 -0.2974  0.1162
20979W        W37453   3.409  10.827  12.308  0.0041  0.2684 -0.1596
20980W        W37454   5.203   6.275  12.543  0.0098 -0.1334 -0.1276
20981W        W37455  14.538   6.309  14.240  0.0241 -0.2952 -0.1779
20982W        W37456   0.359   3.778  14.667 -0.1774  0.2902  0.0530
20983W        W37457   1.308  12.883  11.221 -0.0835  0.1566 -0.1593
20984W        W37458   9.175  12.369   3.252  0.1700 -0.1596 -0.1600
20985W        W37459  15.188  11.268  11.242  0.0400  0.4341  0.0274
20986W        W37460  16.233  15.900   3.818  0.1130 -0.2459  0.1170
20987W        W37461   8.088  17.243  10.785  0.0877  0.1498  0.1243
20988W        W37462  15.617   8.779  14.738  0.1778 -0.0377  0.0027
20989W        W37463   5.383  17.134   2.420  0.1183 -0.0937 -0.1197
20990W        W37464  17.768   5.374   1.037 -0.0726  0.3094  0.0985
20991W        W37465  17.601  17.340  15.649 -0.2875  0.0722 -0.0946
20992W        W37466   1.009   3.627   3.870  0.0548 -0.3122 -0.0403
20993W        W37467   6.713  17.035   2.114 -0.1310 -0.0890  0.2896
20994W        W37468  13.055   3.752  14.110 -0.1853  0.1700  0.1867
20995W        W37469   3.360  11.857  11.344  0.0132 -0.0575 -0.3915
20996W        W37470  16.086   5.315   5.313  0.0627  0.4494  0.3216
20997W        W37471   9.313  16.769   1.923 -0.0288  0.1129  0.3995
20998W        W37472   1.048   2.854  13.521  0.2125 -0.1266 -0.1214
20999W        W37473   2.559  14.401   1.197 -0.3160  0.0331  0.0128
21000W        W37474   5.722   6.510   1.530 -0.1003 -0.1703  0.3609
21001W        W37475   4.373  15.869  12.391  0.0042 -0.0818  0.1053
21002W        W37476   5.389   8.323   3.658 -0.1022  0.0839 -0.2244
21003W        W37477  14.775   0.809   0.929  0.1870 -0.0701  0.0234
21004W        W37478  10.173   1.956  12.445 -0.1501 -0.2652 -0.0324
21005W        W37479  10.610   5.261  12.672  0.2072  0.0356  0.1454
21006W        W37480  12.276   7.677  12.309  0.1731  0.0440 -0.2422
21007W        W37481  13.181   6.815  13.604 -0.3174 -0.1646 -0.0659
21008W        W37482  17.473   3.906   2.923  0.0545 -0.0946 -0.2663
21009W        W37483   8.476  10.500  13.291  0.1297 -0.0646  0.0033
21010W        W37484   3.019   6.110   1.266 -0.4638  0.1610 -0.0383
21011W        W37485  14.455   4.994   2.609  0.0593  0.0363  0.1069
21012W        W37486   3.401   8.038  12.233 -0.1402  0.1649 -0.0625
21013W        W37487  16.844  13.605  11.122 -0.1373  0.1762  0.0324
21014W        W37488   9.947   2.473  10.950 -0.0296 -0.2928 -0.2319
21015W        W37489   3.808  13.860   2.801  0.1121 -0.2780 -0.2374
21016W        W37490   9.191   7.088   2.386 -0.1198 -0.2345 -0.1232
21017W        W37491   5.189   9.485   5.339 -0.1254 -0.0116  0.0148
21018W        W37492  17.882   4.390   5.546  0.3599 -0.1346  0.1285
21019W        W37493  12.635  15.875   1.218 -0.3558  0.1006  0.1606
21020W        W37494   6.226   8.682  11.454 -0.0357  0.2972 -0.0006
21021W        W37495  14.299  12.160  14.916 -0.0442  0.1801 -0.4969
21022W        W37496   0.677   6.042  14.134  0.2725 -0.0377 -0.2123
21023W        W37497   7.049   3.036  14.190 -0.2218 -0.0653 -0.1105
21024W        W37498   2.213   2.778   0.569 -0.1011  0.1362 -0.1767
21025W        W37499   8.419  10.722  15.719  0.0971 -0.4074 -0.1298
21026W        W37500   5.636  13.096   5.561  0.2444  0.1135 -0.1656
21027W        W37501   5.085   8.440  15.360  0.0867 -0.0891 -0.1654
21028W        W37502   2.458  13.664  12.206 -0.0806  0.1771  0.1220
21029W        W37503   5.200   9.040  15.741 -0.1184 -0.1545  0.2623
21030W        W37504  12.271   1.440  12.146 -0.0295 -0.3395 -0.1647
21031W        W37505  11.579   5.677   4.111  0.3108 -0.1327  0.0785
21032W        W37506   2.574   6.799   0.910  0.1132 -0.1093 -0.0121
21033W        W37507  15.522  15.084   1.713  0.0450 -0.5052  0.0942
21034W        W37508   9.418   2.934  10.563 -0.4298  0.0679 -0.0443
21035W        W37509   5.905   4.649   4.111  0.2334 -0.3863 -0.0096
21036W        W37510   6.847   9.263  15.457  0.1973 -0.0565 -0.0758
21037W        W37511   6.595   0.334   5.398  0.0732  0.2364  0.2842
21038W        W37512   5.275  14.246   5.270  0.0340 -0.2527 -0.3786
21039W        W37513   2.689   6.379   2.444  0.0881  0.2009  0.2240
21040W        W37514   6.351   0.774   1.421 -0.0021 -0.1330 -0.0134
21041W        W37515  14.900   6.093   1.117  0.1750 -0.2983  0.0990
21042W        W37516   3.434   8.207   4.720 -0.0452 -0.1387  0.3532
21043W        W37517   2.419  13.868  14.452 -0.0521 -0.1561  0.1121
21044W        W37518  18.374  17.587   0.818  0.0612 -0.0925 -0.3384
21045W        W37519   2.464  15.791   2.084 -0.1177  0.0756 -0.5209
21046W        W37520  11.338  11.088  13.399  0.0412  0.1067  0.1325
21047W        W37521  15.034   4.506   2.191  0.0248  0.1463  0.0333
21048W        W37522  12.921   4.893  13.552 -0.0148  0.0048 -0.2230
21049W        W37523  14.058   9.923  15.568  0.1609  0.1702  0.2860
21050W        W37524  17.655  10.355   4.624  0.0632  0.2659  0.1563
21051W        W37525   1.641   5.202  12.111 -0.3177 -0.0880  0.0339
21052W        W37526  11.232  11.383  15.381 -0.5570  0.1878  0.0813
21053W        W37527  11.050  14.101  13.843  0.0570  0.0237  0.0869
21054W        W37528   3.032   9.138   0.032 -0.2140  0.4526 -0.0961
21055W        W37529  11.086  16.641   1.480 -0.1365  0.3582  0.1465
21056W        W37530   3.419  10.944  13.525 -0.0701 -0.1161 -0.2212
21057W        W37531  12.116  13.668   2.222  0.1463  0.0991 -0.0426
21058W        W37532   0.441  14.813  14.504  0.2584  0.3707 -0.1427
21059W        W37533  14.645   1.073  14.499  0.2344  0.0371  0.0147
21060W        W37534   7.682  12.400  14.913 -0.1908  0.1535  0.0279
21061W        W37535   2.851   3.944  11.341  0.0155 -0.0039 -0.2205
21062W        W37536   4.944  16.773   1.318 -0.1092  0.1557 -0.1391
21063W        W37537  10.924  11.077  12.315  0.1619  0.0126 -0.0177
21064W        W37538   2.498   5.851  15.287 -0.1243  0.0911 -0.0814
21065W        W37539   4.758   8.017   2.569 -0.0763  0.1913  0.2484
21066W        W37540  10.823  11.041   3.819 -0.4135  0.0276 -0.0821
21067W        W37541  10.844  15.756   2.220 -0.0219  0.2294 -0.1084
21068W        W37542   8.067   2.093  12.481  0.0571  0.2259  0.0801
21069W        W37543  17.409   2.297   2.967  0.2475 -0.1112 -0.0565
21070W        W37544   7.083   7.098   0.138 -0.0392 -0.2101  0.3155
21071W        W37545  17.916  16.922   2.396  0.2600 -0.0399  0.0804
21072W        W37546  15.337   8.665   3.921 -0.3234  0.0174  0.0058
21073W        W37547   6.942   7.367  13.068 -0.0426  0.2270 -0.0526
21074W        W37548   9.876   8.323  12.328  0.1757 -0.0729  0.0221
21075W        W37549   4.825  14.049   2.293 -0.2465  0.3146 -0.0207
21076W        W37550   3.607   0.475  11.903  0.0384  0.0271 -0.1506
21077W        W37551   9.505  12.973   4.058  0.1973  0.0414  0.3929
21078W        W37552   0.443   0.680   4.730 -0.1550 -0.0802 -0.1315
21079W        W37553   4.888   0.351   3.931  0.1853 -0.2796  0.0273
21080W        W37554   4.272   5.726   3.587 -0.1272  0.2433 -0.1970
21081W        W37555   6.799   6.849  12.097 -0.1727  0.1012  0.2582
21082W        W37556   1.029  15.145  12.092  0.2098  0.2040 -0.0075
21083W        W37557  11.642  17.788   2.729  0.0008 -0.0795 -0.0204
21084W        W37558   9.808   5.597  14.673 -0.1647 -0.0336  0.1040
21085W        W37559  10.332  18.072  11.116  0.1438  0.3813 -0.0771
21086W        W37560  12.745  11.305  15.070 -0.0466 -0.1729  0.2409
21087W        W37561  12.822   7.522   0.950  0.2675  0.0703 -0.1068
21088W        W37562   0.822  13.499   2.412  0.2992  0.0276  0.3533
21089W        W37563  18.303   5.879  13.638 -0.2227  0.1154 -0.0837
21090W        W37564   7.205  10.024  12.179 -0.4261 -0.2012 -0.0970
21091W        W37565   0.510   2.759   1.171  0.0382 -0.1816 -0.0033
21092W        W37566   3.866  14.094  12.330 -0.0848 -0.4460  0.2729
21093W        W37567  15.193  13.439   2.510 -0.0282  0.2370  0.0776
21094W        W37568   5.667   3.482  11.330 -0.2125  0.0363 -0.2451
21095W        W37569   7.838   3.155  12.057 -0.0238 -0.3552  0.1195
21096W        W37570  14.323   9.990  11.516 -0.1722  0.1687 -0.2206
21097W        W37571   7.529   7.719   2.358  0.1888 -0.1597 -0.2288
21098W        W37572   5.613   4.320  13.819 -0.0506 -0.0217  0.0870
21099W        W37573  11.310   2.173  15.350  0.3073  0.0078 -0.2180
21100W        W37574  15.296  14.131  15.289  0.4900 -0.0423  0.1879
21101W        W37575   4.516   7.113   2.134  0.2587 -0.1835 -0.1594
21102W        W37576   6.023  17.628   1.698  0.4797  0.3128  0.1939
21103W        W37577   6.881   7.437   3.624 -0.1381  0.3248 -0.0742
21104W        W37578  13.844   0.131  13.599 -0.1800  0.2935 -0.2342
21105W        W37579   1.689   4.641  12.026 -0.0020 -0.1061 -0.0885
21106W        W37580   2.590   6.934   2.528  0.2658  0.3109 -0.0001
21107W        W37581   2.261   1.934   4.402  0.0829  0.2088 -0.0707
21108W        W37582  12.653   7.382  13.357 -0.1115 -0.0118 -0.0299
21109W        W37583  10.940  17.925   1.872  0.0455 -0.3734  0.3769
21110W        W37584   7.700   5.103   5.381 -0.2377  0.3889 -0.1870
21111W        W37585  13.786   9.236  11.938 -0.0563  0.2248 -0.0746
21112W        W37586   0.208   7.682   2.200  0.1046  0.4267 -0.3154
21113W        W37587  14.581   0.562   3.541 -0.0563 -0.2489 -0.2731
21114W        W37588   3.794  17.719   4.943  0.0206 -0.1406 -0.1074
21115W        W37589  13.260   1.641   4.099 -0.0447 -0.2948 -0.1932
21116W        W37590  17.325  13.744  14.991  0.4517  0.0705  0.0007
21117W        W37591  18.389  17.586  14.447  0.0506  0.1157 -0.1079
21118W        W37592  12.898   0.515   5.036 -0.3386 -0.0790  0.2089
21119W        W37593  17.497  12.326  10.150  0.1813 -0.1220  0.0328
21120W        W37594  13.342   4.353  13.537 -0.1416  0.2253  0.1530
21121W        W37595  13.641   9.514   4.192  0.1336  0.1032 -0.0556
21122W        W37596   4.839  15.396   1.575 -0.0392 -0.0519  0.1373
21123W        W37597   8.909   0.550   5.313  0.2139 -0.0074  0.0605
21124W        W37598   1.002   2.384   1.133  0.1607  0.3233 -0.0784
21125W        W37599   6.791   4.504  14.393  0.3498  0.0786  0.2114
21126W        W37600  16.705  11.149   3.973  0.0203  0.2669 -0.0887
21127W        W37601   3.258   3.625  14.950 -0.0065  0.1394 -0.1208
21128W        W37602   4.455   6.489  15.047  0.3335 -0.3654 -0.0496
21129W        W37603  15.458   6.908  14.119 -0.0698  0.2552  0.2797
21130W        W37604   0.020   7.202  13.618 -0.2299  0.2315 -0.2001
21131W        W37605   9.728  14.058   1.237 -0.0336 -0.0931  0.0626
21132W        W37606  12.226  16.768   3.907 -0.0544  0.0272  0.0429
21133W        W37607  15.557   9.501  12.195 -0.0951 -0.2229 -0.0126
21134W        W37608  11.506  15.868  14.530 -0.3334  0.3362  0.0092
21135W        W37609   1.544   4.732  10.614  0.1291 -0.0360 -0.1687
21136W        W37610  16.239  16.826   3.141 -0.2708  0.0534  0.1672
21137W        W37611   0.410  11.785   1.181  0.0739  0.0691 -0.1835
21138W        W37612   6.538  12.462  13.933  0.1683  0.0688 -0.0635
21139W        W37613   0.117  11.017  11.800  0.1660 -0.0169 -0.0214
21140W        W37614   1.331   0.882   2.264  0.0498 -0.3044 -0.1691
21141W        W37615   5.541  12.190  11.428 -0.1195 -0.1063  0.2760
21142W        W37616   3.346   2.807   1.959  0.0650  0.0794 -0.0101
21143W        W37617  14.524  12.701   1.717 -0.1037 -0.1968  0.0078
21144W        W37618   8.564  18.209   2.312 -0.1164 -0.0150 -0.1482
21145W        W37619  15.152   9.844  10.018  0.0152  0.0683  0.3653
21146W        W37620   4.936   6.780   2.236  0.2984 -0.2317 -0.0675
21147W        W37621   5.787   2.691   5.263  0.2151  0.0032 -0.4214
21148W        W37622  15.770  17.190  11.169 -0.0650  0.0255 -0.0369
21149W        W37623  14.007   9.180  12.815  0.2837 -0.0503  0.2842
21150W        W37624   5.627   1.871   0.891  0.0844  0.1197  0.0676
21151W        W37625  18.446  12.178  15.544  0.3375  0.2466 -0.2713
21152W        W37626   5.360  11.744   1.189  0.1028 -0.2992  0.2063
21153W        W37627  14.854  15.131   4.537 -0.0940  0.3940 -0.0909
21154W        W37628   7.101   0.288   5.462  0.4150 -0.0584  0.3542
21155W        W37629  12.493   8.975   5.370  0.0270  0.0123 -0.0588
21156W        W37630   3.509  17.319  13.989 -0.3633 -0.1943  0.2056
21157W        W37631   2.568   0.765  13.617  0.3890 -0.3384 -0.2515
21158W        W37632  12.422   2.469   3.567 -0.1838  0.2345  0.3468
21159W        W37633  17.768  10.474  10.393  0.1631 -0.0727  0.0907
21160W        W37634  16.778   3.656  12.697 -0.1368  0.2768 -0.0086
21161W        W37635  12.207  16.644   4.397 -0.0002  0.1897 -0.2262
21162W        W37636  11.064   9.899   1.623 -0.2293  0.1542  0.0352
21163W        W37637  10.797  12.585  15.225 -0.0489 -0.1331 -0.2014
21164W        W37638  17.989   1.949   1.101  0.0660  0.0947 -0.1051
21165W        W37639  12.013  18.473   0.428 -0.2065 -0.4872 -0.1475
21166W        W37640   3.925  14.150  13.036 -0.1326 -0.1157  0.2002
21167W        W37641   0.305  12.672   1.012 -0.1594  0.0625 -0.1215
21168W        W37642  12.520   9.638   2.127 -0.0011 -0.0481  0.1524
21169W        W37643  14.324   3.298  14.408 -0.0984 -0.2951 -0.0990
21170W        W37644   8.155   4.559  14.038 -0.0177  0.1057  0.1482
21171W        W37645   4.204   2.883  15.041  0.2063  0.2247  0.2225
21172W        W37646  16.207  11.927   0.251  0.0858 -0.0849  0.3468
21173W        W37647   5.861   7.392  14.972  0.0021 -0.2876  0.0021
21174W        W37648   8.710   6.902   2.478 -0.0490  0.1067  0.2362
21175W        W37649  16.096   5.886  12.168  0.1160  0.1036  0.1078
21176W        W37650  15.164  12.887  12.119  0.2004  0.2480  0.1088
21177W        W37651   3.822  13.556  13.808 -0.1291  0.1268  0.3083
21178W        W37652   1.733  16.884   1.875  0.1742 -0.0193  0.0047
21179W        W37653   4.243  11.291   0.262  0.0884 -0.1102 -0.0925
21180W        W37654   8.615  12.768  13.988  0.3542 -0.1605 -0.0776
21181W        W37655   5.596   8.381   2.706  0.2121 -0.0459 -0.1801
21182W        W37656   8.772  13.665  13.822 -0.1058  0.0456 -0.0508
21183W        W37657  15.012  17.068   1.015 -0.0347 -0.0355 -0.3658
21184W        W37658   9.259  11.627  13.535 -0.0780 -0.1462  0.0566
21185W        W37659  10.131  12.974   3.196 -0.1618 -0.0807 -0.3917
21186W        W37660  15.485  17.095   3.186  0.2579 -0.3010 -0.0903
21187W        W37661  12.815  11.286   4.014 -0.0106  0.0913 -0.1069
21188W        W37662  11.604   2.774   1.008  0.1560  0.3761 -0.1159
21189W        W37663   3.600  12.249   4.811  0.0409 -0.3590  0.0163
21190W        W37664  14.633   9.613  13.908  0.3009  0.2787  0.2006
21191W        W37665  16.064   8.280   5.239 -0.1754  0.0662 -0.0473
21192W        W37666   4.319  18.293   9.836  0.0305 -0.1984  0.1894
21193W        W37667   0.189   5.263   2.370 -0.0185 -0.3851 -0.0889
21194W        W37668   2.143   8.541  12.214  0.1729 -0.2345  0.1138
21195W        W37669   6.032  17.935  12.884 -0.1617  0.4652 -0.1579
21196W        W37670   8.480  13.890  11.450 -0.0956  0.2447  0.3537
21197W        W37671  10.954   9.051  15.453 -0.0343  0.2166  0.3227
21198W        W37672  12.602   6.437   5.642 -0.1048  0.1444 -0.2050
21199W        W37673  16.498   5.087   1.064 -0.0872  0.0029  0.0447
21200W        W37674   9.680   2.238   1.707  0.4180 -0.0252 -0.5225
21201W        W37675   3.822   9.127   5.329  0.2176  0.1417 -0.0658
21202W        W37676  18.022   5.155   2.926 -0.0636 -0.2213 -0.5845
21203W        W37677   7.594  13.540  11.393 -0.2448 -0.0873 -0.1223
21204W        W37678   3.679   0.449  15.092 -0.0578  0.0094  0.0280
21205W        W37679  11.349  17.650  10.864 -0.0360  0.2793 -0.1211
21206W        W37680   0.825  14.435  11.266  0.0270 -0.0574  0.5002
21207W        W37681   3.432  10.673   5.335 -0.2000 -0.0607  0.2286
21208W        W37682  15.091   4.300   0.484 -0.2288 -0.0624  0.1792
21209W        W37683  13.191  12.147   1.036 -0.1290 -0.2287 -0.0537
21210W        W37684   8.832  17.323  14.245  0.0029 -0.1031 -0.0558
21211W        W37685  14.924   7.978  11.386 -0.0311  0.0134  0.1762
21212W        W37686  13.288  11.254   0.946 -0.1085  0.0188  0.0196
21213W        W37687  12.095   3.732   1.338  0.0848  0.1239  0.0591
21214W        W37688   9.588  16.372  11.120  0.1445  0.2647 -0.1454
21215W        W37689   9.593   9.120   5.356  0.0417 -0.0087  0.1126
21216W        W37690   0.830  11.380  15.789 -0.2128  0.0349  0.0557
21217W        W37691  16.579   7.461  13.766  0.3893 -0.0764 -0.1681
21218W        W37692   0.264  13.445  13.593  0.2961 -0.0752 -0.0750
21219W        W37693   7.561   5.184   1.880 -0.1219  0.0546 -0.1550
21220W        W37694   0.166  13.985  15.201  0.1472  0.1632  0.2634
21221W        W37695   3.783   6.064  10.528  0.0291 -0.0309 -0.1068
21222W        W37696  18.016   5.611  15.939 -0.0999 -0.2113 -0.2074
21223W        W37697  13.896  15.395  15.075 -0.0307  0.1362  0.3156
21224W        W37698   8.932   3.043   3.287  0.0098 -0.3996  0.0701
21225W        W37699   1.342  15.155  15.401  0.1047 -0.0369  0.0439
21226W        W37700   5.077   2.328   1.802  0.1391 -0.4387 -0.3363
21227W        W37701   5.989  11.934  11.452 -0.1041 -0.1694 -0.1752
21228W        W37702   6.824   7.445  14.689  0.1114  0.0405  0.1975
21229W        W37703  10.701  10.747  11.315 -0.5615 -0.0818  0.0144
21230W        W37704   2.254  15.976  11.465 -0.0317 -0.1003  0.0552
21231W        W37705  11.131   7.962   2.262 -0.1243  0.3607  0.0057
21232W        W37706  11.314  12.124  15.886  0.0202  0.1522 -0.0937
21233W        W37707   9.246  17.895  12.179 -0.0387 -0.2272 -0.0637
21234W        W37708  12.360   0.597   1.845 -0.1457 -0.0609  0.1036
21235W        W37709   6.512   4.587   0.574  0.2319  0.1877 -0.1844
21236W        W37710   3.610  13.285   3.527  0.2215 -0.2114 -0.4439
21237W        W37711  18.097  15.718   3.990  0.2204  0.0256 -0.3242
21238W        W37712   3.840   2.002  12.617 -0.0252 -0.0239 -0.2484
21239W        W37713   2.601   1.364  12.257  0.1358 -0.1013  0.0394
21240W        W37714  11.763   7.739  14.486  0.1318 -0.1381  0.1024
21241W        W37715  12.214   7.997   4.349 -0.0952 -0.0095  0.1906
21242W        W37716   4.032   0.003   4.699 -0.0383 -0.0823  0.0508
21243W        W37717  12.363   1.823   2.805 -0.1828 -0.0277 -0.4632
21244W        W37718  14.283  17.183  14.079  0.1782  0.3075 -0.2562
21245W        W37719  17.606   5.634   4.336  0.1696 -0.3961 -0.0724
21246W        W37720  17.071  12.042  12.866 -0.1090 -0.0923 -0.2950
21247W        W37721  17.748  12.692  13.087 -0.1147 -0.1292  0.2006
21248W        W37722   9.466  14.327   2.210 -0.1508  0.2167 -0.2566
21249W        W37723   8.696   1.342   9.949 -0.0869  0.0934 -0.1032
21250W        W37724   1.801   8.533   1.001  0.5196 -0.0128  0.2403
21251W        W37725   5.127   7.353  14.724 -0.1579 -0.0750 -0.0133
21252W        W37726  15.788   3.713  11.291  0.1111  0.1347  0.1002
21253W        W37727  12.281  15.885   0.622 -0.0785 -0.0380 -0.0856
21254W        W37728   6.550   2.692  12.216  0.1052  0.0613 -0.0708
21255W        W37729   5.854  10.815  14.642 -0.0754 -0.3201 -0.3490
21256W        W37730  13.920  12.716   3.573  0.1632  0.0715  0.1595
21257W        W37731   8.508  16.723   0.012 -0.3049 -0.1243  0.3534
21258W        W37732   1.781   7.413   5.439  0.1280 -0.2104  0.1709
21259W        W37733   8.911  17.483   3.214  0.1553 -0.1330  0.0090
21260W        W37734  11.735   9.815   3.279 -0.3453 -0.1752 -0.1067
21261W        W37735  12.868   9.555   2.462 -0.1680  0.1265 -0.1614
21262W        W37736  17.524  11.852  14.460  0.1243 -0.0235  0.0728
21263W        W37737   5.767   6.430  12.337 -0.0238 -0.0053  0.0058
21264W        W37738   0.604   7.507  14.474  0.0854 -0.2385  0.0386
21265W        W37739  14.476   3.797  11.418 -0.2986  0.1505  0.0732
21266W        W37740   0.398  18.361   0.500 -0.0751  0.1635  0.3716
21267W        W37741  12.875  12.103  11.864  0.0313  0.2969 -0.0111
21268W        W37742   3.244   1.929   3.621  0.1313 -0.1444 -0.1052
21269W        W37743   4.023   4.039   2.362 -0.0026 -0.3428  0.2172
21270W        W37744  16.230  11.792   3.060 -0.0536 -0.2505  0.1338
21271W        W37745  15.366  11.224   3.646 -0.1214  0.2156 -0.0797
21272W        W37746   5.153  16.774  11.534  0.0921 -0.1121  0.0996
21273W        W37747   0.867   5.796   4.241 -0.1784  0.1832 -0.2050
21274W        W37748  17.901  13.990   1.451 -0.2191  0.2961  0.1188
21275W        W37749   3.614  12.616   5.209 -0.2016 -0.2842  0.1666
21276W        W37750  18.439  10.778   0.023 -0.1929  0.2873 -0.2536
21277W        W37751  17.059   6.863   4.392  0.2592 -0.0753  0.0728
21278W        W37752   1.505  12.810   5.747  0.0085 -0.0900 -0.2031
21279W        W37753   2.083   2.024  15.657  0.1423  0.0550  0.0201
21280W        W37754   9.023   6.642   0.363 -0.0244 -0.1341 -0.0407
21281W        W37755   5.609  15.092   3.282  0.0345 -0.2273 -0.0030
21282W        W37756   1.503   5.435   2.623 -0.1593 -0.1007  0.0784
21283W        W37757   7.942   7.612  14.314  0.0692  0.2176 -0.0303
21284W        W37758  18.109  12.415   3.010  0.1597  0.2164 -0.0156
21285W        W37759  14.701   5.361  12.878 -0.1512 -0.0918  0.0762
21286W        W37760  10.399   8.495   3.178  0.0387 -0.0052 -0.1802
21287W        W37761  18.361  13.298   4.911 -0.0723 -0.1476  0.0137
21288W        W37762  14.012   3.407   5.955  0.1240 -0.0705 -0.0168
21289W        W37763  15.109   0.093  13.704  0.1271 -0.0259  0.2268
21290W        W37764   2.544   0.633   2.895 -0.0275  0.0383 -0.1321
21291W        W37765   1.462   2.400   5.054 -0.2295 -0.3754 -0.1711
21292W        W37766   6.926   3.361   2.627 -0.1195 -0.0850 -0.0869
21293W        W37767   0.049  10.106  15.872  0.1185  0.2013  0.0669
21294W        W37768  10.897   4.113   0.094 -0.0621 -0.1960  0.1212
21295W        W37769   3.863   9.803   1.419 -0.0153  0.1799  0.0557
21296W        W37770   3.424  10.349   1.928 -0.0397  0.0438  0.0289
21297W        W37771  10.058  16.368   1.857  0.2528  0.0781  0.1914
21298W        W37772   5.692   2.430   0.687 -0.1747 -0.4932  0.0312
21299W        W37773   7.610   8.303  13.119  0.2585  0.1929  0.0035
21300W        W37774  12.382  13.076   5.564 -0.3720  0.1213  0.1472
21301W        W37775  16.575  11.969  13.700  0.0923  0.1917 -0.0553
21302W        W37776   9.154   9.898   4.149  0.2231  0.2832  0.1576
21303W        W37777  15.627   6.205   1.976  0.2005  0.1330  0.2514
21304W        W37778   7.193  15.747   3.275  0.0567  0.1330  0.2166
21305W        W37779   8.446  10.271  15.882 -0.0538  0.2204 -0.2601
21306W        W37780  11.274   3.747  12.142  0.2575 -0.1118 -0.2015
21307W        W37781  11.264  18.458   2.545  0.0908 -0.1026  0.0612
21308W        W37782  13.883   1.719  15.019  0.0618  0.0707  0.0866
21309W        W37783  11.310  16.382   5.242  0.2719 -0.1474  0.1593
21310W        W37784  11.483  11.841   4.096 -0.0746 -0.0179 -0.3632
21311W        W37785   7.045  16.981   0.052 -0.0365  0.2676  0.1034
21312W        W37786   1.474   3.723   4.547 -0.1227 -0.1315 -0.0388
21313W        W37787   8.858   8.885   3.436 -0.1296 -0.0720 -0.3528
21314W        W37788  17.192  10.343   4.458  0.0020 -0.2238 -0.0870
21315W        W37789   1.157  15.602  12.759  0.1528  0.1842 -0.0101
21316W        W37790  13.436   7.930   4.403 -0.2379 -0.0213 -0.1137
21317W        W37791  14.401   7.844  14.647  0.0472 -0.0929  0.0548
21318W        W37792   3.596   6.398  10.892  0.0365  0.0661 -0.0483
21319W        W37793   4.414   5.255   3.508 -0.2017  0.1439  0.1696
21320W        W37794  11.406  15.286  13.789 -0.3508 -0.2863  0.0282
21321W        W37795  13.331  14.492   2.941 -0.0672 -0.3153 -0.2540
21322W        W37796   0.075  13.634   1.988  0.2221  0.1470  0.4113
21323W        W37797   6.305   8.491   2.329 -0.3536  0.0014 -0.0520
21324W        W37798  15.213  12.729   5.440 -0.1157  0.1092  0.0761
21325W        W37799   3.760   2.800   2.813  0.0829  0.1110  0.3155
21326W        W37800   8.391  16.380  13.513 -0.2799  0.1712  0.0091
21327W        W37801  13.751  15.541  13.540 -0.1713 -0.0290  0.2800
21328W        W37802   1.149  13.365   4.694  0.1218 -0.3768  0.2891
21329W        W37803   9.150   6.879   3.949 -0.1319 -0.2247 -0.2570
21330W        W37804  14.907   3.179   3.070 -0.0644  0.0593 -0.1962
21331W        W37805  11.925   5.794  11.539  0.1052  0.0249  0.0296
21332W        W37806   8.173  17.383  12.491 -0.1780  0.2346  0.0503
21333W        W37807  14.336   1.333   2.942 -0.0361  0.0150 -0.0783
21334W        W37808  15.410   3.009   3.006  0.0515 -0.0941  0.0245
21335W        W37809   1.227   5.668   1.143 -0.1391  0.0585  0.2348
21336W        W37810   9.804   5.736  11.642  0.0875  0.5135  0.0522
21337W        W37811   3.622   5.077  13.844 -0.1642  0.2738  0.1352
21338W        W37812  10.420  17.300   5.481 -0.0210  0.2197  0.1214
21339W        W37813  12.657   3.164  10.859 -0.0304 -0.4612 -0.0069
21340W        W37814   9.200  16.641   3.334  0.0610 -0.2913 -0.1653
21341W        W37815   4.569   5.279   2.604  0.1655 -0.1034  0.2956
21342W        W37816   2.917   3.154   1.201  0.1868 -0.1119  0.1380
21343W        W37817   6.219   2.206   2.542  0.0061  0.1265  0.2221
21344W        W37818   6.120   8.366   4.832  0.2585  0.2550 -0.2425
21345W        W37819  13.488  10.213   1.877 -0.1021 -0.2311  0.1619
21346W        W37820  16.159   5.566   1.032 -0.3583 -0.1258 -0.1303
21347W        W37821   4.931   8.561   0.435  0.4327  0.0610  0.1359
21348W        W37822   1.339  10.778   0.089 -0.0909  0.0860  0.1849
21349W        W37823  12.595  17.030   0.824  0.0716 -0.2975 -0.1806
21350W        W37824   7.773  13.914   2.764 -0.0142 -0.1349 -0.2503
21351W        W37825  13.401  16.340  12.921 -0.1148  0.0981  0.0934
21352W        W37826  15.149   0.374   0.404  0.0629 -0.0848  0.2720
21353W        W37827   1.701   0.907  15.461  0.1846 -0.0749 -0.2204
21354W        W37828   5.270   9.795  10.960  0.1500 -0.3014 -0.0913
21355W        W37829   4.260  14.877  12.809  0.2926 -0.0699 -0.1232
21356W        W37830  15.020   0.507   5.609 -0.1070  0.1336  0.2964
21357W        W37831  10.562   0.671   4.152 -0.1257  0.1243 -0.1253
21358W        W37832  16.860  18.218   2.491  0.2131  0.0784  0.0788
21359W        W37833   7.281   2.112  14.551 -0.1736  0.3120 -0.1779
21360W        W37834   5.423  18.290  14.672 -0.0476 -0.1326  0.2155
21361W        W37835  14.899   6.173  15.541 -0.2182  0.0944 -0.2528
21362W        W37836  12.624  13.969   0.662  0.3017 -0.0946 -0.1562
21363W        W37837   6.091   3.638   3.025  0.1751 -0.0257 -0.1116
21364W        W37838   3.824   6.439  13.909  0.1375  0.1875  0.0281
21365W        W37839  17.689   6.513   0.043 -0.0687 -0.2175 -0.1033
21366W        W37840   7.509  18.000  10.553  0.2448  0.0835 -0.1874
21367W        W37841  11.756  13.786   4.237 -0.0230 -0.1644 -0.0272
21368W        W37842   7.571   1.652   0.551  0.0107 -0.2090 -0.0224
21369W        W37843   8.037  15.543   3.837  0.2170 -0.0759  0.0958
21370W        W37844   7.124   8.327   3.676  0.1532 -0.2364 -0.2763
21371W        W37845   8.098  14.578   1.264  0.1311 -0.0011  0.0495
21372W        W37846   5.160   3.533  11.432 -0.1859  0.1550 -0.0282
21373W        W37847   6.820   3.858   0.760  0.1017  0.0179 -0.0324
21374W        W37848   3.837   3.807  11.503 -0.1983  0.1057 -0.2306
21375W        W37849  14.643   7.179   3.209 -0.0905  0.0630 -0.1205
21376W        W37850   1.228   4.933  14.012  0.1704 -0.0025 -0.1071
21377W        W37851  12.437  12.587  13.903  0.3867  0.0992  0.1817
21378W        W37852   7.232   6.171   3.010 -0.0245  0.1708  0.2406
21379W        W37853  13.629  16.777  12.729  0.2621 -0.1921 -0.0854
21380W        W37854  11.523   8.494   0.005 -0.0299 -0.1266  0.2256
21381W        W37855   3.023  11.537  13.937 -0.2235 -0.2270  0.2792
21382W        W37856  13.898   2.938  14.436 -0.1503  0.0564  0.1042
21383W        W37857   2.701   1.553   2.793  0.0871  0.5408 -0.2360
21384W        W37858   3.596   6.125   3.010  0.1281  0.2472  0.1543
21385W        W37859   6.952   9.819   4.115 -0.0461 -0.0789 -0.0409
21386W        W37860   7.927  17.726   0.225  0.1167  0.0461  0.0593
21387W        W37861  15.558  14.418   0.662 -0.1721  0.0593  0.0868
21388W        W37862   4.746   9.651   0.229  0.0305 -0.0338 -0.1080
21389W        W37863  10.337   6.323   2.937 -0.0285 -0.0715  0.3706
21390W        W37864  10.469   7.101  12.388 -0.0478  0.0991 -0.0307
21391W        W37865   9.309  17.098   1.020  0.0867  0.0474  0.0628
21392W        W37866  10.966   9.993   3.939 -0.0643  0.0948  0.1258
21393W        W37867  11.752   0.786  14.872  0.0192  0.2666  0.3620
21394W        W37868  12.718  15.338  11.879  0.1325 -0.1054  0.1123
21395W        W37869   4.364  11.752   4.595 -0.1970 -0.0822 -0.3035
21396W        W37870   9.124  16.627  10.895 -0.0681  0.1620  0.1085
21397W        W37871  14.355   8.826  13.611 -0.0504 -0.1647  0.2984
21398W        W37872   2.624  11.231   0.241 -0.0477  0.2320  0.0847
21399W        W37873  17.737  12.577   6.042  0.1632  0.1442 -0.0590
21400W        W37874   1.141   4.993   1.426 -0.1104  0.0329 -0.1673
21401W        W37875   5.245  10.647  14.004 -0.0008 -0.0181  0.1085
21402W        W37876   9.696   6.160  13.926  0.1982  0.0407 -0.0753
21403W        W37877  13.948   2.166   5.348  0.1665 -0.1095 -0.0766
21404W        W37878   5.353  13.110  14.894  0.0483  0.1092  0.0256
21405W        W37879   9.821   1.234   4.450 -0.1032 -0.2397 -0.1785
21406W        W37880  16.024   9.685   5.482  0.0668  0.1048  0.0651
21407W        W37881  11.085   0.033   5.089 -0.0516  0.2556 -0.0855
21408W        W37882   1.043   1.073   0.084  0.3430 -0.1143 -0.1120
21409W        W37883   6.804  14.651   4.756  0.0549 -0.1299 -0.0397
21410W        W37884   7.451  11.681   3.752  0.1468 -0.0867 -0.0206
21411W        W37885  14.796  10.012   3.169 -0.0521 -0.0127 -0.2174
21412W        W37886   3.952  13.739   1.156 -0.3801 -0.2077  0.2584
21413W        W37887   7.398  13.631   1.836  0.2757  0.0517  0.0978
21414W        W37888  15.015   1.761   1.811  0.0487  0.0160 -0.4170
21415W        W37889  17.993   6.889   4.038  0.1243 -0.2524 -0.1396
21416W        W37890  12.063   8.708   5.311 -0.1098 -0.0198 -0.2613
21417W        W37891   9.384   8.861   3.508 -0.1771  0.0471 -0.1114
21418W        W37892  13.545   8.175   1.840 -0.0673  0.2189  0.0073
21419W        W37893   2.718  15.461  15.475  0.0690  0.0476  0.0218
21420W        W37894  17.066   1.014   4.082  0.1701  0.0754 -0.1250
21421W        W37895   9.714   5.357  13.729 -0.1147  0.0775  0.3088
21422W        W37896   8.022   9.173   5.925 -0.0890 -0.3037 -0.0647
21423W        W37897   0.768   5.076   2.275  0.1530  0.1499  0.1365
21424W        W37898   6.893   6.563   2.018  0.1677 -0.2814 -0.1398
21425W        W37899   3.994   4.597  11.385  0.2430  0.0839 -0.0581
21426W        W37900   3.901   5.165  11.852 -0.0784 -0.0110  0.1257
21427W        W37901  18.342  15.097  11.581  0.0492  0.1732 -0.3737
21428W        W37902  11.428   6.905  14.036 -0.1354 -0.2824 -0.0969
21429W        W37903   3.521   9.241  15.873 -0.2459  0.0174  0.1258
21430W        W37904   9.228  11.777   0.585 -0.0851  0.0505  0.2506
21431W        W37905   4.205   7.895  15.156 -0.1278  0.0211  0.0303
21432W        W37906   6.371  11.541  13.797 -0.1662  0.0274  0.0922
21433W        W37907   5.478   2.625  13.812 -0.0602  0.2196 -0.0237
21434W        W37908   9.058   3.183  14.934  0.3603 -0.0047  0.0077
21435W        W37909  16.463  18.064  12.616 -0.0559  0.0543  0.0623
21436W        W37910  16.479   4.206   4.501 -0.0440  0.0600 -0.2967
21437W        W37911   0.992  17.650  11.196  0.0760  0.0152 -0.0444
21438W        W37912   9.971  10.282  15.493  0.0648  0.3761  0.0385
21439W        W37913  10.120  15.926   1.627 -0.0377  0.2843  0.0887
21440W        W37914   0.345   1.431   1.127 -0.0330  0.2484  0.1756
21441W        W37915   6.374   2.430  11.625  0.2363  0.2272  0.0150
21442W        W37916  15.280  16.012  12.630 -0.2447  0.2040 -0.3134
21443W        W37917   6.648  12.878   0.174  0.1817 -0.0455  0.0513
21444W        W37918  11.290  14.985   0.558  0.1456 -0.1286 -0.2768
21445W        W37919  14.971   3.612  15.635  0.1541 -0.1679 -0.0479
21446W        W37920  13.470   1.940  11.961  0.1106 -0.2681 -0.0143
21447W        W37921   7.415   3.281  11.005 -0.5547 -0.0028 -0.0700
21448W        W37922   3.448   5.900   2.532  0.0092  0.0088  0.0326
21449W        W37923   8.520  12.554  12.528  0.0220  0.0455  0.2704
21450W        W37924   7.749  11.767   0.226  0.0646 -0.3654  0.2545
21451W        W37925   2.889   9.212  12.295 -0.2328  0.0702  0.2436
21452W        W37926  17.910  17.973   0.932 -0.0333  0.1033  0.1297
21453W        W37927   5.350  16.159  13.970  0.0173  0.4113 -0.1148
21454W        W37928  17.361  13.769   0.951 -0.1303 -0.2657 -0.0525
21455W        W37929  18.293  11.348  11.334 -0.1198  0.0799 -0.0489
21456W        W37930  16.036   8.500   2.287  0.0017 -0.0583 -0.2367
21457W        W37931   5.477  17.161   3.344  0.2621  0.1211 -0.1389
21458W        W37932   0.101   9.512   1.231  0.0694 -0.0797 -0.2323
21459W        W37933  16.336  14.211  12.385 -0.2793  0.2199 -0.0400
21460W        W37934   6.998  13.108  12.366 -0.1268 -0.1366  0.1341
21461W        W37935   9.420  17.711   3.220 -0.1433  0.1734 -0.0619
21462W        W37936   6.477  12.098   2.060 -0.1332  0.1966 -0.3178
21463W        W37937  12.837  16.867   6.173 -0.0555 -0.1563 -0.1378
21464W        W37938   2.882   4.692  11.117  0.1266  0.3043  0.1170
21465W        W37939  17.335   9.244  12.964 -0.0939 -0.0582  0.1272
21466W        W37940  11.587   3.722   2.028 -0.1062 -0.0086  0.0336
21467W        W37941   9.946   0.381  13.733  0.0881  0.0951 -0.0045
21468W        W37942  13.131   5.024  14.191 -0.2488  0.0414 -0.2146
21469W        W37943   0.180   5.717  11.482  0.2237  0.0110  0.2750
21470W        W37944  16.308   8.352   2.826  0.0305  0.3213 -0.0370
21471W        W37945   8.261   3.045  11.784 -0.0376 -0.0910  0.3479
21472W        W37946   5.873  16.990   3.782  0.1467 -0.0287  0.1661
21473W        W37947  17.341  12.794   4.374  0.1346 -0.0876  0.2708
21474W        W37948   1.765  14.727   4.706 -0.2092  0.0903  0.1193
21475W        W37949  12.335   3.095   3.557  0.3051 -0.1129 -0.0042
21476W        W37950  12.922  10.116   5.533 -0.0563  0.0946  0.0804
21477W        W37951   1.274  12.144   3.381  0.2475  0.0062 -0.2614
21478W        W37952  12.618  18.110  13.204 -0.0178  0.1339 -0.4118
21479W        W37953   2.613   0.552  12.769  0.3445 -0.0877 -0.0474
21480W        W37954   6.525   5.118  11.308  0.2521 -0.1156  0.1312
21481W        W37955   1.208  18.260   3.064 -0.0415  0.0083  0.2238
21482W        W37956  16.732  12.645  14.264  0.0143  0.0621 -0.1664
21483W        W37957  17.233  17.614   3.993  0.2519  0.0122  0.0775
21484W        W37958   1.689   1.616  11.567 -0.0176  0.0869  0.4118
21485W        W37959   3.225   9.883   0.937  0.1314  0.2229 -0.1173
21486W        W37960   0.707   1.405  12.231  0.0527 -0.0238  0.1868
21487W        W37961  18.008  12.112  11.133  0.2325  0.1404 -0.1471
21488W        W37962   3.766   0.785  12.975 -0.1107 -0.0685  0.1541
21489W        W37963   9.908   1.975   0.267 -0.1652 -0.1056 -0.3575
21490W        W37964  15.215   2.938  12.543  0.4265 -0.2011  0.0353
21491W        W37965   9.416   3.986   4.204 -0.1250  0.1976 -0.2432
21492W        W37966   2.876  12.568   4.821 -0.1092  0.1212 -0.0561
21493W        W37967  17.997   2.322   1.430  0.2612 -0.0353  0.0967
21494W        W37968  11.573   8.682   2.828 -0.0194  0.0548 -0.0927
21495W        W37969   1.809  11.771   1.440  0.3088  0.1228 -0.3572
21496W        W37970  14.681  14.960  11.300 -0.1309  0.2008 -0.1459
21497W        W37971  10.932   6.322   1.122  0.0434  0.0676  0.3569
21498W        W37972  16.031   5.497   3.503 -0.0686  0.0701  0.2377
21499W        W37973  15.683  12.464  14.872 -0.1423 -0.5138  0.3415
21500W        W37974   6.380   9.650  13.944 -0.0521 -0.0769  0.0622
21501W        W37975   2.605   0.061  11.623 -0.0349  0.1905  0.0684
21502W        W37976   3.753   7.510   4.059 -0.0229  0.2492 -0.0089
21503W        W37977   9.748   8.526   4.543 -0.0449 -0.0150  0.1146
21504W        W37978   3.720  10.287   2.354 -0.0280 -0.0492  0.2206
21505W        W37979   1.957  10.353  12.542 -0.1736 -0.2364 -0.0642
21506W        W37980   0.848   8.384  14.530  0.1447  0.1269 -0.0332
21507W        W37981  13.392   4.840   2.365  0.0390 -0.0525 -0.0400
21508W        W37982  17.222  10.113   5.258  0.1866  0.1988 -0.1251
21509W        W37983  13.846  10.044   5.495  0.1286  0.1062 -0.2405
21510W        W37984  12.633   3.883   3.175  0.0550 -0.1164  0.0437
21511W        W37985  11.851   9.344  14.795 -0.0809  0.0584 -0.0184
21512W        W37986  11.239  15.261  15.196 -0.1169  0.0372 -0.1381
21513W        W37987   2.189   9.199   3.453 -0.0633 -0.0708  0.1038
21514W        W37988  17.369   5.573   1.349  0.2420  0.2312 -0.0229
21515W        W37989   4.483  15.547  14.177  0.2291  0.0030 -0.0349
21516W        W37990   8.748   3.297  12.433  0.0919 -0.0599  0.0676
21517W        W37991   2.907   1.818  13.377  0.4641  0.0088 -0.0626
21518W        W37992  12.479  17.363  13.396  0.0555  0.1475 -0.0953
21519W        W37993  12.992  16.337  12.608  0.0340 -0.1667 -0.0472
21520W        W37994  11.582  11.600  15.150 -0.0634 -0.1002 -0.1236
21521W        W37995  15.187  10.214   3.380 -0.1515  0.0699  0.1453
21522W        W37996   6.216   7.834   1.136 -0.0016 -0.0996 -0.3624
21523W        W37997  13.020   0.440  14.302 -0.0405  0.0485 -0.0936
21524W        W37998   1.758   6.594  11.869  0.0971 -0.3123 -0.1122
21525W        W37999   4.868  16.821   5.340 -0.1413  0.3668 -0.0888
21526W        W38000   3.767   1.471  13.514 -0.0531 -0.2228 -0.3473
21527W        W38001  15.762   5.435  12.683  0.2066  0.2503  0.1186
21528W        W38002   0.688  17.944  14.748 -0.2103 -0.0861 -0.2195
21529W        W38003  16.640  14.341  14.567 -0.0028 -0.0849  0.0181
21530W        W38004   5.300  15.034   2.339  0.0501  0.1333 -0.1121
21531W        W38005   6.815  17.498  11.376 -0.2075 -0.1125  0.2984
21532W        W38006   7.365   7.275   5.046  0.1572 -0.1535  0.2802
21533W        W38007   5.117  15.303  13.816 -0.2287 -0.1624  0.1958
21534W        W38008   3.454   4.833   4.219 -0.0583 -0.2072 -0.0410
21535W        W38009   9.705   4.774   3.187  0.1679 -0.1399 -0.0878
21536W        W38010  17.842   7.632   2.888 -0.1787  0.1865 -0.4027
21537W        W38011  14.116  17.675  13.287 -0.0474 -0.1068  0.0829
21538W        W38012   1.737  13.968  13.227 -0.2234 -0.2168 -0.1142
21539W        W38013  12.671  15.177  12.598  0.2268 -0.3123  0.2301
21540W        W38014   8.702   8.460   2.415  0.2815 -0.0438  0.0912
21541W        W38015   1.681  13.978  15.060  0.1578  0.1673  0.1703
21542W        W38016   5.900   1.453   9.970  0.0952 -0.0952 -0.2159
21543W        W38017  17.074  13.386   3.224  0.0443  0.1724  0.1834
21544W        W38018  16.033   7.379  11.823 -0.0609  0.1836 -0.3997
21545W        W38019  10.181   3.997  14.080 -0.1088 -0.3080  0.2815
21546W        W38020   1.747  11.213  12.178 -0.0157  0.1186  0.2725
21547W        W38021  10.946  15.954   1.202 -0.0209  0.1034  0.1088
21548W        W38022  17.566  16.341   2.211  0.1163 -0.1380 -0.2047
21549W        W38023   2.452  15.710  11.903 -0.2177 -0.1262 -0.0864
21550W        W38024  10.132   7.177   0.454  0.1330 -0.0661  0.0437
21551W        W38025   1.105  16.891  15.487 -0.0356 -0.2385 -0.4056
21552W        W38026   7.686  10.767   3.735 -0.1501 -0.2126  0.1722
21553W        W38027   0.167  15.341   1.237  0.0960  0.1490 -0.2021
21554W        W38028  16.831  16.896   0.555  0.1622 -0.1349 -0.2766
21555W        W38029  15.187   5.399   3.731 -0.1282  0.0366  0.0170
21556W        W38030   1.125   0.272  14.581  0.0522  0.1258 -0.0742
21557W        W38031  17.671   1.461  13.391 -0.0370  0.1608 -0.1673
21558W        W38032  16.252  15.164   3.479 -0.1881 -0.4307 -0.0437
21559W        W38033  16.196  17.589  15.041 -0.2272 -0.0699  0.1595
21560W        W38034  13.088  17.239  12.215  0.1105  0.0773  0.2136
21561W        W38035  13.479  11.849   3.805  0.1215  0.2246 -0.1032
21562W        W38036  12.948  10.584   5.784  0.0389  0.3929 -0.1748
21563W        W38037  15.190   3.932   1.452 -0.0444  0.0073  0.1177
21564W        W38038  10.628   2.884  12.053 -0.0964  0.2795  0.0837
21565W        W38039   4.081   5.941   3.128  0.0588  0.2278  0.3127
21566W        W38040  11.978  12.982   2.050 -0.0173 -0.3593  0.3265
21567W        W38041   4.857  10.699   3.859  0.0580  0.0708  0.1711
21568W        W38042   5.140  11.729   0.348 -0.0746  0.0729  0.3326
21569W        W38043  10.784   5.654  11.481  0.0927  0.4793 -0.1164
21570W        W38044  12.793   6.648  11.245 -0.1023 -0.0775  0.3911
21571W        W38045   0.568   4.647   0.936  0.2378  0.4054 -0.1853
21572W        W38046  15.094   5.525  15.275 -0.2588 -0.0590  0.0246
21573W        W38047   9.439   4.075   1.887  0.1942  0.1594  0.1275
21574W        W38048  15.001   6.037   4.071 -0.0676 -0.1679 -0.0308
21575W        W38049   1.973   1.921  14.749  0.2583 -0.1221 -0.0863
21576W        W38050   4.918   6.574   0.384  0.0747 -0.2159  0.1700
21577W        W38051   4.729   6.807  13.802 -0.0593  0.2788  0.4261
21578W        W38052  17.226   5.169  14.011  0.0489  0.2498  0.0283
21579W        W38053  16.051  16.089  15.438 -0.0489 -0.2158 -0.0283
21580W        W38054  13.022   5.707   2.076 -0.0482  0.2209 -0.0243
21581W        W38055   5.032   1.827   4.052 -0.2598 -0.0663  0.3274
21582W        W38056   6.520   8.475  15.467  0.0041 -0.3376  0.1173
21583W        W38057  15.582  15.951  13.540  0.2891  0.1272  0.1218
21584W        W38058  17.022  14.829   1.670  0.1677 -0.0644 -0.1458
21585W        W38059  10.879   5.253   3.860  0.2937 -0.3233  0.1234
21586W        W38060  18.270  11.461  13.370 -0.0861  0.0949  0.4472
21587W        W38061   7.897   3.339   1.777 -0.1775  0.1611 -0.0207
21588W        W38062  17.199   6.790  13.863 -0.2689  0.3386 -0.0122
21589W        W38063  13.420  14.748   0.487 -0.0722  0.1475  0.1631
21590W        W38064   6.172  18.072  14.435  0.1213 -0.1284 -0.2587
21591W        W38065   0.448  16.868  13.020 -0.0939  0.0826 -0.2176
21592W        W38066   6.190  17.110  13.256  0.2272 -0.1827 -0.0190
21593W        W38067   0.626  10.593   2.186  0.0894  0.1577  0.0702
21594W        W38068   0.898   6.735   4.238 -0.1629 -0.2193  0.2892
21595W        W38069   5.319   7.104   5.154  0.2283 -0.1202  0.0927
21596W        W38070  14.304  13.879   5.245  0.0734 -0.1002  0.1245
21597W        W38071   0.246  13.329   0.659  0.1207  0.1138 -0.0207
21598W        W38072   0.522  12.382   4.031  0.1644  0.2949  0.2420
21599W        W38073   7.798  16.021   3.988  0.2300  0.0161 -0.1001
21600W        W38074  12.854   8.090   5.001  0.0596  0.1593  0.2266
21601W        W38075  15.604   7.821  14.867 -0.3120 -0.1645  0.1920
21602W        W38076   5.519   8.972  11.157  0.2544  0.0717 -0.1427
21603W        W38077   1.080  14.460   2.788 -0.0593 -0.0283 -0.1492
21604W        W38078   4.807   3.518   4.737  0.2784  0.0511  0.2103
21605W        W38079   7.492   4.437   3.927 -0.1999  0.3070 -0.2309
21606W        W38080   4.556  18.029  12.924 -0.0343 -0.0170  0.1606
21607W        W38081   5.940  18.296   1.119 -0.4174 -0.0533  0.0860
21608W        W38082  15.774  13.303   4.216 -0.1045 -0.2287 -0.1163
21609W        W38083   4.841   8.209  13.332 -0.0019  0.0368  0.0136
21610W        W38084   4.677  13.809  13.534  0.0353 -0.1136  0.1452
21611W        W38085  18.041   1.719  14.213  0.2097 -0.0513 -0.0978
21612W        W38086   6.821  14.946   4.301  0.1222  0.0000 -0.3398
21613W        W38087  10.418   1.912  15.175  0.2078  0.0037 -0.0238
21614W        W38088   3.852   4.649   1.222 -0.2835  0.2055  0.3515
21615W        W38089   5.357   9.832   9.964  0.1910 -0.1778 -0.0529
21616W        W38090   8.926   6.971  15.887  0.1152 -0.1274 -0.0912
21617W        W38091   8.352   4.219   2.210  0.0429  0.2137 -0.0178
21618W        W38092  12.992   9.623   1.109 -0.2585  0.2442  0.3253
21619W        W38093  17.163  15.668   0.806  0.1190 -0.0189  0.2967
21620W        W38094   6.424  15.955   2.753  0.1496 -0.2099  0.0123
21621W        W38095  11.384   6.699  12.584  0.0204  0.1468 -0.0270
21622W        W38096   7.323  16.597  15.251  0.0193  0.0376  0.1054
21623W        W38097   5.043  11.242   0.198  0.2417  0.0123 -0.1729
21624W        W38098  13.856   9.954   0.599 -0.2123 -0.1871 -0.1282
21625W        W38099   7.295   2.882   2.944 -0.0361  0.0177 -0.0234
21626W        W38100   1.159   6.638   4.751 -0.0543  0.2836 -0.0456
21627W        W38101  12.459   8.252   4.706  0.1075  0.0239  0.2244
21628W        W38102   7.681  14.436   1.882 -0.0371 -0.2167  0.1948
21629W        W38103  10.708   8.557  15.195 -0.0085  0.0437 -0.0416
21630W        W38104   0.507   1.112   5.664 -0.0767  0.0585  0.2823
21631W        W38105   6.642  16.841   4.177 -0.1430 -0.1262 -0.0499
21632W        W38106  16.625  16.430  13.467 -0.2659 -0.2147  0.1838
21633W        W38107  12.795   0.847   2.809  0.2548  0.1337 -0.0615
21634W        W38108  10.141   4.509  13.392  0.1518  0.0276 -0.0494
21635W        W38109   3.363   3.134   5.711  0.0643  0.2619 -0.0850
21636W        W38110  16.338  17.451  14.303  0.0629 -0.2906  0.0748
21637W        W38111   9.384  14.580   4.640  0.0705 -0.0826  0.0857
21638W        W38112  10.009  17.107   5.308 -0.1882 -0.1613 -0.1580
21639W        W38113  11.786   8.968   2.260  0.2389  0.0761 -0.1155
21640W        W38114   4.637  15.527   4.716 -0.0589  0.1112 -0.0047
21641W        W38115   2.816   6.167  14.242  0.0674 -0.1076  0.2311
21642W        W38116  11.991  18.415   1.360 -0.0479 -0.0948 -0.2050
21643W        W38117  11.184   3.067   0.796  0.1681  0.0020 -0.3539
21644W        W38118   7.801  12.179   3.926 -0.2196  0.1265  0.1357
21645W        W38119   7.003   8.354  10.355 -0.0808  0.1801 -0.3848
21646W        W38120  14.368   5.729   1.726 -0.2693 -0.0384 -0.0259
21647W        W38121   7.394   3.147   2.531  0.0655 -0.1981 -0.2440
21648W        W38122   1.798   0.549  13.903 -0.2524 -0.1371  0.2327
21649W        W38123   4.405   5.528   3.056 -0.0977 -0.2487  0.2370
21650W        W38124  12.102  11.379  15.667  0.3682 -0.0201  0.1816
21651W        W38125   3.360   2.124  12.717 -0.0211 -0.2915 -0.1382
21652W        W38126   0.642   4.232   1.288 -0.0289 -0.1363 -0.1822
21653W        W38127   9.276   2.708  14.687 -0.1244  0.0035 -0.0115
21654W        W38128   6.793   1.562  14.189  0.0285  0.0413 -0.0140
21655W        W38129   9.878   9.916   1.977  0.0555  0.0382 -0.1293
21656W        W38130  15.372  13.224  13.016 -0.1102  0.0609  0.1494
21657W        W38131   2.152  15.665   0.349  0.1260 -0.2514  0.2973
21658W        W38132   2.369   8.716  13.500 -0.1466 -0.0458  0.1922
21659W        W38133   4.374   5.140  13.607  0.2213  0.1207 -0.1163
21660W        W38134  16.597  14.460  15.799 -0.0725 -0.3893 -0.1033
21661W        W38135   6.618  17.395   0.861 -0.0810 -0.0020  0.0189
21662W        W38136  18.163  16.175   0.225  0.1859 -0.0987  0.2230
21663W        W38137   9.879   7.270   3.352  0.1560  0.4272  0.1747
21664W        W38138   6.489   4.445   4.946 -0.0347 -0.2272 -0.2675
21665W        W38139   5.544  15.309  15.230  0.1926  0.1135 -0.2472
21666W        W38140  13.150  12.068  14.487  0.1034 -0.0114 -0.0104
21667W        W38141  12.642   4.438   4.281  0.0426 -0.1645  0.0058
21668W        W38142   0.594   6.827  12.163 -0.0498  0.2462 -0.1831
21669W        W38143   2.895  15.756  12.717 -0.1245  0.1549 -0.1771
21670W        W38144   4.731   0.584  11.346 -0.1237  0.1540  0.1165
21671W        W38145  13.124  12.082  10.554 -0.0033 -0.0062 -0.0968
21672W        W38146   2.747  16.678  15.658  0.2388  0.0051 -0.0789
21673W        W38147   4.963  11.137  14.683 -0.0433 -0.0061  0.1203
21674W        W38148   3.793  11.474   2.408  0.3610 -0.0326 -0.1130
21675W        W38149   0.485   7.600  12.053 -0.1262 -0.0536 -0.0604
21676W        W38150   8.647  13.604   3.040  0.1056 -0.1927  0.2125
21677W        W38151  16.410  16.350  15.654  0.0723 -0.0880 -0.2435
21678W        W38152   6.426   5.224   4.049  0.0823 -0.0607 -0.0727
21679W        W38153  16.774   9.066   5.793 -0.0014 -0.0765 -0.3924
21680W        W38154   8.000  18.132  13.438  0.2092 -0.0853  0.2434
21681W        W38155  14.166   1.586   3.978  0.1451  0.3762  0.1594
21682W        W38156   7.568   0.629  12.741  0.2404 -0.3566  0.1197
21683W        W38157   4.638  10.997  15.387  0.1407  0.4450 -0.0700
21684W        W38158  18.065   2.077  12.959  0.3416  0.2205 -0.0586
21685W        W38159   9.518   3.166  13.575  0.1241 -0.0980 -0.0196
21686W        W38160  16.074   7.277   2.710 -0.0524 -0.2579  0.1572
21687W        W38161  15.101   0.286   2.756 -0.3516  0.0625  0.0568
21688W        W38162   2.177  16.646   5.470 -0.0753  0.1129  0.1413
21689W        W38163  17.226   3.324  13.526  0.1094 -0.0060  0.0758
21690W        W38164   2.836   7.922  15.723 -0.0660  0.0248  0.1229
21691W        W38165  13.188  11.307  15.859  0.1044 -0.0589 -0.0124
21692W        W38166   1.469  15.175  12.933 -0.2517  0.0525 -0.2359
21693W        W38167   8.664  15.294   2.252 -0.3668 -0.0882 -0.0656
21694W        W38168  17.496   5.299   2.819 -0.0836  0.1647  0.0319
21695W        W38169   0.406   3.754   2.426  0.3482 -0.1715  0.0521
21696W        W38170  12.846   1.632   0.224 -0.0705  0.2312 -0.1293
21697W        W38171   9.612  13.788   3.470  0.0520 -0.2145  0.1152
21698W        W38172   5.471   2.947  14.718  0.1613  0.2982 -0.0353
21699W        W38173  13.605  17.478   0.349 -0.0223 -0.0098 -0.0686
21700W        W38174  17.366   9.897   1.727 -0.0229 -0.2156 -0.2484
21701W        W38175   5.953   4.239  13.491  0.4573 -0.4318  0.1889
21702W        W38176   1.263  15.341  10.610  0.0311  0.0801 -0.0982
21703W        W38177  14.477  17.616  14.451  0.3024 -0.0057  0.3450
21704W        W38178  13.254   9.108   1.926  0.0890  0.0796  0.0680
21705W        W38179  13.125   7.901   3.168 -0.1034 -0.1946 -0.1993
21706W        W38180  12.918  14.079  10.826  0.1438  0.0285 -0.0011
21707W        W38181  15.430   2.178   3.834 -0.0965  0.0607  0.1346
21708W        W38182   4.765  18.290   4.112 -0.0585 -0.0668 -0.1783
21709W        W38183  16.033   5.879  13.550  0.0409  0.2070 -0.0623
21710W        W38184  16.039  15.407   4.249 -0.2614  0.0386 -0.0410
21711W        W38185   8.644   3.052   2.860 -0.1616 -0.0771 -0.0612
21712W        W38186   7.706   2.130   3.400  0.2129 -0.2892  0.0924
21713W        W38187   0.117  13.207  13.151  0.3198 -0.0318 -0.2758
21714W        W38188   0.906  14.140   0.166 -0.1938 -0.0489 -0.2679
21715W        W38189   4.383   0.125   1.889  0.3568  0.1565  0.2180
21716W        W38190  13.827  18.006  13.742 -0.0030  0.1844 -0.3663
21717W        W38191   0.580   7.752   0.886  0.1795 -0.0387 -0.2446
21718W        W38192   6.088  10.246  14.916 -0.0537  0.1454 -0.1191
21719W        W38193   3.982   4.992   4.298  0.3513 -0.1840  0.0993
21720W        W38194  13.588   7.180  13.527 -0.1153  0.3439  0.2408
21721W        W38195   5.832  17.582   3.951 -0.0015  0.1565  0.1595
21722W        W38196  14.657   5.614  11.854  0.0896  0.0397 -0.1703
21723W        W38197   2.399  11.728   2.285  0.1617 -0.1281  0.0066
21724W        W38198  10.895   0.243  13.471  0.0436  0.0567 -0.0113
21725W        W38199  15.341   1.388  12.662  0.0682 -0.1547  0.2445
21726W        W38200   3.395   8.576   0.358  0.1043  0.1413  0.0930
21727W        W38201  10.295  12.029  13.353  0.2344 -0.0261  0.1239
21728W        W38202   3.691   9.232  14.124  0.3532  0.0175 -0.2469
21729W        W38203   9.677   6.276  11.671 -0.3670 -0.1708 -0.0193
21730W        W38204  12.654  15.049   4.073  0.0164 -0.2110 -0.0198
21731W        W38205   1.178  11.707  11.021  0.1257 -0.2265  0.0982
21732W        W38206   2.754   5.871  12.161 -0.2255 -0.0717 -0.0616
21733W        W38207   1.092  12.697   5.173  0.3364  0.0387 -0.0756
21734W        W38208   4.519   4.146  14.970 -0.1162 -0.0296 -0.0050
21735W        W38209   4.533  15.193  13.088 -0.2096  0.1945 -0.1787
21736W        W38210   2.806   9.433   4.744 -0.1409  0.1726 -0.1539
21737W        W38211  13.788   6.707   2.569  0.0023  0.2020  0.0665
21738W        W38212  16.229   1.755  11.195  0.1197 -0.1533 -0.0271
21739W        W38213   3.103  18.240  12.612 -0.2116  0.1319  0.1781
21740W        W38214   0.639  11.545  14.394  0.3591  0.4102 -0.0894
21741W        W38215   6.898  12.219   4.407 -0.0469 -0.0700  0.0826
21742W        W38216  15.082  14.183   1.396  0.3592  0.0805  0.2248
21743W        W38217   2.746  10.034   1.331 -0.1604 -0.0037  0.4446
21744W        W38218  16.923  18.420  13.705 -0.0086  0.0467 -0.2420
21745W        W38219  13.682  15.097   3.255 -0.1235 -0.1319 -0.2022
21746W        W38220   1.873   5.551  15.483  0.3136  0.1518 -0.1064
21747W        W38221   5.578  13.024  12.408 -0.1213 -0.0544 -0.3407
21748W        W38222   3.104  14.353  14.005  0.0040  0.3799 -0.0899
21749W        W38223  15.077  11.202   2.482  0.0267 -0.0297 -0.2087
21750W        W38224   3.713  14.241   4.936 -0.0390 -0.0443  0.0639
21751W        W38225   6.950  15.290   2.526 -0.0366  0.1422  0.0201
21752W        W38226  13.687   5.560   2.616 -0.2648  0.1586  0.1105
21753W        W38227   7.273  11.492  14.001 -0.4638 -0.0215 -0.0251
21754W        W38228   4.197  10.332   2.889 -0.5724 -0.2497  0.0074
21755W        W38229   2.592   8.815  15.855  0.0338 -0.4533  0.2542
21756W        W38230  12.187   9.552  11.197  0.1002 -0.1645  0.0041
21757W        W38231   8.937   6.520  12.011  0.0803 -0.2131 -0.3938
21758W        W38232  13.209  18.194  15.347 -0.1047 -0.0136 -0.4524
21759W        W38233  17.126  12.553  12.467  0.2156 -0.0200  0.1407
21760W        W38234  14.504  13.194   6.053  0.2236  0.4080  0.3858
21761W        W38235  10.646  17.945   4.702 -0.2092  0.0194  0.2758
21762W        W38236  12.515  16.890   3.504 -0.3244 -0.2156 -0.1199
21763W        W38237  18.472  16.883   3.822  0.3500 -0.0280 -0.3243
21764W        W38238  14.825   8.960  13.344  0.1205 -0.1481  0.2717
21765W        W38239  14.847  18.040   3.757 -0.0188 -0.1274  0.0484
21766W        W38240   4.638  16.680  12.235  0.1529  0.2107  0.1093
21767W        W38241   9.385   6.165  12.084  0.0543 -0.1286  0.1826
21768W        W38242  12.501   2.865  11.241 -0.3398 -0.2265  0.1993
21769W        W38243  10.358  11.184   2.141  0.1087  0.1533  0.0421
21770W        W38244   1.998  17.901   5.205 -0.0192 -0.1522 -0.1729
21771W        W38245  14.573  17.591   4.600  0.0004 -0.0629 -0.1533
21772W        W38246   1.881   7.087   2.228 -0.1288 -0.0013  0.0072
21773W        W38247   7.085  16.154  14.013  0.3084 -0.1297 -0.1331
21774W        W38248  10.138  12.145   3.230 -0.2625 -0.0121 -0.2670
21775W        W38249   3.680  14.422   2.822  0.0194  0.1243 -0.0270
21776W        W38250  18.102   6.846  12.439 -0.0275  0.2568  0.0490
21777W        W38251   4.038   7.885  13.851 -0.0611  0.2706  0.2136
21778W        W38252  15.772  18.195  15.265  0.1762  0.0188 -0.1294
21779W        W38253  10.310   6.761   4.145  0.0506  0.0176 -0.1874
21780W        W38254  18.424   2.970   2.784 -0.0760 -0.4166 -0.0443
21781W        W38255  12.224  10.458   5.334  0.0384 -0.1519 -0.0993
21782W        W38256   4.591  12.208   3.277 -0.3305 -0.2600  0.0547
21783W        W38257  15.612  14.429   3.541 -0.0797  0.2194  0.0989
21784W        W38258   0.786   2.529  11.360 -0.1706 -0.0133  0.1533
21785W        W38259   7.323   4.202   2.717  0.1504 -0.4125 -0.1504
21786W        W38260   3.311   9.855   5.294  0.1294  0.0315  0.1183
21787W        W38261  15.514   5.578  11.355  0.0349  0.0685  0.3696
21788W        W38262   5.856   4.382   1.119  0.0592 -0.0206 -0.0329
21789W        W38263  13.556   4.177   2.171 -0.1739  0.0206 -0.1817
21790W        W38264  10.988  13.086  13.386  0.1463 -0.0120 -0.1268
21791W        W38265  18.354   5.581   3.261 -0.2216  0.0536  0.0392
21792W        W38266  14.529   4.068   3.397  0.2641  0.0247 -0.1605
21793W        W38267   9.594   3.777  14.272 -0.0114  0.2059 -0.3348
21794W        W38268  10.736   9.410   0.662  0.0129 -0.2928  0.2520
21795W        W38269  13.687   2.279  12.446  0.2233  0.0720 -0.1997
21796W        W38270   6.975   3.431  14.833  0.1624  0.1193  0.0028
21797W        W38271  13.835   8.669   3.129  0.0372  0.0454  0.1962
21798W        W38272   8.841  13.923  11.978  0.0393  0.2434 -0.0151
21799W        W38273  13.893   0.302  15.703  0.2785 -0.1204 -0.1508
21800W        W38274  12.999  17.311  15.144  0.0055 -0.3854  0.0035
21801W        W38275   4.173   0.955   3.316 -0.0779  0.1594 -0.1084
21802W        W38276  14.937  12.122  12.435 -0.3008 -0.2457  0.4425
21803W        W38277   2.950  11.006   5.390  0.0863  0.2490 -0.1725
21804W        W38278   7.133  17.405   0.905  0.0504  0.0506  0.2076
21805W        W38279  13.319  11.336   4.008  0.1254  0.3352  0.1034
21806W        W38280  13.094   1.758   5.068 -0.1565 -0.2574  0.0081
21807W        W38281   0.436  17.521   1.582 -0.2055  0.1318 -0.0578
21808W        W38282  12.208  14.860   1.462  0.2067  0.0055 -0.0876
21809W        W38283   6.994   7.025   5.341 -0.2666 -0.2307  0.3952
21810W        W38284   3.761   3.057   2.210  0.0078  0.2400  0.2372
21811W        W38285  16.318  12.465   2.708 -0.1103  0.2099 -0.0286
21812W        W38286  17.918  14.498   3.348 -0.1679  0.3518 -0.1250
21813W        W38287  18.157   9.306   0.881 -0.0725  0.1307 -0.0997
21814W        W38288  18.258  10.111   4.267  0.0888 -0.1432  0.0234
21815W        W38289  13.645  12.257   1.292 -0.1004  0.2033 -0.0150
21816W        W38290  16.820   4.159  15.113  0.1812 -0.0191 -0.1626
21817W        W38291   8.149  17.360  15.308  0.1170  0.0134 -0.2153
21818W        W38292  14.419   9.225   4.167  0.0279  0.0164  0.0949
21819W        W38293  15.143   0.922   3.041 -0.0711  0.0822  0.4974
21820W        W38294  12.581   6.871   3.080  0.0298  0.1854 -0.0728
21821W        W38295   3.251  11.961   1.476 -0.1205 -0.2691 -0.3164
21822W        W38296  10.901   5.896  11.958 -0.0525  0.0088  0.1497
21823W        W38297  13.117   3.764   3.293  0.1017 -0.0177 -0.2316
21824W        W38298  10.304   1.615  10.849  0.0237  0.1509  0.2044
21825W        W38299  17.888   9.058   5.000 -0.2733  0.0320  0.1360
21826W        W38300   5.209   0.194   3.554  0.2734  0.2262 -0.1090
21827W        W38301   3.664   4.225  11.245 -0.1724  0.0703 -0.0592
21828W        W38302  14.103  15.975  10.148 -0.0094  0.0427  0.1741
21829W        W38303   6.641  13.386  15.951 -0.0514  0.1735 -0.2747
21830W        W38304   2.847   6.186  13.755  0.0194  0.2754  0.0086
21831W        W38305  10.583  16.711   1.134  0.0221  0.1161 -0.0110
21832W        W38306   8.645   5.074   0.744  0.1042 -0.1221  0.0763
21833W        W38307   0.142   7.314  14.452  0.2790 -0.0904  0.1051
21834W        W38308  12.866   2.292  14.339  0.0787 -0.0900  0.0995
21835W        W38309  15.219  13.741  14.018  0.0931  0.0122  0.2118
21836W        W38310   3.826  15.344   1.068 -0.0135 -0.1924  0.0116
21837W        W38311   9.017  16.443   2.083  0.0784 -0.1525 -0.0764
21838W        W38312   4.672   1.281  11.902 -0.0703  0.0985  0.1169
21839W        W38313  17.182  13.784  15.688  0.0540  0.1775  0.4546
21840W        W38314   8.465  17.681  13.393  0.5238 -0.2763 -0.1844
21841W        W38315   4.055   1.650  11.489 -0.1560 -0.0685  0.1420
21842W        W38316   5.280   6.823  11.206 -0.0275 -0.2483  0.0462
21843W        W38317  11.707  12.792   5.074  0.0074 -0.1429 -0.2062
21844W        W38318   2.043  15.192   0.873  0.0869  0.0171  0.1475
21845W        W38319   5.004   3.976   5.615  0.2712  0.1447  0.0371
21846W        W38320   6.324   8.316  14.534 -0.0381 -0.0630 -0.1591
21847W        W38321  17.544  13.198  11.816  0.1523 -0.1851 -0.1745
21848W        W38322  15.647   8.939  12.400 -0.1701 -0.0369  0.1039
21849W        W38323  15.930   0.546   3.357  0.3722 -0.2154 -0.2357
21850W        W38324   8.499   4.758  12.232  0.1672  0.0264  0.0186
21851W        W38325  13.680  15.334  13.973 -0.2478  0.4652 -0.0286
21852W        W38326  10.117   0.892   2.623 -0.0195  0.1572  0.2384
21853W        W38327  10.956  10.071   2.415  0.0793 -0.1250 -0.2970
21854W        W38328   2.698  15.025   1.935 -0.1750 -0.3478 -0.0584
21855W        W38329   8.447   6.233  15.585 -0.1873  0.1000  0.0725
21856W        W38330  15.431   9.918  15.805  0.1198  0.1659 -0.1344
21857W        W38331   5.345   3.351   4.184 -0.0324 -0.4096 -0.2246
21858W        W38332   5.334  14.773  14.644 -0.1169 -0.0500 -0.1118
21859W        W38333   2.705   1.242   2.169 -0.1034  0.1478  0.0187
21860W        W38334   8.478  11.372   0.952  0.3375 -0.1254 -0.0337
21861W        W38335  17.964   6.332  12.866 -0.0060  0.1361  0.3412
21862W        W38336  16.652   8.684   0.423 -0.1735  0.0701 -0.2147
21863W        W38337   5.163   2.685   3.098 -0.0601 -0.1759  0.1961
21864W        W38338   2.165  15.617   3.402  0.0723 -0.2128 -0.0850
21865W        W38339   0.562  17.232   4.977 -0.1410  0.1615  0.1758
21866W        W38340  17.774  14.346  11.221 -0.1171  0.1422  0.1367
21867W        W38341   8.166   8.521   3.525  0.2861  0.0600  0.1168
21868W        W38342   8.212  17.276   0.069 -0.1449  0.2114  0.2785
21869W        W38343   4.952   7.075   2.988  0.0892  0.2273 -0.3499
21870W        W38344  14.884   1.268   1.681 -0.1188 -0.1957 -0.3677
21871W        W38345   5.099  17.275   5.572  0.2516  0.2130  0.0104
21872W        W38346   6.155  16.801  11.638  0.1655  0.0061 -0.0431
21873W        W38347   4.615   0.272   0.937  0.2183  0.2703 -0.2960
21874W        W38348   6.611   1.403  11.012 -0.1214  0.0399 -0.2433
21875W        W38349   0.249  11.800  15.652 -0.5127  0.1085 -0.1884
21876W        W38350  16.786  18.372  11.567  0.0444  0.1453  0.1072
21877W        W38351   9.195  13.199   3.747  0.1367 -0.1932 -0.1497
21878W        W38352  16.985   7.245   1.945  0.1082  0.0114  0.2734
21879W        W38353   3.147  12.387  13.143 -0.0664 -0.1886 -0.1830
21880W        W38354   7.037  12.329  15.603 -0.1667  0.1639 -0.2253
21881W        W38355  11.371  16.757   4.152 -0.0255 -0.2372 -0.2128
21882W        W38356   7.302  17.475  11.311 -0.3905  0.3530 -0.2743
21883W        W38357  18.212  18.026  14.375  0.0290 -0.1917  0.1231
21884W        W38358  10.493   2.695  15.054  0.0951  0.1383 -0.2163
21885W        W38359   1.247   7.122   4.616 -0.0081 -0.2532  0.0328
21886W        W38360   5.411   1.364   3.175 -0.0150 -0.1383 -0.4921
21887W        W38361  11.743  15.345  13.423 -0.0863  0.1725 -0.1482
21888W        W38362   5.780   2.919   0.810  0.0141  0.0826  0.1790
21889W        W38363   5.332   9.317  12.816  0.1359  0.0791  0.3228
21890W        W38364   3.820   4.943   3.820  0.0419  0.1187  0.0777
21891W        W38365  16.971   6.193   0.658  0.1190  0.0919 -0.0500
21892W        W38366  12.651  10.355  13.089 -0.0036  0.1154 -0.1838
21893W        W38367   2.076  16.152  11.003 -0.4072 -0.1299 -0.0901
21894W        W38368   2.220   0.696   0.616  0.0334 -0.0610  0.0226
21895W        W38369   6.399  10.683  14.726  0.2845 -0.0796  0.3421
21896W        W38370  13.185  13.661   2.434  0.1399  0.1128 -0.0795
21897W        W38371   2.831  15.108  12.196 -0.2067  0.5881 -0.1204
21898W        W38372  11.969   2.849  13.421  0.0585 -0.0359  0.0696
21899W        W38373   1.639  11.865   3.666  0.1868 -0.5642  0.0160
21900W        W38374  11.528  18.124   5.147 -0.2674  0.0034  0.2852
21901W        W38375   7.417  17.242   4.362  0.0489 -0.1971  0.1066
21902W        W38376   0.213  11.488  11.610  0.2372  0.4523 -0.4860
21903W        W38377  14.113   8.032  10.715 -0.0475 -0.3392 -0.4731
21904W        W38378  14.031  17.858   1.782  0.1201  0.0319  0.2058
21905W        W38379   0.562   3.992   0.765 -0.3536 -0.1085  0.0397
21906W        W38380   2.248  13.023   4.238 -0.3109  0.0057  0.0380
21907W        W38381  14.306   3.983   2.209 -0.0894  0.1413  0.1492
21908W        W38382  12.531   9.147  14.358 -0.1071 -0.1139 -0.1480
21909W        W38383   9.173   3.538  13.540  0.3834 -0.2003 -0.0269
21910W        W38384   4.391  14.245   3.431  0.1248 -0.3738  0.1425
21911W        W38385   2.123   3.032   3.044 -0.0103  0.1844  0.1977
21912W        W38386  16.534   9.226   4.231  0.0802  0.1034  0.1010
21913W        W38387   5.236   7.051   1.312 -0.2826  0.3966  0.3992
21914W        W38388  15.148  13.286  10.678 -0.1724  0.0095  0.1619
21915W        W38389   1.248   4.177  14.032 -0.3718 -0.1347  0.1124
21916W        W38390  16.077   8.654  12.603 -0.0644 -0.2073  0.3183
21917W        W38391   9.354   6.775   6.239 -0.0351 -0.3424  0.0946
21918W        W38392  14.988  12.590   2.339  0.0182 -0.2143 -0.1306
21919W        W38393   8.979  14.830   2.989 -0.1031  0.1122  0.0740
21920W        W38394   5.088   2.546   4.738  0.0783  0.2472 -0.4212
21921W        W38395  14.097   6.598  14.827 -0.1814  0.3341 -0.1756
21922W        W38396   3.624   2.470   5.081 -0.2024 -0.1941 -0.1014
21923W        W38397   9.907  14.936  12.849 -0.0260 -0.1356  0.0463
21924W        W38398   7.588   8.512   1.013 -0.3406  0.0000  0.0745
21925W        W38399  14.665   8.643   2.096 -0.1178  0.1472  0.0733
21926W        W38400  15.678   0.999  12.962 -0.1016  0.0174 -0.2644
21927W        W38401   8.047  17.884  15.654 -0.1146 -0.0897 -0.0033
21928W        W38402   9.484   8.284  11.031 -0.0521 -0.1745  0.5068
21929W        W38403   1.069  11.632   4.126 -0.0636 -0.0872  0.1459
21930W        W38404  11.442  11.404   1.835  0.2885 -0.0784  0.1452
21931W        W38405  16.192  14.649   1.876 -0.0318 -0.0310 -0.3315
21932W        W38406  17.406   6.309  13.975 -0.0669  0.0256  0.0107
21933W        W38407   5.850   4.422   1.623  0.2481  0.1108 -0.3815
21934W        W38408   3.463  12.499   0.119  0.1898 -0.4131  0.0803
21935W        W38409   7.068   8.521   5.100  0.2582 -0.4284  0.1753
21936W        W38410   8.269   5.691   0.865 -0.1833  0.0363  0.0842
21937W        W38411   9.363   6.687  13.958 -0.0874 -0.1182  0.0750
21938W        W38412   3.525   7.995  13.763 -0.0841  0.1872 -0.1256
21939W        W38413   8.547  10.219   3.580  0.1074  0.3863 -0.1307
21940W        W38414   9.737   4.762  12.910  0.0326  0.1886  0.1094
21941W        W38415   1.942  11.103  13.833  0.2823 -0.1020  0.0593
21942W        W38416  17.310   3.796  15.772  0.1088 -0.1996  0.1929
21943W        W38417  14.406   8.299   5.359  0.1964 -0.1301 -0.0932
21944W        W38418   4.880   6.192   4.640 -0.2822  0.2121  0.2014
21945W        W38419  15.782  15.483   0.822  0.1025  0.1034  0.0979
21946W        W38420   9.070   8.934  13.874 -0.1380 -0.0707 -0.2708
21947W        W38421   9.750   6.774   1.588  0.1887 -0.1720 -0.2389
21948W        W38422  15.325   5.793   1.905  0.0314 -0.1247  0.1738
21949W        W38423   9.820   3.463  12.091  0.1841 -0.2454 -0.0625
21950W        W38424  13.664   8.971   3.513 -0.3365 -0.1828 -0.3498
21951W        W38425  11.657  13.680   5.280 -0.0168  0.0747 -0.1888
21952W        W38426   7.343   8.183   2.584  0.1390 -0.0724  0.0971
21953W        W38427  17.900  10.179   5.060  0.3922 -0.1555  0.0014
21954W        W38428  14.077   9.762   0.210  0.1697  0.1784  0.1467
21955W        W38429   4.198  15.745  10.398 -0.1081 -0.2945  0.1600
21956W        W38430   0.972  10.218  13.347  0.0195  0.0794  0.2843
21957W        W38431  10.165   6.988  13.071 -0.0878  0.2403  0.0095
21958W        W38432   6.847  13.329  11.931  0.1517 -0.1964 -0.1162
21959W        W38433  15.381   1.419   0.807 -0.1013 -0.2188 -0.0159
21960W        W38434   1.786   8.029  13.440 -0.1429  0.2888  0.0832
21961W        W38435   6.184  18.119  14.969 -0.0535  0.0572  0.2230
21962W        W38436  11.742   9.465   4.790 -0.0338 -0.1505  0.2623
21963W        W38437   6.728  10.704   1.245 -0.0048  0.0373 -0.0857
21964W        W38438  13.044   6.444  15.446 -0.0885 -0.0318 -0.0351
21965W        W38439   3.506   7.150  15.216  0.0352  0.0256  0.1313
21966W        W38440   2.273   7.327   2.611  0.2397 -0.0037 -0.2146
21967W        W38441   8.151  16.072  14.454 -0.0435  0.3351 -0.2254
21968W        W38442  13.502   1.436  15.378  0.0771 -0.2671 -0.0088
21969W        W38443   5.326  17.053   0.293  0.1106 -0.1423  0.3129
21970W        W38444   6.091  11.436   0.108  0.2943  0.1618 -0.3006
21971W        W38445   2.566  15.748   4.913  0.0308  0.0992  0.0866
21972W        W38446   1.035   9.414   1.682 -0.3128  0.1436  0.1097
21973W        W38447  16.296  15.713   4.859  0.0540 -0.0957  0.1474
21974W        W38448  11.708  17.362  15.487 -0.2814 -0.2282 -0.0833
21975W        W38449  16.608  11.135  12.641  0.0319 -0.0790  0.2229
21976W        W38450   8.046  16.600   4.546 -0.0661  0.0843  0.0044
21977W        W38451  16.177  14.670  14.537  0.2568  0.2957 -0.1258
21978W        W38452  16.323   1.733   4.695  0.3771 -0.0974  0.1823
21979W        W38453   1.519  10.185  12.129  0.1702 -0.0664  0.0778
21980W        W38454   8.826   2.342   0.020  0.1616  0.2143  0.1893
21981W        W38455   1.707  16.740  15.487  0.0570 -0.0371  0.2307
21982W        W38456  11.627  12.320  13.360 -0.1263  0.2060  0.1441
21983W        W38457  11.532  12.822   0.994  0.0681  0.3667 -0.1244
21984W        W38458  13.227   2.397  12.176  0.1226  0.2825 -0.2280
21985W        W38459  18.223   8.438  12.589 -0.2154 -0.2005  0.0619
21986W        W38460   2.243   2.374   2.513  0.0027  0.1327 -0.0314
21987W        W38461   3.394  15.967  11.891 -0.0179  0.0270  0.0215
21988W        W38462  18.370  10.882   3.441  0.3740  0.3098  0.2551
21989W        W38463  10.186   2.606  10.550  0.1670 -0.3197  0.0863
21990W        W38464   9.121  17.535   0.970 -0.3361 -0.2682 -0.0604
21991W        W38465   6.802   2.859   2.772 -0.1642  0.0040 -0.2141
21992W        W38466   4.279   8.471   4.976 -0.1489 -0.2824  0.1324
21993W        W38467  11.885   8.367  11.430  0.3392 -0.3682 -0.0049
21994W        W38468  17.145   4.965  12.969  0.3046 -0.3292 -0.1565
21995W        W38469   3.996   0.131  14.268 -0.2793  0.0530 -0.0114
21996W        W38470  12.384  17.808   1.998  0.1113 -0.0026 -0.0813
21997W        W38471  12.210  11.425   2.260  0.2741 -0.1535  0.1306
21998W        W38472   0.254   5.068   3.325 -0.2889 -0.0787  0.2150
21999W        W38473   8.805  10.511   1.303  0.1182 -0.0145 -0.2980
22000W        W38474  16.814  16.535  10.035 -0.0948  0.2428 -0.1544
22001W        W38475   4.152   1.272  13.207 -0.1623  0.0712  0.1195
22002W        W38476  11.152  15.490  10.264  0.1274  0.0589 -0.1136
22003W        W38477  16.920   2.968  13.714 -0.1017 -0.1049 -0.1484
22004W        W38478  12.456  11.345   0.332 -0.0369 -0.0837  0.1177
22005W        W38479   9.327   3.433   3.343 -0.2891 -0.1207  0.0866
22006W        W38480   7.362  11.220  11.541 -0.2892 -0.2356 -0.1137
22007W        W38481   5.355  10.984   3.072  0.3336 -0.1819 -0.0243
22008W        W38482   2.324   4.160  12.098  0.0560 -0.1540  0.0931
22009W        W38483   5.309  10.659   2.682  0.4250  0.0291 -0.0079
22010W        W38484  15.856   3.432  10.236  0.2274 -0.1418 -0.0116
22011W        W38485   6.217  14.813  15.036 -0.0015  0.1730 -0.3167
22012W        W38486  13.540  16.889  12.209  0.1796 -0.0300 -0.2125
22013W        W38487   4.219   9.862   4.029  0.0177 -0.0055 -0.2890
22014W        W38488  15.546  12.240  13.669 -0.0821 -0.1551 -0.1456
22015W        W38489   4.300  12.817  12.797  0.3873 -0.3241 -0.2024
22016W        W38490   1.820   3.251  15.303  0.1715 -0.0965 -0.0923
22017W        W38491  10.039   5.943  14.971 -0.0070 -0.3243 -0.0922
22018W        W38492  10.003   6.705   0.201 -0.0296  0.1218 -0.0508
22019W        W38493   0.330   9.803  14.293  0.3518  0.0891 -0.0405
22020W        W38494  17.360  15.719   3.762  0.2576  0.1036  0.0586
22021W        W38495  13.400   8.549   4.314 -0.1786 -0.0598  0.1860
22022W        W38496  15.437  14.329   2.783  0.0148 -0.1654 -0.1935
22023W        W38497  17.864  16.190  14.817 -0.1212  0.0035  0.2367
22024W        W38498  12.621  14.857  11.765 -0.0776 -0.0272  0.1593
22025W        W38499  13.075  12.166  13.449  0.0603  0.4518  0.0076
22026W        W38500  15.588   0.571   4.365  0.2184  0.1092  0.0448
22027W        W38501  18.341  13.549  13.986 -0.0327  0.1073  0.0394
22028W        W38502   5.238   0.315  14.783 -0.0683  0.0730  0.2259
22029W        W38503   3.935   8.977   1.964  0.2784  0.1134 -0.1677
22030W        W38504   3.691  15.352   4.385 -0.0572 -0.0496 -0.1119
22031W        W38505   9.002  16.452   2.690  0.1359  0.0213  0.0948
22032W        W38506  17.200   7.577   1.211  0.0563 -0.0820 -0.2465
22033W        W38507  10.890  17.636   3.496 -0.1006  0.1848 -0.2974
22034W        W38508   6.503   0.457  10.458  0.0087 -0.1201  0.3316
22035W        W38509  10.048  14.137   0.792 -0.2070  0.2381 -0.0592
22036W        W38510   8.835   6.459   1.619  0.1516 -0.1935  0.0383
22037W        W38511   7.093   2.431   2.966 -0.2223  0.1187  0.0930
22038W        W38512   3.433   4.706  11.207 -0.0487  0.3141 -0.0105
22039W        W38513  13.856   9.755   4.584 -0.1596  0.0173  0.1570
22040W        W38514  18.130   8.115   1.047 -0.1491  0.2950 -0.1339
22041W        W38515   3.608   5.399  15.606  0.0839 -0.0705  0.0482
22042W        W38516   7.780   9.174  15.305 -0.0701 -0.0178  0.2390
22043W        W38517   1.941  14.873   0.253 -0.0391 -0.1605 -0.1915
22044W        W38518  17.810   0.677   2.294  0.0752  0.1767  0.2070
22045W        W38519   9.463  18.102   1.671 -0.1364  0.0210  0.0577
22046W        W38520  17.907  15.321  14.700 -0.2389  0.0203 -0.0940
22047W        W38521   4.438   3.946  15.936  0.0668 -0.0459  0.0081
22048W        W38522   0.544   2.539   3.572 -0.1030  0.0728  0.2122
22049W        W38523  15.571   8.743   1.645  0.0482 -0.1933 -0.1124
22050W        W38524  13.222  10.878  13.780 -0.1599  0.1015  0.2133
22051W        W38525  14.533   9.020   1.692  0.1051 -0.4256  0.2107
22052W        W38526  14.495  10.512  12.243 -0.3244 -0.1786 -0.1313
22053W        W38527  10.699   7.024   4.403  0.1088  0.1516  0.5723
22054W        W38528   1.260   7.702  15.654 -0.0950 -0.0758 -0.0952
22055W        W38529  14.787   6.213  11.966  0.1724 -0.0390 -0.0825
22056W        W38530  12.341  11.547   5.162 -0.0441  0.3634  0.2184
22057W        W38531   7.008  15.238  15.438  0.1114  0.0605  0.0496
22058W        W38532   5.807   8.588  13.298 -0.0848  0.1635  0.0269
22059W        W38533   0.203   8.829   3.998 -0.2317 -0.3018 -0.0381
22060W        W38534   2.734   1.531  14.362 -0.1609 -0.2447 -0.0192
22061W        W38535   9.277   7.830  12.299  0.1983 -0.1127 -0.2368
22062W        W38536   1.788   0.825   4.176  0.1128 -0.2942 -0.0932
22063W        W38537   6.969  13.988  15.516  0.3822  0.0266  0.1513
22064W        W38538   8.747   7.976   0.611 -0.0674 -0.1307 -0.2930
22065W        W38539  10.033   7.853  15.889 -0.0527 -0.3121  0.1643
22066W        W38540   9.817  12.020   5.826 -0.1295 -0.2031 -0.1350
22067W        W38541  13.051   4.822  12.574  0.2410 -0.1518 -0.1256
22068W        W38542  11.269   0.233  14.944 -0.0131  0.3352 -0.0342
22069W        W38543  13.245  17.617  15.464  0.0453 -0.1952 -0.0571
22070W        W38544   8.055   3.573   3.083  0.2432 -0.1223 -0.0378
22071W        W38545   9.094  14.483  12.609  0.3996 -0.1475  0.1720
22072W        W38546   9.070   7.232   4.337  0.0819 -0.6441  0.3840
22073W        W38547   0.543   8.176   2.925 -0.2908 -0.1786  0.1675
22074W        W38548  13.118  15.791   1.548 -0.2636 -0.2361 -0.2774
22075W        W38549   6.023   3.468  15.292 -0.0783  0.2128 -0.1646
22076W        W38550  12.532   8.697   1.696  0.0434  0.2363  0.0320
22077W        W38551  10.405  16.148  15.956  0.4899 -0.4284  0.3461
22078W        W38552   5.641  13.765   5.410 -0.0023  0.1819 -0.0187
22079W        W38553   8.780   2.381   1.933  0.1164  0.2778 -0.2352
22080W        W38554   7.433   4.229   4.513  0.0590  0.0617 -0.1362
22081W        W38555   5.500   4.747   2.926  0.1435 -0.1553 -0.0584
22082W        W38556   1.613  13.003  14.947 -0.1293 -0.2408 -0.1254
22083W        W38557  13.085  14.320   2.372  0.1087  0.1737  0.1975
22084W        W38558   5.286   6.047   2.764  0.0356  0.1684  0.3198
22085W        W38559  15.049   2.922  13.337  0.0635 -0.0265  0.1688
22086W        W38560   2.356   1.224  13.804 -0.0612 -0.0174  0.1100
22087W        W38561  15.909  13.176  13.327  0.1165 -0.4240 -0.1280
22088W        W38562   4.809   0.831   0.881 -0.2564 -0.1641  0.0219
22089W        W38563   7.723  10.861   2.674  0.1361  0.0315  0.0094
22090W        W38564  12.554  14.772   3.639 -0.1759 -0.0289  0.4188
22091W        W38565   8.011   1.510  13.386 -0.0962 -0.2361  0.0680
22092W        W38566  13.085   8.124  12.175  0.2261 -0.1886 -0.1118
22093W        W38567  11.300   6.967  15.529  0.2625 -0.1411 -0.1085
22094W        W38568   5.843  15.563  13.739  0.0463 -0.0496  0.1788
22095W        W38569  17.482   1.292   2.857  0.1703  0.0031 -0.1127
22096W        W38570   7.322  15.543   5.413  0.0400 -0.1075  0.1205
22097W        W38571   0.947   5.229   4.972 -0.1948  0.1788  0.0839
22098W        W38572   0.306   4.524  14.972 -0.1070  0.2914  0.0579
22099W        W38573  17.485   0.361  14.109  0.2157 -0.0833  0.2352
22100W        W38574  16.500   7.147   1.484 -0.1275 -0.1988 -0.0998
22101W        W38575   0.134  16.420   4.059 -0.2442  0.0540 -0.1841
22102W        W38576   6.210  11.334  12.287 -0.1687  0.0757 -0.0398
22103W        W38577   7.776   5.207  13.323 -0.1125  0.1042 -0.1193
22104W        W38578   4.141   3.397  13.051  0.0265 -0.2140 -0.0115
22105W        W38579   7.094   2.755   4.279 -0.0453  0.2783 -0.0090
22106W        W38580   3.304   8.435  15.041 -0.0480  0.1543  0.2251
22107W        W38581   8.811   2.758   4.185  0.1141 -0.1337 -0.2982
22108W        W38582   6.012  12.191   3.672  0.0629 -0.0350  0.2702
22109W        W38583  14.651   6.122   4.474 -0.0349  0.0915  0.2173
22110W        W38584  16.469   5.644  14.847 -0.2374  0.1299  0.0339
22111W        W38585  15.823  11.353  15.044  0.0399 -0.0035  0.1668
22112W        W38586   8.376   4.541   1.372  0.2818 -0.1472  0.1566
22113W        W38587  15.467   8.434   4.438 -0.2149 -0.2665 -0.0415
22114W        W38588   5.081   4.839   1.973 -0.1093 -0.1036 -0.0379
22115W        W38589   0.167   9.134   3.604  0.0214 -0.1678  0.3261
22116W        W38590   6.495   0.969  11.266 -0.2598  0.1637  0.1400
22117W        W38591   3.364   4.090  14.456 -0.3050  0.0016  0.3349
22118W        W38592   0.291  15.349   4.967 -0.2758 -0.2422 -0.1272
22119W        W38593  15.643  11.090   3.258  0.0887  0.2801  0.1433
22120W        W38594  10.776   6.762  15.569 -0.1644 -0.1669 -0.2645
22121W        W38595  18.277   8.602   5.172 -0.0927 -0.0619 -0.1442
22122W        W38596  15.088  13.443  12.280  0.0736  0.1374  0.1981
22123W        W38597   8.229  15.582   0.846  0.2118 -0.3156 -0.1588
22124W        W38598   0.582   5.226  15.369 -0.2013 -0.2344 -0.0213
22125W        W38599   4.361   4.336   0.266 -0.0172 -0.1898 -0.1049
22126W        W38600   7.147   1.938  12.154 -0.1264 -0.1106 -0.1392
22127W        W38601   3.739   8.920   2.839  0.1504 -0.3562  0.1933
22128W        W38602  11.188  17.523  15.423 -0.1751 -0.0622  0.0046
22129W        W38603   7.267  17.988  13.504  0.1391  0.0859 -0.2622
22130W        W38604   5.215  12.675   2.070  0.0205 -0.0694 -0.0760
22131W        W38605  17.225  12.673  14.295 -0.0755  0.3321  0.0192
22132W        W38606   2.331   3.576  15.496 -0.1490  0.2459  0.0424
22133W        W38607   6.836   0.195   1.564 -0.1422 -0.2932 -0.0795
22134W        W38608   0.760   9.747  14.402  0.0109  0.0543  0.0423
22135W        W38609  13.162   1.351  14.034  0.1564 -0.0189  0.0027
22136W        W38610   3.673  15.035  12.062 -0.0458  0.2110 -0.2812
22137W        W38611   8.202  18.444  11.335 -0.0692  0.0649  0.2193
22138W        W38612   5.658   5.399  14.588 -0.1068  0.3740  0.2436
22139W        W38613   5.184   7.156   3.946  0.0866 -0.0721  0.1989
22140W        W38614   8.462  10.841   3.524  0.2175  0.2571 -0.0551
22141W        W38615  14.693   4.380   0.781 -0.2219  0.0086 -0.3223
22142W        W38616   8.602  16.569  11.892 -0.2620 -0.2086  0.4599
22143W        W38617  13.818   4.265   3.037 -0.2130  0.2204  0.0500
22144W        W38618   3.945   9.973  12.900  0.2665 -0.0079  0.1746
22145W        W38619  13.683  16.126  14.787 -0.3304 -0.0588 -0.0408
22146W        W38620   7.867  16.584  15.507 -0.0243  0.0577 -0.0435
22147W        W38621   4.946   3.209  11.013 -0.1024 -0.2779  0.0447
22148W        W38622   7.757   1.329  13.791 -0.0801  0.0947 -0.0507
22149W        W38623   4.687   4.745   2.457  0.0831  0.1093  0.0933
22150W        W38624  13.513   9.860   2.286 -0.5077  0.1505  0.3038
22151W        W38625  17.864   2.288  11.529 -0.0709  0.0628 -0.2380
22152W        W38626  12.874   5.292  13.900  0.1041 -0.1232 -0.0382
22153W        W38627  10.414  15.816   4.154  0.0692 -0.0447 -0.2089
22154W        W38628   5.067  14.212  12.908  0.0275  0.0590 -0.1427
22155W        W38629   7.648  10.026  15.088 -0.0515 -0.0580 -0.1256
22156W        W38630  10.784   0.039   0.401  0.3736  0.1095 -0.0644
22157W        W38631   3.969  14.047  13.566  0.0458 -0.1741 -0.0895
22158W        W38632   7.252  14.781  10.157  0.2070  0.2582 -0.0315
22159W        W38633   9.890   4.566   3.671  0.1967  0.1772 -0.0571
22160W        W38634  11.254   9.080   1.275  0.2384  0.2890  0.0469
22161W        W38635  14.112   6.068  15.969 -0.2255 -0.1387 -0.3010
22162W        W38636   0.408   5.684  15.867 -0.0415 -0.0364  0.3801
22163W        W38637  12.702  11.261   5.287  0.1278 -0.2113 -0.2762
22164W        W38638  14.596  15.403   3.136 -0.1582 -0.0479  0.0574
22165W        W38639  12.039  12.633  15.688  0.0348  0.1027  0.0240
22166W        W38640   7.885   4.528   1.247  0.0782  0.1273  0.1940
22167W        W38641  13.199   7.042  12.095 -0.1073 -0.0175  0.0735
22168W        W38642  16.321  12.966  15.489  0.0309  0.1076 -0.0566
22169W        W38643  15.159   6.177  13.044 -0.3753 -0.2965 -0.0416
22170W        W38644  17.999   8.647   1.884 -0.1846  0.0274  0.0557
22171W        W38645  18.008  15.247  11.069  0.1471  0.0247  0.2512
22172W        W38646   6.264  12.725  15.246 -0.2120 -0.2497 -0.1220
22173W        W38647   5.154   4.142   0.710  0.5738 -0.3057  0.1666
22174W        W38648  13.930   2.779  15.200  0.1228 -0.2351  0.1154
22175W        W38649   2.346   3.887  11.672  0.0709 -0.0409 -0.0178
22176W        W38650  14.366  14.473   0.274 -0.0895 -0.0221 -0.1666
22177W        W38651  13.997   0.665   4.130  0.0063 -0.3600 -0.2776
22178W        W38652   8.652   0.349  11.986  0.1887  0.1636 -0.1523
22179W        W38653  16.883   6.429  13.638  0.0929  0.1223  0.0302
22180W        W38654  10.909   3.710   3.754 -0.3306 -0.1522  0.0283
22181W        W38655   3.373  11.996   0.249 -0.0017  0.1162 -0.1504
22182W        W38656   0.754  12.049   4.298 -0.1813  0.0874  0.3073
22183W        W38657   6.698   5.386  12.817  0.1853 -0.0460  0.0345
22184W        W38658   6.944  14.125  11.213  0.2496  0.0483 -0.1875
22185W        W38659   1.578  18.338  10.603 -0.2658  0.2549 -0.1884
22186W        W38660  14.832   7.936   4.433  0.4882  0.1516 -0.3012
22187W        W38661  12.055  14.651  13.753  0.3127  0.0072 -0.1684
22188W        W38662   6.245  11.672  15.150  0.1518 -0.1549  0.0223
22189W        W38663  14.189  14.494   2.320 -0.0616  0.1831  0.0769
22190W        W38664  12.367  17.692   3.307  0.1528  0.1160 -0.1334
22191W        W38665  12.566  12.113  13.737 -0.0373 -0.1888  0.2166
22192W        W38666   7.961  14.901   1.855 -0.0792 -0.0212  0.1998
22193W        W38667   8.612  14.844   0.135 -0.0412 -0.0854  0.0253
22194W        W38668  14.885   6.185   0.592  0.1334  0.1948  0.1382
22195W        W38669   5.587   9.800   0.042 -0.2483  0.2305 -0.0468
22196W        W38670  10.905  13.366  12.015 -0.1508 -0.0116 -0.0779
22197W        W38671  15.660   7.441   1.166  0.2298  0.2533  0.5511
22198W        W38672  16.685   6.008  10.909  0.1364 -0.0323  0.2435
22199W        W38673   0.869   2.915   3.419 -0.1648  0.1040 -0.0458
22200W        W38674   8.064   8.418  12.823 -0.1417  0.0726  0.0018
22201W        W38675   4.801   0.403  13.413 -0.0372 -0.2226  0.0755
22202W        W38676  13.426   8.420  12.335  0.0039  0.0560  0.3893
22203W        W38677   2.318   3.455   4.047  0.1252 -0.0448  0.0285
22204W        W38678  17.013   2.872  12.232  0.2565  0.0422  0.1359
22205W        W38679  16.823  15.953  13.396 -0.0099  0.0111  0.4144
22206W        W38680  17.419  11.119   0.782  0.3094  0.0350  0.3227
22207W        W38681  15.963  16.807   0.834  0.3106  0.0906  0.1783
22208W        W38682   2.853  12.124   0.514 -0.0398  0.0810  0.2968
22209W        W38683  16.400  14.719  12.374  0.1962 -0.3831 -0.1759
22210W        W38684  14.026   1.093  11.161  0.2993 -0.1390  0.2436
22211W        W38685  13.943   9.239  13.296  0.1264  0.0769  0.0543
22212W        W38686  16.529   2.638   5.575  0.1010  0.0004 -0.1644
22213W        W38687  18.016   2.266  15.017 -0.0347  0.2186  0.4453
22214W        W38688   7.245  18.188   2.858  0.0181 -0.0984 -0.1263
22215W        W38689   7.526  13.617  13.580  0.2221 -0.1636 -0.2483
22216W        W38690  14.888   8.549   3.696 -0.0577  0.1626 -0.1013
22217W        W38691   3.645   2.437   2.163  0.0072 -0.2092 -0.1140
22218W        W38692   8.592   1.529   3.838 -0.0142  0.3335  0.4896
22219W        W38693  14.017  17.312   1.189  0.1356  0.1410 -0.1356
22220W        W38694   7.806   4.522  14.506 -0.1812 -0.1850 -0.2480
22221W        W38695  18.304  10.766   1.018 -0.3897 -0.0230  0.0835
22222W        W38696  17.650   7.250  11.654  0.0451  0.1107  0.3144
22223W        W38697  17.525   5.135   1.494 -0.1145  0.3105  0.1375
22224W        W38698  12.190  14.147   5.525 -0.1223 -0.2724  0.1717
22225W        W38699   4.023  12.608  14.532 -0.1033 -0.3594 -0.0532
22226W        W38700   3.847   3.166   0.966 -0.2008  0.1513 -0.1040
22227W        W38701   0.749   6.682   5.121 -0.1873 -0.1804 -0.3258
22228W        W38702   1.143  16.802   3.773 -0.0559  0.1033 -0.0805
22229W        W38703   7.959  12.564  13.827  0.0710 -0.0588 -0.4437
22230W        W38704   4.392  16.911   3.596  0.2731  0.3611 -0.1465
22231W        W38705  11.892   9.560  10.760 -0.0068  0.1355  0.2007
22232W        W38706   5.652  12.200  14.072  0.0690 -0.2077  0.0178
22233W        W38707   3.243  14.977  11.811  0.3130  0.4448 -0.1017
22234W        W38708  15.052   6.649  12.868 -0.0865  0.2907 -0.0844
22235W        W38709  10.458  13.800  14.371  0.0725  0.0330 -0.1351
22236W        W38710   8.500   4.849   3.114  0.1474  0.1917 -0.1854
22237W        W38711   1.042   3.675   2.113 -0.1569  0.0560  0.1422
22238W        W38712  17.103  16.907   6.118 -0.0290  0.0063 -0.1338
22239W        W38713   7.856  18.310  12.167  0.0960 -0.0132 -0.1077
22240W        W38714  17.541  13.281  13.038  0.0682  0.0661  0.0875
22241W        W38715  14.730   6.061  11.432 -0.1656 -0.1797  0.0838
22242W        W38716   4.519   7.808  14.255 -0.2679 -0.1307  0.1683
22243W        W38717  16.040  12.114   5.266  0.1317  0.0431 -0.0611
22244W        W38718   7.735  17.580  10.952 -0.1867 -0.0622  0.1838
22245W        W38719  15.961  13.618   4.548  0.1648 -0.1839 -0.0299
22246W        W38720   4.612   2.144   1.736  0.0756  0.3577 -0.1849
22247W        W38721   0.638   3.898   3.482 -0.2801 -0.2016  0.0239
22248W        W38722  15.655   5.985  14.258  0.1298 -0.3475 -0.1414
22249W        W38723   4.254  11.938  11.014 -0.1402 -0.2278 -0.0239
22250W        W38724  17.677  15.667   4.645 -0.0150  0.1213 -0.0520
22251W        W38725   5.086   6.593  14.225  0.1625  0.1396 -0.0428
22252W        W38726  13.579  13.665  15.178 -0.1826 -0.0666 -0.1965
22253W        W38727  17.864  14.331  15.768  0.0229  0.3295 -0.2277
22254W        W38728   5.888  13.328  11.492  0.2019 -0.0711  0.1151
22255W        W38729   2.073   6.960  12.012  0.3981 -0.0129  0.0229
22256W        W38730   9.816  10.390   1.088 -0.1733  0.1253  0.2525
22257W        W38731  11.066   7.168   1.395  0.0498  0.1058  0.1610
22258W        W38732  18.289  11.099   2.317  0.2568  0.2540  0.0382
22259W        W38733   3.706  18.093  13.539  0.2953  0.2562 -0.1810
22260W        W38734   2.100   2.503  13.379 -0.0277 -0.1450 -0.1712
22261W        W38735  15.210   3.074  14.383  0.2124  0.1069  0.3276
22262W        W38736   0.404  11.496   0.661 -0.1299  0.2822  0.0934
22263W        W38737  12.433   7.767  15.428 -0.1972 -0.0775  0.0372
22264W        W38738  16.690  17.135   3.510  0.3039 -0.2890  0.2219
22265W        W38739   3.164   4.317  13.085 -0.1930 -0.3515 -0.0363
22266W        W38740  15.592  16.952  12.881 -0.3983 -0.0468 -0.1768
22267W        W38741   1.262  11.807  12.010  0.0909  0.2707  0.1396
22268W        W38742   6.023   3.417   2.585 -0.0046 -0.1683  0.1366
22269W        W38743  12.106   4.269  13.749  0.1646 -0.0815 -0.1547
22270W        W38744  15.744   9.624  10.477 -0.2571 -0.1407 -0.0376
22271W        W38745  11.059   3.047  14.977  0.1198  0.0812 -0.1565
22272W        W38746   7.210  12.761   3.722  0.0078  0.0837  0.1671
22273W        W38747   5.792   5.920  13.983 -0.0443  0.1614 -0.2957
22274W        W38748   6.423  15.193   3.254  0.2775 -0.1263 -0.1605
22275W        W38749  12.427   2.025   4.171  0.2227  0.0143 -0.0029
22276W        W38750  17.375   0.344   0.912 -0.1408  0.2812 -0.1990
22277W        W38751  10.210   9.753   5.077 -0.1654 -0.2422 -0.2729
22278W        W38752   4.807   7.314   5.327  0.3252 -0.0084 -0.2765
22279W        W38753   5.060  17.736  10.195  0.2620 -0.0228 -0.1178
22280W        W38754  12.714   1.765   3.847 -0.5064  0.1143  0.0467
22281W        W38755  16.206  11.980  15.702  0.2884  0.3678  0.1115
22282W        W38756  10.134   7.140  15.348  0.2635 -0.3009 -0.0860
22283W        W38757   4.008  12.700   0.157 -0.0821 -0.0174  0.2335
22284W        W38758  11.431  12.976   2.180  0.1839  0.0781 -0.0929
22285W        W38759  15.981  13.775  12.664  0.0414 -0.1592 -0.2393
22286W        W38760   5.211  13.152   4.615 -0.0303  0.2335  0.0250
22287W        W38761   8.878  17.467   5.635  0.4648  0.0660 -0.0582
22288W        W38762   0.377  15.517   5.585  0.0887  0.0437 -0.1849
22289W        W38763  14.032   3.652  15.362  0.0356 -0.0802 -0.0946
22290W        W38764   4.049  10.863   0.156 -0.0345  0.1391  0.2802
22291W        W38765   8.758   1.768  15.947 -0.0588  0.0021  0.4114
22292W        W38766   8.461   4.467  15.075 -0.1614 -0.0397 -0.0744
22293W        W38767  15.311  14.957   2.162  0.1831  0.1185 -0.1872
22294W        W38768   1.432  11.048  11.872  0.2136 -0.0931  0.0535
22295W        W38769  11.412  18.124  14.079 -0.1294  0.0804 -0.1569
22296W        W38770   8.573   8.204   6.034 -0.0306  0.1395  0.3559
22297W        W38771   0.944   7.216   0.716  0.0436  0.1304  0.1907
22298W        W38772   2.641  17.308  12.293  0.0399  0.3362 -0.0783
22299W        W38773  15.514   1.438   3.148 -0.1589  0.1640 -0.5670
22300W        W38774  13.521  15.800  11.698 -0.3192  0.0546 -0.2905
22301W        W38775  12.485   5.989  13.626 -0.2119  0.3186 -0.1106
22302W        W38776   9.991   6.491   2.538  0.1082 -0.2332 -0.4740
22303W        W38777   2.019  10.019   4.964  0.3149 -0.0758 -0.0218
22304W        W38778   6.811   2.400   3.505  0.0825 -0.1848 -0.0633
22305W        W38779   0.146   0.362  12.803 -0.1492  0.3585  0.0152
22306W        W38780  14.508   6.305  14.758 -0.0564 -0.1201  0.1239
22307W        W38781  10.157  13.759   1.977  0.0369 -0.0396  0.0572
22308W        W38782   0.859   3.638   2.710 -0.1571  0.1525  0.1865
22309W        W38783  12.062   4.731  15.032 -0.0727 -0.1764  0.0137
22310W        W38784  12.939  18.040   2.233 -0.2413 -0.4159  0.1185
22311W        W38785  10.820  14.591  15.779  0.2870  0.1860 -0.0580
22312W        W38786  10.485  11.635   1.852  0.2869 -0.0058 -0.0086
22313W        W38787  14.645  16.287  13.367 -0.1677  0.1271 -0.0386
22314W        W38788   7.876  11.896   0.764 -0.0553 -0.3048  0.2255
22315W        W38789   9.637   5.903   3.931 -0.1043  0.1123 -0.3845
22316W        W38790   4.592  16.767  15.010 -0.1117 -0.0615 -0.3645
22317W        W38791   3.250  12.390  14.222 -0.0734 -0.2291  0.3509
22318W        W38792   3.228   6.490  15.370 -0.2327 -0.0263  0.1754
22319W        W38793  10.533  13.854  15.319 -0.1144  0.1244  0.0498
22320W        W38794  16.777   0.735   2.807  0.5209  0.1471  0.1055
22321W        W38795   7.605  14.178   0.734 -0.2937 -0.0466  0.3401
22322W        W38796   3.887  14.173   1.398  0.3449  0.2592  0.0334
22323W        W38797  14.830   3.561  15.032 -0.0360  0.3848 -0.1045
22324W        W38798  13.264   1.992  12.453 -0.2380 -0.0625  0.0714
22325W        W38799   5.651  12.618   3.399 -0.1272  0.0187  0.1500
22326W        W38800  11.465   2.670   3.112  0.2045  0.1597 -0.3549
22327W        W38801   9.068   4.164  14.954  0.0817 -0.0883 -0.2605
22328W        W38802   4.411   2.562  11.929 -0.3268 -0.1373  0.0155
22329W        W38803  11.103   1.391   2.371  0.1586 -0.2969  0.1628
22330W        W38804   2.058  16.146   5.606 -0.2596  0.2294 -0.0777
22331W        W38805  10.736  18.436   1.595 -0.0189  0.0374  0.2276
22332W        W38806   9.804   7.002  15.753  0.2551 -0.0093  0.0095
22333W        W38807   4.752   2.112   5.957  0.0710 -0.3435  0.1224
22334W        W38808   4.787  14.124  11.510 -0.1855 -0.1030 -0.2198
22335W        W38809  13.026  17.471   4.996  0.0356  0.2713 -0.2501
22336W        W38810   0.156   3.989  15.077  0.3299 -0.0708  0.0683
22337W        W38811   3.449   8.380   3.745  0.0776  0.1614 -0.1886
22338W        W38812   8.226   7.143   2.560 -0.0585 -0.0475 -0.0148
22339W        W38813  14.776   1.940   5.546 -0.0118  0.0070  0.0437
22340W        W38814  16.337  14.376   3.169  0.2046 -0.1428 -0.0656
22341W        W38815  16.100   3.291   2.248  0.3762 -0.1253  0.3281
22342W        W38816   4.708   2.146  11.904  0.1034 -0.0358 -0.0229
22343W        W38817  15.747  18.420   3.408 -0.1527 -0.0645  0.0911
22344W        W38818   1.325   6.329   2.456  0.1162  0.2453 -0.1997
22345W        W38819  12.309  12.014   0.283  0.3359  0.0974 -0.0128
22346W        W38820   4.723  11.412   2.509 -0.2885  0.1763 -0.0387
22347W        W38821  14.029  13.941  11.437 -0.0857 -0.1155  0.0927
22348W        W38822  11.517  13.254   2.892 -0.0940  0.0874 -0.0622
22349W        W38823  16.972  16.753  11.530  0.2002  0.3892 -0.1009
22350W        W38824  11.957   4.242   5.474 -0.3421 -0.2403 -0.2043
22351W        W38825  15.618   1.407  14.920  0.0743 -0.1156 -0.1828
22352W        W38826  18.263  12.295  13.706 -0.0316 -0.0259  0.1263
22353W        W38827   5.554  14.044  12.127 -0.1678  0.1603  0.2213
22354W        W38828   9.587   3.186   0.982 -0.2237 -0.0211  0.0468
22355W        W38829   5.704  16.173   2.330  0.1709 -0.0991 -0.1916
22356W        W38830   3.845   8.596  10.908  0.0292  0.2004  0.2161
22357W        W38831   6.949   9.675   4.595 -0.1696 -0.2690 -0.1014
22358W        W38832   0.794  13.726  15.845  0.0266 -0.2226  0.0690
22359W        W38833  14.547   8.778   2.596 -0.2011 -0.2641 -0.1024
22360W        W38834   2.791  16.936  14.684 -0.1335 -0.0894 -0.0447
22361W        W38835  13.227   1.555  12.646  0.0067  0.3560 -0.3450
22362W        W38836   1.582  13.771  12.748  0.0333 -0.1947  0.0508
22363W        W38837   8.236  10.217  14.979 -0.3261  0.2951 -0.0333
22364W        W38838   0.510  15.247   3.462 -0.0405 -0.0001  0.0130
22365W        W38839  16.543   6.217   2.627  0.0525 -0.2096 -0.1457
22366W        W38840  14.096   7.625  12.857  0.0863 -0.3180  0.1534
22367W        W38841   0.104   3.438   3.739 -0.4126 -0.1097  0.1561
22368W        W38842   2.980   2.551   0.975 -0.0377 -0.0782 -0.2368
22369W        W38843  15.312  10.577  12.528  0.0385  0.0649 -0.1851
22370W        W38844   6.904   2.334   1.267  0.0749 -0.1672  0.1972
22371W        W38845   5.532   4.421  13.337  0.0247 -0.1371 -0.1724
22372W        W38846   5.863  17.949  15.684  0.2881 -0.0406  0.1120
22373W        W38847   2.141  14.095   4.455  0.0816 -0.1668  0.1900
22374W        W38848   7.741   1.928   5.126 -0.3812  0.1863 -0.0192
22375W        W38849  11.900   8.367   4.753  0.1389  0.1529 -0.0793
22376W        W38850   5.974  10.093  11.925  0.0659 -0.0210 -0.3603
22377W        W38851  16.552   5.825  11.700 -0.2967  0.0355 -0.1080
22378W        W38852  15.993   2.835  13.603  0.0642 -0.0806 -0.0005
22379W        W38853  13.329  16.283   2.679 -0.2642  0.0664  0.0347
22380W        W38854  15.382   9.682  15.015  0.0912  0.0598  0.1211
22381W        W38855   0.160   4.026   0.515  0.1154  0.1073 -0.1873
22382W        W38856  10.089  13.801   3.779  0.0977 -0.1167  0.3656
22383W        W38857   8.239   5.307   0.532  0.1099 -0.0251 -0.0839
22384W        W38858   5.434   9.266  10.743  0.1535 -0.1017  0.1930
22385W        W38859   0.332  17.364   4.593 -0.0847  0.2647  0.0513
22386W        W38860  17.325   9.568  15.378 -0.0207 -0.2684 -0.1271
22387W        W38861  15.732  11.085  14.665  0.2402  0.0835  0.2141
22388W        W38862   5.568   9.118   5.913 -0.0306 -0.1410 -0.0458
22389W        W38863   8.924   8.626  15.387  0.0313 -0.0616  0.1626
22390W        W38864  17.543   4.674  14.934 -0.0839  0.2838  0.0937
22391W        W38865  14.179   9.116   5.074  0.1781 -0.2360  0.2156
22392W        W38866   9.594   9.482   1.590 -0.0606 -0.0755 -0.1795
22393W        W38867  13.113   4.893   0.452  0.0152 -0.3331 -0.0365
22394W        W38868  15.667   2.403  14.400 -0.1704  0.0156 -0.6341
22395W        W38869  17.680  14.033   4.508  0.1190  0.3041  0.1112
22396W        W38870   2.337   6.826   3.308  0.0332  0.0679 -0.0589
22397W        W38871  15.404  17.351   0.568  0.0953 -0.0956  0.0078
22398W        W38872  12.634   4.130  15.009  0.0087  0.1952 -0.0586
22399W        W38873  11.152   2.902   1.253  0.0571 -0.0521 -0.2480
22400W        W38874   7.681  11.978   5.032 -0.1947 -0.0067  0.2784
22401W        W38875  14.531  14.347  14.274  0.1193  0.0554  0.0851
22402W        W38876   8.163  15.285   5.650 -0.2373 -0.1896 -0.0969
22403W        W38877  16.789   4.966  13.854 -0.2335 -0.1519  0.0772
22404W        W38878  11.926  17.567  14.136 -0.1566 -0.0982 -0.1442
22405W        W38879   2.540   9.182  10.615 -0.3377  0.2545 -0.1516
22406W        W38880   1.073  16.951  14.609 -0.1071 -0.3110  0.0962
22407W        W38881  10.995  15.749  13.072  0.6018 -0.3671  0.1823
22408W        W38882  17.312   0.870  11.535  0.0674  0.2315 -0.0376
22409W        W38883   2.097  13.851   0.909 -0.0878  0.0488  0.0677
22410W        W38884  15.189   9.715  14.482 -0.1344  0.0455 -0.2912
22411W        W38885   1.070  10.141  12.745  0.4246 -0.4239  0.0571
22412W        W38886  10.884   3.682  11.756  0.3848  0.2208  0.1353
22413W        W38887  14.283   0.768  12.352 -0.0639  0.0721  0.0664
22414W        W38888  15.066   4.903  13.930  0.2081  0.1463 -0.0820
22415W        W38889  13.200   6.601  10.929 -0.0773  0.2137 -0.2758
22416W        W38890   3.020   6.273   1.802 -0.3106 -0.0449  0.1118
22417W        W38891   1.009   0.581   1.494  0.1112  0.1830  0.0717
22418W        W38892  16.720   8.662  12.479  0.1328 -0.2775  0.0721
22419W        W38893   2.644   4.616   4.752  0.0253  0.0990  0.3642
22420W        W38894   1.277   7.257   4.091 -0.1452 -0.0085  0.0441
22421W        W38895   9.731   1.126  12.592 -0.0114  0.5664 -0.0608
22422W        W38896   9.107  12.898  12.181  0.2754 -0.0454  0.1464
22423W        W38897  13.727   8.996   1.086 -0.2285 -0.3325  0.0100
22424W        W38898   7.563   1.922  11.289  0.0662 -0.0455  0.0366
22425W        W38899   6.176  18.429   5.666  0.1011  0.2539  0.0311
22426W        W38900   0.104  15.044   3.672 -0.2823 -0.1346 -0.0923
22427W        W38901   2.648  11.477  15.784 -0.2637 -0.1558 -0.0456
22428W        W38902  17.340  12.648   4.881  0.1536  0.4672  0.1127
22429W        W38903   1.857   6.380  14.781  0.4223  0.0366 -0.1756
22430W        W38904   0.179   8.875  12.056  0.3725 -0.1027  0.0574
22431W        W38905   4.119   6.432  13.293  0.1526 -0.2083  0.2307
22432W        W38906  15.802  15.638  15.537  0.0001 -0.0265 -0.3705
22433W        W38907   2.085   5.307  12.679  0.1161 -0.1207  0.0525
22434W        W38908   6.175   0.079  14.651  0.0852  0.0076 -0.1906
22435W        W38909  18.422  16.468  10.408  0.0449  0.1883  0.0911
22436W        W38910   4.967  11.269  12.075 -0.1242  0.0343  0.1457
22437W        W38911   9.039   6.447  14.300 -0.1256 -0.1335 -0.3484
22438W        W38912   7.290  11.882   0.569  0.0348  0.1073 -0.2702
22439W        W38913  11.617   4.726   2.155 -0.1103 -0.1777  0.1576
22440W        W38914   1.979   2.700   5.820 -0.3200 -0.0424  0.0298
22441W        W38915  14.035  18.474   2.274  0.3026  0.5167 -0.2447
22442W        W38916  16.854  10.069  13.196  0.1163 -0.0522 -0.1353
22443W        W38917  17.702   1.001   6.015 -0.2428 -0.0175 -0.0853
22444W        W38918   1.395   8.907   3.024 -0.2682  0.2005 -0.1474
22445W        W38919  16.843   6.738   0.826 -0.0783  0.0187 -0.1500
22446W        W38920  14.469  16.222  11.431 -0.0869 -0.4583  0.0796
22447W        W38921  15.619  11.132  13.840 -0.0728  0.3005  0.0619
22448W        W38922   0.197   5.145   0.849 -0.0922  0.0158  0.0968
22449W        W38923  14.352   6.033  11.828 -0.1966 -0.1058 -0.2343
22450W        W38924   9.359   0.510   3.169 -0.1569  0.1551 -0.1309
22451W        W38925  15.880   0.943   5.177 -0.1094 -0.0290  0.0147
22452W        W38926   4.397  16.694  14.105  0.2796 -0.3434  0.1217
22453W        W38927   8.203   5.221  12.103 -0.1236 -0.0123 -0.0323
22454W        W38928  15.173  11.527   5.692  0.2123  0.0063  0.1575
22455W        W38929   3.751   7.598  12.958  0.0893 -0.0027  0.0206
22456W        W38930  13.067   2.853  11.924  0.1901  0.4799 -0.4645
22457W        W38931  12.024  10.434  13.057  0.1450  0.1308 -0.1141
22458W        W38932   8.959   8.403   4.218  0.0762 -0.2601  0.0330
22459W        W38933  15.426  16.543   3.763 -0.1058  0.0090 -0.0468
22460W        W38934   6.704   8.851   1.095  0.0636 -0.3417  0.3342
22461W        W38935  17.138   8.425   5.126  0.0876  0.0347 -0.0092
22462W        W38936   0.722  12.131   3.335 -0.1022 -0.0221 -0.0420
22463W        W38937   9.434  11.357  10.431 -0.1039 -0.2049  0.2026
22464W        W38938  11.972  15.591   2.669  0.0385 -0.2345 -0.0090
22465W        W38939   9.151   6.869  14.616 -0.5126 -0.4396  0.1524
22466W        W38940   7.887   1.394  12.822 -0.0637  0.1817 -0.0011
22467W        W38941   1.352  12.034  12.459 -0.0212  0.0631  0.0144
22468W        W38942   7.108   4.997   1.622  0.0271 -0.0769 -0.4021
22469W        W38943  14.103   3.602  15.915 -0.1310  0.1424 -0.1214
22470W        W38944  14.200   4.576   2.665  0.1636  0.1352 -0.1893
22471W        W38945  10.548  13.965  13.870  0.1326  0.0849  0.1007
22472W        W38946  15.115   2.745   0.747 -0.0478  0.0006 -0.0502
22473W        W38947  10.876  13.803   0.517 -0.1077 -0.1339 -0.1018
22474W        W38948   9.312   9.532  13.009 -0.0503 -0.0060  0.0468
22475W        W38949   5.142   6.539  15.883 -0.0194  0.1600 -0.0679
22476W        W38950   7.206  12.630  14.490 -0.1474 -0.1213 -0.2966
22477W        W38951   0.148  10.189  12.031  0.4174  0.1452  0.0838
22478W        W38952   6.697   7.639   2.658 -0.2331  0.0863  0.0769
22479W        W38953   4.391   8.420   1.207 -0.0246  0.0626  0.1736
22480W        W38954  12.267  12.870  13.010  0.1167  0.0980  0.2477
22481W        W38955   2.039  15.983   1.320 -0.1629  0.1250 -0.3587
22482W        W38956  10.871  12.362   0.586  0.1369 -0.0325 -0.2467
22483W        W38957   9.309  14.321   0.049 -0.1965 -0.1703 -0.1982
22484W        W38958   0.512  12.655  11.524  0.1442 -0.0441 -0.0916
22485W        W38959  15.896   8.119  15.145  0.2190  0.0172  0.0036
22486W        W38960  16.618   1.121   0.423 -0.1175  0.1079 -0.1689
22487W        W38961  13.464   5.600   4.082  0.0620 -0.1980  0.1398
22488W        W38962   5.961   6.427  13.227 -0.1949  0.1903  0.2598
22489W        W38963   5.438   8.044  13.925  0.2044 -0.1806 -0.3488
22490W        W38964   3.886  15.433   1.913  0.2366  0.3768  0.3295
22491W        W38965   5.227   4.517  15.185  0.1416  0.0665 -0.2276
22492W        W38966  11.495   0.930   1.561  0.1801  0.0950  0.1015
22493W        W38967   2.030   5.801  12.654  0.1725  0.1225 -0.0088
22494W        W38968   3.906   6.764  11.613  0.0105  0.3567 -0.0834
22495W        W38969  14.156  13.980   1.656  0.1610  0.1462  0.0302
22496W        W38970  17.239   6.101   3.207 -0.0233 -0.2413 -0.0654
22497W        W38971  13.472  16.959  11.083  0.2886 -0.0242 -0.0833
22498W        W38972  11.328  15.447   3.693 -0.0741  0.1697  0.0348
22499W        W38973   5.544   1.210  11.658  0.1449  0.2002  0.3682
22500W        W38974   4.322  13.866   0.768  0.0155 -0.0123 -0.2981
22501W        W38975   7.906   2.972   4.767  0.3678  0.1038 -0.1210
22502W        W38976   2.049  11.994   0.324 -0.2067  0.0126  0.1516
22503W        W38977   2.834  10.016  13.947 -0.2334  0.3040  0.2321
22504W        W38978  12.085   9.278   5.100  0.1909  0.1744 -0.0284
22505W        W38979   4.309   2.962  13.117 -0.1293 -0.1811  0.0253
22506W        W38980  16.447   8.433  10.247  0.2905 -0.2154 -0.0011
22507W        W38981  11.868  17.546   0.794 -0.1337 -0.0733  0.0246
22508W        W38982  14.866   3.032  11.752  0.0082  0.0132 -0.0733
22509W        W38983   0.214  11.178  14.496  0.2614 -0.1369 -0.0948
22510W        W38984  16.217  12.499  11.531  0.0398 -0.3591 -0.2465
22511W        W38985  10.344   6.981   3.570  0.1105  0.2325  0.1493
22512W        W38986  12.205  11.501  14.966  0.1136  0.1830  0.2260
22513W        W38987   5.564   8.929   3.064 -0.1340 -0.1014  0.0209
22514W        W38988  12.214   9.291  12.250  0.0136  0.1499 -0.0541
22515W        W38989  12.654   7.493  12.779  0.2846 -0.2196 -0.2179
22516W        W38990   9.194   3.965   1.378 -0.2955  0.0533  0.2381
22517W        W38991  14.151   3.566  11.774  0.0628  0.1684  0.2573
22518W        W38992  14.038   7.853   3.720 -0.0597 -0.0385  0.0184
22519W        W38993   8.742   7.781  15.187  0.0746 -0.1066  0.0943
22520W        W38994  16.145   0.341   0.054 -0.2827 -0.1074  0.0155
22521W        W38995  17.263  13.367  15.424 -0.0415  0.4042 -0.0398
22522W        W38996  11.836  12.250   1.723 -0.2858  0.1322  0.1746
22523W        W38997   8.777  10.914   4.860  0.0244 -0.1295 -0.0814
22524W        W38998   0.409   3.718  12.472  0.2350  0.0401  0.0133
22525W        W38999   6.676   7.479  15.192  0.0264  0.0390 -0.3332
22526W        W39000  17.326  10.903   5.855  0.0091 -0.0068 -0.0926
22527W        W39001   6.289  11.032  15.818 -0.0335 -0.1244  0.0768
22528W        W39002  16.562   6.316   0.244 -0.1992  0.0430  0.0310
22529W        W39003  13.311  16.568  15.477 -0.4117 -0.2847  0.2939
22530W        W39004   2.526   6.356  13.068 -0.2145  0.1673 -0.1222
22531W        W39005   5.087  16.219  14.467  0.0477  0.0489 -0.0255
22532W        W39006   7.462   5.237  11.242 -0.0558 -0.1635 -0.2244
22533W        W39007   1.291   0.341   0.724  0.1575  0.1524  0.2316
22534W        W39008   9.051   0.600  12.560 -0.0542  0.1463  0.0246
22535W        W39009   1.460  14.045   0.308 -0.1488  0.0068  0.2047
22536W        W39010   5.003  11.446  13.902 -0.0213 -0.1442 -0.0137
22537W        W39011  17.626  13.323   3.864  0.0105 -0.3122  0.0207
22538W        W39012  17.682   0.168   2.366 -0.1807  0.0710  0.2960
22539W        W39013   7.724  12.467   4.868 -0.1328  0.0557  0.2748
22540W        W39014   2.797  13.295  11.582 -0.4725  0.0347  0.0067
22541W        W39015  16.856   8.869   3.283  0.0026 -0.0803  0.0136
22542W        W39016   3.713  13.340   2.925  0.1503 -0.1528  0.0543
22543W        W39017   2.281   0.829  14.873  0.2029 -0.2598  0.0143
22544W        W39018  16.933   5.216  13.455 -0.2120 -0.0865 -0.1106
22545W        W39019  11.638   3.507  14.092 -0.2954  0.0170 -0.1824
22546W        W39020  12.179  14.457   2.339 -0.0743  0.1198  0.1183
22547W        W39021  16.417  10.821  12.298  0.0252 -0.1681 -0.0685
22548W        W39022  10.048   9.254   1.576  0.2739  0.0374  0.1096
22549W        W39023   9.843   5.289  12.906  0.1418  0.0263 -0.0382
22550W        W39024  14.815   8.140  14.411  0.2813 -0.2663  0.0585
22551W        W39025  16.373  10.875  13.641 -0.0331 -0.1589 -0.1501
22552W        W39026   6.575  13.252  10.859 -0.2141 -0.2971 -0.1984
22553W        W39027  16.530   9.965   1.642  0.2099 -0.1697 -0.0975
22554W        W39028  15.250  16.469   5.689  0.1222 -0.0901 -0.1854
22555W        W39029   7.453   6.512  15.222  0.1245  0.3261 -0.3573
22556W        W39030  15.241  11.879  15.168 -0.1543  0.2212  0.1637
22557W        W39031   2.308   7.465   3.873  0.1893 -0.0170  0.1410
22558W        W39032   9.266   2.987   4.207 -0.1249  0.2197  0.0824
22559W        W39033   1.281   4.991   0.472 -0.0202  0.0769  0.2673
22560W        W39034  15.829  10.490  10.454 -0.0867 -0.2782  0.0237
22561W        W39035   7.924   6.762   2.805  0.0443 -0.1137 -0.1658
22562W        W39036  12.194  10.980  11.642 -0.1420  0.2944 -0.4091
22563W        W39037  16.439   6.624   1.325 -0.1285 -0.0677  0.0856
22564W        W39038   8.543   6.862   1.591 -0.1307 -0.1059 -0.1079
22565W        W39039  10.396   9.423   4.638  0.1322 -0.4013  0.0561
22566W        W39040   0.963  17.986   4.962  0.0486  0.1383  0.1865
22567W        W39041  17.839   0.554   1.084 -0.0430  0.0506  0.0195
22568W        W39042   7.436   9.672   4.799  0.1692  0.3828 -0.1304
22569W        W39043   3.685   5.857   0.280 -0.2026  0.0357  0.2347
22570W        W39044  11.190   7.971  13.817 -0.0605  0.0819  0.0033
22571W        W39045   2.444   8.937  14.746 -0.1139  0.2782 -0.2539
22572W        W39046   4.387  11.818   0.792  0.1065 -0.0257  0.1345
22573W        W39047  11.078  18.469  12.599 -0.2237  0.3820 -0.1036
22574W        W39048   1.790   9.622  14.197  0.0074  0.2789 -0.0262
22575W        W39049  17.956   8.369   3.974  0.0318 -0.0928  0.4118
22576W        W39050   7.887  16.155   2.995 -0.1230 -0.3449  0.1602
22577W        W39051  11.461  16.210  11.372  0.1677 -0.0176  0.1154
22578W        W39052   4.105   4.688   2.943 -0.4666 -0.1268 -0.1853
22579W        W39053   2.536   1.005  10.950 -0.0883 -0.0269 -0.3793
22580W        W39054   0.959   9.238  14.433 -0.1498  0.0860 -0.2102
22581W        W39055  12.132   6.359  11.702 -0.1565 -0.1744 -0.1023
22582W        W39056   0.499  15.746   2.435  0.0924 -0.3239 -0.1882
22583W        W39057  14.088  13.147   5.631 -0.0904 -0.2540  0.2101
22584W        W39058   9.618   6.295   0.838 -0.2335  0.0256  0.1739
22585W        W39059   3.889   6.201   2.152  0.3028 -0.1904  0.0224
22586W        W39060  16.323   5.073  12.704 -0.3019 -0.1199 -0.2247
22587W        W39061  14.088   5.387   2.403  0.0201  0.2059 -0.1986
22588W        W39062   5.301   6.839   3.558 -0.1040 -0.0875 -0.0034
22589W        W39063  15.305   4.343   1.729 -0.2044  0.2972 -0.0408
22590W        W39064   9.733  16.256  14.819 -0.0160 -0.1389  0.1875
22591W        W39065   1.319   8.183  15.588  0.2595 -0.0682 -0.0867
22592W        W39066  15.964   3.761   4.587  0.3598  0.2155 -0.1557
22593W        W39067   3.520   6.163  11.984  0.0224 -0.2457  0.0269
22594W        W39068  15.579   3.740  15.095  0.2378  0.1963 -0.0563
22595W        W39069   0.068  17.365   5.125  0.2487  0.2183  0.0265
22596W        W39070   2.299   3.747  13.791 -0.0718  0.0024 -0.0645
22597W        W39071   6.428   2.002   3.901 -0.1860  0.0911 -0.3076
22598W        W39072  14.257   0.390  11.559  0.0144 -0.2419  0.1623
22599W        W39073  17.895  17.341   2.707 -0.0424  0.0294  0.2194
22600W        W39074  13.238  13.188   3.819 -0.2323  0.2076  0.4761
22601W        W39075  10.847  14.096   5.154 -0.2604  0.2572 -0.1691
22602W        W39076   0.115  12.423   4.352  0.0339 -0.1875 -0.0405
22603W        W39077   7.817   9.529   0.422 -0.3074 -0.0474  0.0258
22604W        W39078  14.656  15.318  14.237  0.0911  0.0895 -0.2511
22605W        W39079   7.378   7.199   2.877  0.1855  0.4349  0.0233
22606W        W39080  10.350  14.483   1.877  0.2597  0.1676  0.0782
22607W        W39081   2.955   6.375  12.758  0.0215 -0.0127  0.0810
22608W        W39082  17.798  15.618   3.517  0.3572  0.1947  0.1427
22609W        W39083   5.418  18.161  12.249 -0.1245 -0.1158  0.1296
22610W        W39084  11.063   2.478  12.783  0.0237  0.0773 -0.1602
22611W        W39085  15.119   9.745  13.621 -0.2233 -0.4311  0.1535
22612W        W39086  15.338   3.561   1.107  0.0909  0.0955 -0.1105
22613W        W39087  10.147  17.712  11.417 -0.0248 -0.0005  0.0942
22614W        W39088   8.323   5.874   4.764 -0.1595 -0.0342  0.2644
22615W        W39089  18.009   3.573   1.921  0.0552  0.1211  0.1995
22616W        W39090  11.225   6.140  14.282  0.2561  0.2970  0.0027
22617W        W39091   7.914  17.670   2.190  0.0324  0.2267  0.2187
22618W        W39092  18.267   2.029   4.737 -0.2675 -0.0638 -0.1756
22619W        W39093   5.219   2.651   5.248 -0.1542  0.3428  0.3236
22620W        W39094  16.202   8.761   3.154  0.1752 -0.1327  0.1039
22621W        W39095   4.613  11.091   3.762 -0.0217  0.0790  0.1281
22622W        W39096  17.821   9.081   3.437 -0.2227 -0.0259  0.1752
22623W        W39097  17.226  13.556  12.653 -0.1499 -0.0008  0.0220
22624W        W39098  12.328  15.222  11.145  0.0526 -0.1209  0.0167
22625W        W39099   4.830   1.168   2.033 -0.0886  0.2620 -0.0490
22626W        W39100   7.673   7.720  15.600  0.1301  0.1121  0.2657
22627W        W39101   0.617   8.861   3.667  0.4059  0.2410  0.1679
22628W        W39102   6.069  11.056   4.916  0.0718  0.0956  0.0172
22629W        W39103  10.396   8.661   2.194  0.1223  0.0133  0.2066
22630W        W39104   3.599   8.521  11.383  0.0363  0.1277  0.0572
22631W        W39105  17.393   4.071   4.188  0.2589  0.0509 -0.0381
22632W        W39106   2.857   3.511  10.190  0.4685  0.0147  0.4057
22633W        W39107   8.124   3.802  13.386 -0.0969  0.1076 -0.2334
22634W        W39108  15.319  10.443  15.225  0.1892 -0.2448  0.1944
22635W        W39109  15.269   5.391  14.003 -0.1468  0.1764  0.2365
22636W        W39110  16.586   7.364  12.146 -0.1088  0.0344 -0.0486
22637W        W39111   9.367  17.328   5.528 -0.1379 -0.0089 -0.3015
22638W        W39112  13.704   7.193   4.948 -0.0581  0.2303 -0.0073
22639W        W39113  17.919   3.823  15.932  0.3009  0.2517  0.2008
22640W        W39114  14.346  14.224  12.583  0.0284  0.2297  0.2673
22641W        W39115   5.442  10.238   4.677 -0.1429 -0.0380  0.0512
22642W        W39116  14.284   2.175   2.373 -0.0808 -0.0094  0.1831
22643W        W39117   1.062  17.569  13.691 -0.1432  0.1219  0.0722
22644W        W39118   5.481   3.316   3.635 -0.0956  0.1824 -0.0285
22645W        W39119   3.452  10.076  14.668 -0.1092 -0.3833 -0.0224
22646W        W39120  11.927   0.619   3.313  0.0196 -0.0512  0.0101
22647W        W39121  17.212   2.637   5.900 -0.3107 -0.2082  0.0892
22648W        W39122  16.508   5.586  13.490  0.0985  0.0784  0.0646
22649W        W39123   2.471   5.872   4.229  0.0167 -0.2005  0.1254
22650W        W39124   7.904   8.403   5.060 -0.0677 -0.1126  0.1856
22651W        W39125  13.583   1.474   0.736  0.1675  0.3052  0.1175
22652W        W39126  14.582  10.221   4.252 -0.2151 -0.1601  0.1728
22653W        W39127   5.805   8.533   2.256 -0.0076 -0.0963 -0.0191
22654W        W39128   8.340  14.761   4.875  0.0124 -0.0348 -0.2069
22655W        W39129   5.376  17.955   1.028 -0.2081  0.0842  0.1573
22656W        W39130   9.467   9.064  14.260 -0.0816  0.2623  0.1082
22657W        W39131   7.408  14.885  15.240 -0.2724 -0.1132  0.0701
22658W        W39132  13.335  15.371  10.816 -0.0942  0.1354  0.0347
22659W        W39133   0.732   7.474  10.925 -0.2046  0.2165 -0.0513
22660W        W39134   3.965   1.965   0.276  0.0541  0.0425 -0.2499
22661W        W39135  10.520  16.190   4.463  0.1880 -0.2076 -0.1859
22662W        W39136   4.802   6.779  11.425  0.0905  0.3119 -0.0269
22663W        W39137  17.295   4.670   1.539  0.0359  0.1272  0.0614
22664W        W39138   6.708   2.383   2.499  0.0672 -0.1062 -0.3849
22665W        W39139  14.360  18.299   2.598  0.1953  0.0054  0.3269
22666W        W39140   5.186  12.020   2.906 -0.1318 -0.1004  0.0001
22667W        W39141  11.828  17.355  14.571 -0.3941  0.3887  0.0422
22668W        W39142  13.783   7.248  14.391  0.0309  0.0254  0.3633
22669W        W39143  10.082  15.400   4.154 -0.1284  0.0378  0.0249
22670W        W39144   9.828   2.063   2.886 -0.1990  0.0963 -0.1483
22671W        W39145  10.725   2.979   0.992  0.1642  0.0580 -0.1002
22672W        W39146   1.992  17.554   0.925 -0.1324 -0.1807 -0.0210
22673W        W39147   7.867   4.714  13.621 -0.0336  0.1378  0.0614
22674W        W39148  11.647  10.371   4.135 -0.0129 -0.0483 -0.0827
22675W        W39149   2.032   0.853  13.604  0.0113 -0.0068  0.2933
22676W        W39150  17.413  10.710  12.007  0.1430  0.4877  0.1589
22677W        W39151   3.595  13.278  11.381  0.0247 -0.0980  0.2125
22678W        W39152  15.161   4.235  14.352 -0.2553  0.0834 -0.0135
22679W        W39153  15.196   1.180  15.658 -0.0687  0.0271 -0.0509
22680W        W39154   5.196  12.500  11.239 -0.1171 -0.0582  0.2104
22681W        W39155   4.792  14.750  13.201 -0.1726 -0.2412  0.1038
22682W        W39156   6.671  12.018  14.660  0.1319  0.0110 -0.0960
22683W        W39157   2.740   8.585  12.164 -0.3339 -0.0141 -0.1772
22684W        W39158   6.319   8.802  11.936  0.1414  0.3095  0.1304
22685W        W39159   3.352   1.535   5.100 -0.0179  0.1828  0.2830
22686W        W39160  11.804   7.707   3.631  0.1036  0.0738 -0.1556
22687W        W39161  17.779  16.008  15.668 -0.0129  0.2332  0.0697
22688W        W39162  16.783   9.582   5.738  0.1215  0.1887  0.1706
22689W        W39163  12.367   1.495   4.159  0.0606 -0.0885 -0.3353
22690W        W39164   1.185  18.197  15.892  0.0702 -0.0750 -0.2018
22691W        W39165  16.280  10.670   4.540 -0.1261 -0.0746 -0.0982
22692W        W39166  17.455  15.705   5.911 -0.1402  0.2666 -0.1029
22693W        W39167   8.315  13.053   2.284  0.3564 -0.0116 -0.2191
22694W        W39168   7.335   0.203  12.540 -0.2524 -0.0248  0.2095
22695W        W39169  12.709  16.538   5.304 -0.0338 -0.1009 -0.0618
22696W        W39170  11.762   2.849  13.900  0.0023  0.0508  0.1323
22697W        W39171   8.449  18.253  12.633  0.3954 -0.0225 -0.1450
22698W        W39172   7.899  17.441  14.353 -0.0451 -0.1587 -0.0526
22699W        W39173   2.742   7.037  13.663 -0.0330 -0.1340 -0.0443
22700W        W39174   1.787  18.336   4.276 -0.3329 -0.1134 -0.0085
22701W        W39175  11.857   3.849  13.653  0.2234  0.2460 -0.0894
22702W        W39176   7.789   3.433   1.286 -0.1228 -0.2717  0.1016
22703W        W39177  13.478   5.109   2.764  0.1487  0.0294 -0.2858
22704W        W39178   3.404  11.372   3.444  0.1155  0.3154 -0.2312
22705W        W39179   7.080   1.812   0.038  0.0981 -0.1726 -0.1650
22706W        W39180  15.576  12.026  11.905  0.1951  0.0126  0.1809
22707W        W39181  16.569  17.026  14.569 -0.1096  0.0047 -0.2748
22708W        W39182   0.656   0.160   4.806 -0.0114 -0.2464 -0.3109
22709W        W39183  11.847  18.084  13.877 -0.4658 -0.0002 -0.0558
22710W        W39184   2.522  11.503  13.731 -0.3376 -0.1384  0.3242
22711W        W39185   8.282  10.858   3.000  0.1466 -0.0463  0.0892
22712W        W39186   0.657  17.858  11.705  0.5964  0.2683 -0.3420
22713W        W39187  12.333   1.055  10.721  0.3660 -0.1882 -0.0725
22714W        W39188   8.777   3.443  13.847  0.1257 -0.0544  0.0462
22715W        W39189  17.482   7.862  12.291 -0.1255 -0.2176 -0.0193
22716W        W39190   2.667   4.494  11.997  0.0985 -0.0582 -0.1721
22717W        W39191   9.667   8.981  11.939  0.3129  0.0340  0.1617
22718W        W39192  16.802  15.924   2.473  0.2030 -0.0973  0.0893
22719W        W39193   2.097  17.798  10.239  0.0086  0.2098 -0.1968
22720W        W39194   9.179   0.262   2.380 -0.0691 -0.2584  0.0167
22721W        W39195   8.320  11.444  13.288  0.0335  0.1244  0.1268
22722W        W39196  10.419   7.370   2.567  0.0416 -0.0757 -0.1153
22723W        W39197  11.367   9.106   6.172 -0.1457  0.2157  0.1129
22724W        W39198   7.281  14.874   2.608  0.0892  0.2146  0.2211
22725W        W39199   8.400  12.067   1.758  0.1565 -0.2731  0.1889
22726W        W39200   7.690   4.566  15.272  0.1228 -0.3312 -0.0380
22727W        W39201   1.058   0.532   4.688 -0.1718 -0.2555 -0.1490
22728W        W39202   0.431  17.125  14.738  0.1456  0.2162  0.2099
22729W        W39203   5.177  16.076   0.866 -0.0592 -0.3705 -0.1332
22730W        W39204  14.312   7.040   0.567 -0.0930 -0.0397 -0.2693
22731W        W39205  14.361   6.589  11.634  0.0832  0.2231 -0.1039
22732W        W39206   5.708  16.386  15.074  0.0966  0.1379 -0.3186
22733W        W39207  11.959  11.938   5.004  0.0388 -0.0701 -0.1958
22734W        W39208  17.947   0.170   0.150  0.0473  0.0316 -0.0399
22735W        W39209  10.849  13.309   0.771 -0.0049 -0.1494 -0.1147
22736W        W39210  10.024   6.849  14.542  0.0065  0.0544 -0.0582
22737W        W39211  10.471  11.630   0.029 -0.0633 -0.0868 -0.0112
22738W        W39212   1.792  14.960  15.000  0.0200  0.2184 -0.0711
22739W        W39213   6.834  17.826   4.185 -0.1653  0.0839  0.1584
22740W        W39214  13.257   1.210  10.711 -0.0537  0.3159  0.1060
22741W        W39215   5.452  17.676   5.454 -0.0498 -0.1334  0.1504
22742W        W39216  10.191   1.964   2.460  0.1486  0.0036  0.2765
22743W        W39217  11.759   1.717  13.808 -0.1257 -0.0330 -0.1739
22744W        W39218  15.271   0.836  10.871 -0.1608 -0.2394 -0.0433
22745W        W39219  15.384   0.568  14.285  0.1745  0.1820 -0.2754
22746W        W39220  11.875  18.240  14.407  0.0650 -0.1279  0.0944
22747W        W39221   6.455  18.468   3.023 -0.0229  0.3075  0.2992
22748W        W39222   6.483  10.997  13.133  0.0964 -0.0837 -0.2563
22749W        W39223   5.919   2.361   5.635  0.1773 -0.0359  0.0452
22750W        W39224  11.288  13.965   4.329  0.0079 -0.0894 -0.0747
22751W        W39225   7.132  15.026  11.092  0.2326 -0.2252 -0.0715
22752W        W39226   7.060  16.226  13.219 -0.0025 -0.1348 -0.1908
22753W        W39227  16.482  18.104  13.095 -0.1458 -0.1662 -0.2810
22754W        W39228  18.151  11.924   1.257  0.0258 -0.2015  0.1134
22755W        W39229  18.319  12.949  14.542  0.1003 -0.1102 -0.5051
22756W        W39230   6.562   9.683   1.423  0.0146  0.0190  0.0242
22757W        W39231  13.935   9.201   3.069 -0.0336  0.1250  0.1637
22758W        W39232  14.120  16.191   2.434  0.0404 -0.1800  0.1454
22759W        W39233  18.163   9.748  13.268  0.1151 -0.0071  0.1762
22760W        W39234   7.595   7.742   3.024 -0.0254 -0.1370  0.1026
22761W        W39235  15.295  11.610   4.127 -0.2187  0.0345 -0.0659
22762W        W39236  13.860  14.916   2.376  0.0682  0.2895  0.2301
22763W        W39237   3.393  13.789   4.151 -0.3256 -0.1282 -0.1568
22764W        W39238   3.383   2.511   3.466  0.0251 -0.2451  0.0186
22765W        W39239   7.737  12.065  11.549 -0.0910 -0.0920 -0.2005
22766W        W39240   7.940  10.704   4.231 -0.0735 -0.0925  0.0880
22767W        W39241   3.083  18.352  15.926 -0.1197 -0.2125 -0.0832
22768W        W39242   6.301  16.637  10.202 -0.3337 -0.1271 -0.0410
22769W        W39243  13.574   6.898   3.427 -0.2580  0.1512 -0.2581
22770W        W39244  12.350  13.388  13.570 -0.1411  0.0064  0.1211
22771W        W39245   1.884  11.789  15.267 -0.0247  0.0462 -0.0078
22772W        W39246   2.877  16.223  12.774  0.0516  0.0787 -0.0218
22773W        W39247  15.230  12.296   5.078 -0.4290 -0.0647 -0.2100
22774W        W39248  18.246   1.874   4.248 -0.0640  0.1507 -0.2884
22775W        W39249   8.277   7.295   4.227  0.1894  0.0388 -0.1495
22776W        W39250   7.332   4.118   0.171  0.2676 -0.2327  0.0970
22777W        W39251   2.766  10.885   0.647 -0.4087 -0.2182 -0.2676
22778W        W39252   1.529   2.691   5.562  0.1717  0.0175 -0.2763
22779W        W39253  14.852  15.258   0.981 -0.1403  0.1816 -0.0489
22780W        W39254  13.908   4.930   2.292  0.2791  0.3293 -0.0061
22781W        W39255  11.005  15.652   3.227 -0.2650  0.0651 -0.1727
22782W        W39256   4.743  15.038   5.246 -0.1226  0.1170 -0.3408
22783W        W39257  10.948  16.620   4.381  0.0993 -0.0265  0.3062
22784W        W39258  12.133   6.128  13.235  0.1087  0.2070  0.2901
22785W        W39259  11.783  13.486   0.506  0.2798  0.0322 -0.0533
22786W        W39260  10.102   7.167   4.350  0.0451  0.0589 -0.0257
22787W        W39261   5.184   9.874  12.355 -0.2259 -0.1186  0.0662
22788W        W39262  16.685   6.897  13.732  0.1433  0.1402  0.0866
22789W        W39263   1.286   9.644   4.711  0.0742  0.1793 -0.0729
22790W        W39264  13.354   2.412   0.942  0.0515  0.0040 -0.0940
22791W        W39265   6.907  14.629   0.160 -0.0555 -0.1185  0.0292
22792W        W39266   2.354  16.227   4.124 -0.0668  0.0461 -0.2357
22793W        W39267   3.307  11.827  15.254  0.3132  0.0012  0.0687
22794W        W39268   7.166   3.052   0.170  0.3176 -0.0721  0.2890
22795W        W39269   8.859   4.840  13.783  0.1202  0.1218 -0.0112
22796W        W39270   7.626   4.384   6.147  0.2579 -0.3575 -0.1776
22797W        W39271  15.101   2.868   5.246 -0.0113  0.4177 -0.1215
22798W        W39272   4.988   7.802  14.553  0.3500  0.0704  0.3326
22799W        W39273   7.358   7.693  10.983 -0.3223  0.0188 -0.1744
22800W        W39274   7.661  14.168   4.362  0.0339 -0.0064 -0.0975
22801W        W39275  12.185  12.478  13.368  0.2043 -0.3233 -0.2052
22802W        W39276   9.340   2.315   5.835 -0.2613 -0.1368 -0.1257
22803W        W39277  13.293  18.339   2.659  0.3160 -0.0779 -0.2221
22804W        W39278  11.089  14.158   0.815  0.0430  0.1461 -0.1077
22805W        W39279   1.978   4.657  15.536  0.0648  0.0912  0.1478
22806W        W39280   4.832   9.055  14.808  0.0310 -0.0807  0.0928
22807W        W39281  17.374   6.168   2.435 -0.3508  0.1003  0.1175
22808W        W39282   5.929   5.921   0.062  0.2767  0.1595  0.1926
22809W        W39283  12.259  15.620   5.653  0.3011 -0.1146  0.1020
22810W        W39284   3.847   0.876  14.868  0.1135 -0.0619 -0.0601
22811W        W39285   3.934   3.535   2.291 -0.0240  0.2903 -0.4387
22812W        W39286  18.277  15.241   0.249  0.2815 -0.0384 -0.1249
22813W        W39287   2.765   3.681   3.103  0.2430 -0.1061 -0.1975
22814W        W39288   1.258  16.039  13.675 -0.5530 -0.3302 -0.3075
22815W        W39289  12.379   8.138   0.144 -0.1311  0.0989  0.0364
22816W        W39290   8.693  15.426  10.844 -0.0592  0.2571 -0.1527
22817W        W39291   8.859   4.552  14.708 -0.0638 -0.0757 -0.2787
22818W        W39292  15.065   1.727   3.937  0.0079 -0.1659 -0.0166
22819W        W39293   9.925   8.450   2.880  0.0990  0.1718  0.0654
22820W        W39294  16.820  11.249  10.960  0.0948 -0.0525  0.0123
22821W        W39295  10.513  13.720   5.274  0.2454 -0.0323  0.1880
22822W        W39296  10.853   0.321   4.466 -0.2889  0.0564 -0.1204
22823W        W39297  10.618  15.793  15.649 -0.0708  0.1538  0.1711
22824W        W39298   3.421   7.828   4.276  0.0723  0.0710 -0.0863
22825W        W39299   9.343   0.369  11.249 -0.1062  0.0689  0.2100
22826W        W39300  10.594  11.067   1.415 -0.2773 -0.2769  0.0390
22827W        W39301   6.846   9.242  13.214  0.0870  0.1850  0.1536
22828W        W39302   7.562  10.393  12.135 -0.1978  0.4202 -0.0229
22829W        W39303  10.095  13.510   5.365 -0.3017  0.2634 -0.0601
22830W        W39304   3.282  10.520  13.872 -0.1063  0.1707 -0.0408
22831W        W39305   3.036   2.583  11.031 -0.1676  0.2647  0.0051
22832W        W39306  12.020  16.873  11.091 -0.0925  0.1271  0.0104
22833W        W39307   7.895  13.589  13.230  0.1003 -0.0808 -0.1792
22834W        W39308  17.332   2.796   0.118  0.1824  0.0453 -0.1625
22835W        W39309   2.810   2.204   5.554  0.4557  0.0003 -0.0550
22836W        W39310  15.239  17.116  14.223  0.0670 -0.0987 -0.1227
22837W        W39311  14.227  11.384   0.637 -0.1425 -0.0858  0.2922
22838W        W39312  18.242  15.850  14.859  0.0296 -0.1026  0.0816
22839W        W39313  16.582   4.482  12.114  0.1592 -0.1545 -0.0221
22840W        W39314   9.382   6.448  13.495 -0.1198  0.1090  0.2726
22841W        W39315   3.068   6.223  13.268 -0.0324 -0.1162  0.1842
22842W        W39316   1.194  17.366  14.222  0.2975  0.2202  0.3333
22843W        W39317   8.776  11.444   3.514  0.2624 -0.0964  0.1411
22844W        W39318  17.341  15.847  15.384  0.0746  0.0589 -0.0156
22845W        W39319  12.216  10.509   3.432  0.1429 -0.2192  0.2668
22846W        W39320   3.073   1.027  14.418  0.0170 -0.0560 -0.3320
22847W        W39321  12.635   7.945  12.036 -0.0350  0.2636  0.1581
22848W        W39322   0.092   8.533  13.805  0.0316  0.2378 -0.1405
22849W        W39323  13.256  14.019   4.079  0.0413  0.2257 -0.1018
22850W        W39324  15.959   2.718   1.685 -0.0245  0.4268  0.0459
22851W        W39325   1.988  12.986   0.992 -0.1010  0.0982  0.0314
22852W        W39326   2.504  13.617  11.355 -0.0065 -0.2180  0.1850
22853W        W39327   5.186   9.290   2.143 -0.1018 -0.1998  0.0339
22854W        W39328  14.728  11.521   3.233  0.1039  0.2582  0.0705
22855W        W39329  14.577  10.101   1.069  0.1479  0.0684 -0.0505
22856W        W39330  18.011   0.959   0.495 -0.0002 -0.1565 -0.1331
22857W        W39331  12.048  16.026  13.785 -0.1680  0.1714 -0.1528
22858W        W39332   1.542  13.704  15.627 -0.1341 -0.0553 -0.0172
22859W        W39333   1.403  15.270   3.921 -0.0059 -0.0558  0.1365
22860W        W39334   9.481  15.212  13.748  0.0674  0.0455  0.2506
22861W        W39335  13.473  14.911   3.885 -0.0453 -0.0952 -0.0055
22862W        W39336   3.512  17.404   2.015  0.0673  0.1638 -0.0295
22863W        W39337  15.425   1.858   0.525  0.0213 -0.1075 -0.3235
22864W        W39338   3.747  16.389  12.692  0.0228  0.1038  0.1079
22865W        W39339   2.049   6.921   2.867 -0.1493  0.1479 -0.0485
22866W        W39340   0.668  14.865  13.406  0.1047 -0.0898  0.0217
22867W        W39341   6.843  11.774   0.926 -0.0831 -0.4014  0.2255
22868W        W39342  15.709  15.391  12.891  0.2519  0.1546 -0.2450
22869W        W39343   6.002   3.048   2.202 -0.0237  0.0957  0.3431
22870W        W39344   0.767   4.065   4.066  0.0604  0.2474 -0.0764
22871W        W39345  14.457  13.979  12.063 -0.0132  0.3109  0.3032
22872W        W39346  10.005   2.061  15.449  0.0282 -0.2514 -0.0312
22873W        W39347   2.344  14.445  14.591 -0.0328 -0.0078 -0.0720
22874W        W39348   3.380  16.948   2.871 -0.0038 -0.2762 -0.0903
22875W        W39349  16.474  11.115   4.448  0.0412  0.2280  0.2628
22876W        W39350   6.757  16.735   4.684  0.1473 -0.0492 -0.0872
22877W        W39351   7.983   0.281   4.393 -0.1747 -0.3996 -0.0132
22878W        W39352  17.199  12.621  13.017  0.1297  0.1812  0.0818
22879W        W39353  13.942  12.233   2.399 -0.1578 -0.1002 -0.2496
22880W        W39354   3.189  11.799  11.843  0.0077  0.2468 -0.0622
22881W        W39355  14.444   7.771  11.147 -0.1570  0.1530  0.1733
22882W        W39356  18.156   3.592  13.218 -0.2546  0.5612 -0.0027
22883W        W39357   2.379   2.708  11.593 -0.1986 -0.0845  0.0083
22884W        W39358   3.093   8.339   0.001 -0.0062 -0.2121  0.2916
22885W        W39359   2.797  17.477   3.201 -0.1894 -0.1938  0.0877
22886W        W39360  10.723   0.332  11.150 -0.0205  0.1409 -0.2917
22887W        W39361   9.681   6.316   1.744 -0.0184 -0.3346 -0.3032
22888W        W39362   2.770   4.051  12.912 -0.0617 -0.0057  0.1102
22889W        W39363  12.565  12.653   4.799  0.0487 -0.1076  0.2521
22890W        W39364  13.534  11.758   4.815  0.0229 -0.0325  0.0149
22891W        W39365   4.035   7.273  13.707 -0.2696 -0.2436  0.1393
22892W        W39366   4.499  14.521  14.271 -0.0213  0.4632  0.0391
22893W        W39367   3.759   1.946   3.860  0.4258  0.0108  0.2915
22894W        W39368   1.287   1.167  11.113  0.1853 -0.0499 -0.1417
22895W        W39369   7.930   6.429   4.271 -0.0602  0.1443 -0.1222
22896W        W39370   7.375   2.507  11.916  0.1965 -0.0078  0.0807
22897W        W39371   2.122  13.154   3.124  0.0669  0.0532  0.3916
22898W        W39372  10.112  14.506  10.528  0.2245 -0.2066 -0.0253
22899W        W39373   8.671  10.112   4.055  0.1725  0.2130  0.0943
22900W        W39374   9.544  18.391  10.977 -0.1067  0.4047 -0.0221
22901W        W39375   9.365   0.870   5.373  0.2837 -0.1209  0.0171
22902W        W39376   1.562   8.650   4.854 -0.1878  0.1112  0.0424
22903W        W39377  13.072  11.692  11.175 -0.1610  0.2312 -0.0606
22904W        W39378  17.558   8.791  15.303  0.2170 -0.2505  0.0682
22905W        W39379   3.191  17.963  14.151 -0.3727 -0.1370 -0.1963
22906W        W39380   6.717   8.788   0.390 -0.0105 -0.0298 -0.2584
22907W        W39381   7.208  10.850   2.525  0.0887  0.1841  0.0773
22908W        W39382   4.096  10.344  13.904  0.0540  0.0705  0.1199
22909W        W39383  14.085   3.238  15.153  0.2593 -0.0228 -0.0209
22910W        W39384  11.938   4.214   1.228  0.1528  0.0398 -0.2205
22911W        W39385  10.626  15.293  11.374 -0.1322 -0.1212 -0.2116
22912W        W39386  15.988   8.674  11.695  0.1676 -0.0266  0.0418
22913W        W39387   7.115   3.232   4.419 -0.0791  0.1643 -0.0989
22914W        W39388  11.824   0.460   1.196 -0.1850 -0.0545 -0.1332
22915W        W39389  16.398   4.790  14.426 -0.2485 -0.1208  0.1300
22916W        W39390   0.474   1.281   0.163  0.1204 -0.1025  0.0932
22917W        W39391  11.652  10.676  14.588  0.1042  0.1498 -0.3110
22918W        W39392   1.836   3.069   1.862  0.0561  0.0358 -0.1607
22919W        W39393  15.995   6.996   5.254  0.3383 -0.2022  0.1099
22920W        W39394   4.011  15.499   2.671 -0.1923 -0.0818  0.2077
22921W        W39395  14.966   5.679  13.678 -0.1453 -0.1892  0.0213
22922W        W39396   9.567   0.743   4.585 -0.2186  0.1228 -0.0923
22923W        W39397   4.204   6.245  15.421 -0.0834  0.0626 -0.0884
22924W        W39398   3.409   6.189  12.921 -0.0970  0.1192  0.2127
22925W        W39399   2.687   2.764   0.512 -0.1604 -0.2291 -0.0812
22926W        W39400   2.205  12.354  14.429 -0.1979  0.2616 -0.2233
22927W        W39401  13.638  11.128   1.844  0.1616  0.1736  0.3054
22928W        W39402   7.674  17.545   1.237 -0.1723 -0.0334 -0.1944
22929W        W39403   9.217  13.703   3.720  0.0549  0.0689  0.6010
22930W        W39404   9.423  11.227  13.972 -0.0113  0.0591 -0.1357
22931W        W39405   0.174  11.364   5.235  0.0314 -0.2920  0.2240
22932W        W39406  12.643  14.548   0.776 -0.0424 -0.0701  0.1928
22933W        W39407  14.847  17.532  11.296 -0.0939 -0.0859 -0.0309
22934W        W39408  16.438   5.020  15.637 -0.2796 -0.2215  0.0569
22935W        W39409  17.323   3.918  14.651 -0.1298  0.0531  0.1351
22936W        W39410   4.302   5.128  11.184  0.1463 -0.0035 -0.0035
22937W        W39411   2.865   7.596   2.805  0.1088  0.0243  0.0570
22938W        W39412  15.393   2.473   3.222 -0.3577 -0.0401 -0.3292
22939W        W39413  13.199   1.166   1.241  0.1046  0.3081  0.0263
22940W        W39414  14.554   9.084   0.785 -0.0170  0.0520 -0.1440
22941W        W39415  14.225  18.024  11.039 -0.0704  0.0538 -0.3368
22942W        W39416  11.860  15.353   3.079  0.1936 -0.1329  0.0345
22943W        W39417  17.481   3.071   5.069  0.0502 -0.1292  0.1108
22944W        W39418   5.349  12.690   4.257  0.1274  0.1100 -0.1506
22945W        W39419   2.887  16.456   4.130  0.3910 -0.0224 -0.0246
22946W        W39420   9.710  16.434  12.021  0.1877  0.0808  0.1323
22947W        W39421   9.736   4.829  14.556 -0.1355 -0.3424 -0.1947
22948W        W39422   1.609   8.242  12.419 -0.0033 -0.2074  0.0937
22949W        W39423  15.462  18.128  13.597  0.2254  0.1238  0.0346
22950W        W39424  17.731   2.506  13.105  0.0380 -0.2150  0.0634
22951W        W39425   3.887   3.083  14.611 -0.2253 -0.1965  0.0672
22952W        W39426  18.241   0.853  15.696  0.2724  0.0784 -0.1000
22953W        W39427  12.741  18.019  15.356  0.0727  0.3273 -0.0166
22954W        W39428   9.676  16.718  11.574 -0.2094  0.0072 -0.0479
22955W        W39429  14.762  15.482  11.132 -0.2275  0.0636 -0.1370
22956W        W39430   7.044   9.580  14.622 -0.0553 -0.2335  0.2568
22957W        W39431   8.434  12.433  13.647  0.1269 -0.0359  0.0143
22958W        W39432  17.488   0.100  15.913  0.2382  0.2689 -0.1046
22959W        W39433   6.275  14.411   0.246  0.1932  0.0226  0.0048
22960W        W39434   4.381   5.637  13.545 -0.1129  0.0927  0.0367
22961W        W39435  11.469   9.406  15.549  0.0226  0.1319 -0.0277
22962W        W39436  12.790   5.907   1.329 -0.3402  0.1548 -0.1516
22963W        W39437  18.150  11.000   3.952  0.3317 -0.2497 -0.0084
22964W        W39438   8.558   5.164  13.085 -0.1057  0.0777 -0.0255
22965W        W39439   3.646   0.135   3.847 -0.0988 -0.1869 -0.0180
22966W        W39440   8.386  11.791   3.429  0.4943  0.0888 -0.0910
22967W        W39441  17.312  18.169  14.529  0.3863  0.1435  0.0199
22968W        W39442   1.925   4.534  13.637  0.1804 -0.0174  0.1334
22969W        W39443   5.211  18.183   4.299 -0.2003 -0.2502  0.0418
22970W        W39444  11.301  11.264   4.247 -0.5296  0.0998 -0.1931
22971W        W39445  11.873   1.444   3.919  0.3118  0.3733 -0.2078
22972W        W39446   1.800  12.877   4.481  0.0224 -0.0668  0.2208
22973W        W39447   4.745   4.725  13.586  0.3361  0.2091 -0.1583
22974W        W39448  15.972   1.779   4.230 -0.2200 -0.1935 -0.0661
22975W        W39449  12.251   9.236   4.583 -0.1161  0.0430 -0.1257
22976W        W39450  12.695  15.406  13.668 -0.1478  0.0964 -0.0506
22977W        W39451   3.817   8.351  13.596  0.0479 -0.1593 -0.2708
22978W        W39452   9.483  13.443  14.835 -0.0700 -0.3962  0.1702
22979W        W39453  13.322  11.928  15.351  0.2949 -0.2686 -0.2288
22980W        W39454  16.197  11.882   5.808 -0.0774 -0.2486 -0.2322
22981W        W39455   3.483   0.631  10.800 -0.0651  0.0484  0.0788
22982W        W39456   0.603   7.457  11.553  0.3477 -0.2089  0.0097
22983W        W39457   0.384   7.496   2.770  0.2432  0.1188 -0.2498
22984W        W39458   3.674  11.947  11.858  0.1931  0.2190  0.0518
22985W        W39459   5.298   9.368  12.265 -0.0086 -0.0015 -0.0720
22986W        W39460  16.353   2.340  15.225  0.1013 -0.2081 -0.2261
22987W        W39461   1.389   7.762  11.688 -0.2371  0.0408 -0.1612
22988W        W39462   5.502  17.443  14.882  0.0552 -0.2933 -0.0620
22989W        W39463   0.804   7.963  12.268 -0.1068 -0.0989  0.0434
22990W        W39464   5.448   8.706   1.195  0.0742 -0.2135 -0.1300
22991W        W39465  13.865   6.638  13.243 -0.2566  0.1188  0.1038
22992W        W39466   0.262   0.520   4.247 -0.2299  0.0729  0.0549
22993W        W39467  12.054   9.355   3.406  0.0430  0.1684 -0.2356
22994W        W39468   6.984   3.444   0.531 -0.0296 -0.0117 -0.3548
22995W        W39469   0.995   7.491   4.388  0.0552 -0.0269 -0.2590
22996W        W39470  15.860   9.616  11.787  0.1789  0.0023 -0.1526
22997W        W39471   6.545   3.495   0.335  0.0269  0.1779  0.0774
22998W        W39472  10.545  18.430   4.337  0.4459 -0.1262  0.0979
22999W        W39473  15.216  12.152   2.416  0.2153  0.0673  0.0715
23000W        W39474   8.781   5.463   3.988  0.2062  0.0347 -0.3356
23001W        W39475   9.112   5.837  14.205 -0.0228  0.2869 -0.0790
23002W        W39476  16.027  12.761  15.075 -0.0047  0.1459 -0.1315
23003W        W39477  12.909   1.802  15.715 -0.1770  0.0374  0.3026
23004W        W39478   2.106   0.568  12.505 -0.0555  0.0430 -0.1271
23005W        W39479  16.054   0.042  13.845 -0.0040 -0.0859 -0.1415
23006W        W39480   1.197   7.535  12.985  0.3103 -0.1829  0.3855
23007W        W39481  17.382  17.943  15.799 -0.1949  0.0022  0.3402
23008W        W39482   9.576   4.132  15.735 -0.0970 -0.2474 -0.0788
23009W        W39483   9.121  14.234   5.790  0.0427 -0.3429 -0.1266
23010W        W39484  13.059   4.493  11.059 -0.0813  0.0603 -0.2068
23011W        W39485  14.518   1.693   5.136 -0.0801  0.0058 -0.0711
23012W        W39486  11.438   8.652   2.380  0.0868 -0.1534  0.2451
23013W        W39487   6.133  13.336  13.741 -0.0396 -0.2195  0.1942
23014W        W39488  17.526  13.704   0.093  0.0096  0.1972 -0.3117
23015W        W39489   1.913   3.921  12.528 -0.3023  0.2661  0.0491
23016W        W39490  13.604  11.333   5.080 -0.0110  0.0454 -0.3038
23017W        W39491   2.945   2.645   0.017 -0.0197  0.1431  0.2461
23018W        W39492   7.327   6.324   2.288 -0.4169  0.1364  0.4063
23019W        W39493   0.643   3.144  10.564 -0.2275  0.0059  0.1498
23020W        W39494   7.239   9.137  11.903 -0.0983  0.0632  0.0848
23021W        W39495  10.774  16.983  11.272  0.2027  0.0006 -0.3214
23022W        W39496  15.809   1.985   4.677 -0.1941 -0.0252 -0.1750
23023W        W39497  16.552  15.084   2.988 -0.0152 -0.0957  0.0091
23024W        W39498   4.714   4.577   1.721 -0.0337 -0.0317  0.2419
23025W        W39499  17.252   3.252  15.789 -0.0320  0.1474 -0.1377
23026W        W39500  11.459   1.893   3.289 -0.0986  0.0476  0.1814
23027W        W39501   2.916  11.905   2.324 -0.3186  0.3654 -0.0935
23028W        W39502  14.724   0.832  12.680 -0.3874  0.0628 -0.2765
23029W        W39503  16.326   0.080  11.358  0.2555  0.0017  0.3325
23030W        W39504   9.201   7.773  14.824  0.0318  0.0324  0.0425
23031W        W39505   8.569   1.311   2.963  0.0205 -0.1547  0.0340
23032W        W39506  16.562   8.374   2.329 -0.1103 -0.1323  0.0392
23033W        W39507  11.259   8.943   0.811 -0.1053  0.0432 -0.2058
23034W        W39508  12.724   0.597  11.369 -0.1924  0.2501 -0.2267
23035W        W39509   1.346  13.402  12.451  0.2978  0.1379  0.0410
23036W        W39510  15.559  11.569  14.644  0.3038  0.0498 -0.1473
23037W        W39511   1.883   0.351  15.671 -0.0625  0.2484 -0.1692
23038W        W39512  14.748  13.854  14.372 -0.0858  0.2146  0.2536
23039W        W39513  11.994   7.992   0.832 -0.0837 -0.1344 -0.1700
23040W        W39514   6.694  12.292  10.810 -0.3329 -0.1748  0.0299
23041W        W39515  14.269   9.448   0.547 -0.1273 -0.0519 -0.2260
23042W        W39516   1.440   7.061  11.766 -0.0947  0.1836  0.0541
23043W        W39517   5.070  17.946   3.339 -0.0915  0.0336  0.2848
23044W        W39518  10.664  11.504   0.946 -0.0820  0.0063 -0.0954
23045W        W39519   5.613  13.744   1.875  0.1856 -0.2003  0.1941
23046W        W39520   4.171   3.482  11.171  0.2730 -0.0510 -0.0500
23047W        W39521  12.965  14.844  15.328  0.5323  0.2044 -0.2066
23048W        W39522   6.430   3.006  15.578  0.1087 -0.1855 -0.0534
23049W        W39523  17.429   2.932   1.835  0.1299  0.3139  0.1398
23050W        W39524   2.397   5.472  14.069  0.0242 -0.0092 -0.0845
23051W        W39525   5.981  10.801  15.139  0.0882  0.0837 -0.0729
23052W        W39526  13.088  16.827  12.541  0.1436 -0.2142 -0.1061
23053W        W39527  17.168   0.044   4.297  0.1319 -0.2314 -0.0310
23054W        W39528   8.349   7.512  11.072  0.0162  0.4300  0.0157
23055W        W39529  16.513   6.369   0.862 -0.0477 -0.0086  0.2952
23056W        W39530  12.339   5.913  11.748  0.2177  0.1289  0.0265
23057W        W39531  10.638  15.524   2.628  0.0191 -0.1091  0.2409
23058W        W39532  16.045   0.797   0.905 -0.0634 -0.3680  0.3332
23059W        W39533   7.471   2.837  14.060 -0.0119 -0.1482 -0.1284
23060W        W39534  14.482   9.722   4.408  0.0320  0.2081  0.0472
23061W        W39535  15.582   6.450  12.949  0.0133  0.0529 -0.2194
23062W        W39536   1.154  15.985   5.281 -0.3475 -0.0614  0.0796
23063W        W39537  12.952   7.591   3.486 -0.0780 -0.1351 -0.0081
23064W        W39538  18.377  16.502  15.872  0.2180  0.0285 -0.2824
23065W        W39539   9.543  14.403   0.913 -0.1007 -0.3132  0.2493
23066W        W39540  11.363   3.766  12.742 -0.1267  0.2877  0.0389
23067W        W39541   3.371  12.340  11.802  0.1394 -0.3097  0.0034
23068W        W39542  17.020  16.299   3.267 -0.0531  0.0776 -0.2698
23069W        W39543   3.546  16.799  14.175  0.3918  0.2500  0.0307
23070W        W39544  16.353  15.121   2.034  0.0305 -0.2602  0.0990
23071W        W39545   9.280   9.746   5.173  0.0040  0.2332  0.1379
23072W        W39546   6.895   8.840   3.007 -0.2954  0.0341  0.0935
23073W        W39547   6.903   5.517   5.361 -0.0247  0.4042  0.0049
23074W        W39548  11.599  15.765  15.785  0.0912  0.3470  0.3238
23075W        W39549  13.855   1.087   0.623  0.0761  0.1713 -0.1815
23076W        W39550  12.449  16.796   1.634  0.0872 -0.2241 -0.1713
23077W        W39551   4.657   6.721   3.150  0.0670  0.2214  0.6355
23078W        W39552   2.806  13.269   5.487  0.0900  0.1862 -0.0220
23079W        W39553   4.579  13.146   3.081  0.0750  0.1593  0.2579
23080W        W39554  10.877  14.105   4.626  0.1488 -0.2203 -0.0749
23081W        W39555   5.196   8.872  12.536 -0.1260 -0.0585 -0.2042
23082W        W39556  10.032  10.177  12.981  0.1655  0.0276 -0.0039
23083W        W39557   1.593   1.282   3.097 -0.5062 -0.0211  0.0413
23084W        W39558  13.957  11.707   2.469  0.5175  0.0295  0.1729
23085W        W39559   7.819  11.399   3.319  0.2321  0.0594  0.1102
23086W        W39560   8.629  12.557   3.007 -0.1995 -0.1439 -0.2408
23087W        W39561  17.865   1.030   2.636  0.2722 -0.2122 -0.3018
23088W        W39562  13.356  15.167   0.769 -0.1902 -0.0758 -0.1591
23089W        W39563  17.032  14.559  11.665  0.0057  0.1240  0.2906
23090W        W39564   6.619   8.808   3.512 -0.2278  0.2027  0.0798
23091W        W39565   6.872  10.551  12.047  0.0911  0.0627  0.1531
23092W        W39566   1.027  17.594   0.663  0.0227 -0.2410  0.0425
23093W        W39567   8.336   4.426  14.570  0.0124 -0.0103  0.0186
23094W        W39568  13.617   3.803   2.993  0.0568 -0.2028 -0.1671
23095W        W39569  14.564   4.764   4.557  0.3860  0.1996 -0.2662
23096W        W39570  15.404  15.527  12.536  0.1865  0.1739 -0.1332
23097W        W39571   0.493   3.600   0.316 -0.2128  0.2239 -0.3956
23098W        W39572   0.486  11.056  15.893  0.1465 -0.2267  0.4101
23099W        W39573   7.294  12.423   5.103 -0.2347 -0.2799 -0.0897
23100W        W39574   3.310   8.820   2.025  0.3748  0.0233  0.4550
23101W        W39575   6.550   0.592  14.203  0.0576 -0.0318  0.1400
23102W        W39576  10.131  17.147   0.402  0.0563  0.0624  0.1041
23103W        W39577   3.956   1.429   2.557 -0.0189  0.0469  0.1496
23104W        W39578   0.833   8.391  15.438 -0.0350 -0.2138 -0.2531
23105W        W39579   7.494  10.397   0.134 -0.0538 -0.0431  0.1193
23106W        W39580  15.105   5.221   4.946 -0.0304  0.0698  0.2527
23107W        W39581  13.492  13.836  12.814 -0.2840 -0.0874 -0.1180
23108W        W39582   3.708   4.379  12.212  0.2146  0.1399 -0.3580
23109W        W39583   7.644  13.286  12.890  0.1954  0.1784 -0.1001
23110W        W39584  13.705   8.990   5.193 -0.0095 -0.4382  0.2012
23111W        W39585   2.560   3.664   4.694 -0.1104  0.3431 -0.1822
23112W        W39586  12.092  12.125  11.088 -0.2732  0.0245  0.2827
23113W        W39587  17.505  15.995   1.396  0.1494  0.2215 -0.3277
23114W        W39588   5.174  17.292  12.975  0.1173  0.1440 -0.1923
23115W        W39589   4.983   6.623  12.848 -0.1658  0.0864  0.4352
23116W        W39590   5.385  14.019  13.639  0.3579  0.1235 -0.0532
23117W        W39591   7.575   4.762  12.246  0.2523  0.0632  0.0001
23118W        W39592   8.413  10.400   3.031 -0.0492  0.1983  0.1007
23119W        W39593   1.389  10.821  15.409 -0.1475  0.1141  0.0258
23120W        W39594  13.011   1.320   3.180  0.0386  0.2574  0.2678
23121W        W39595  17.364  11.558  12.875  0.1660 -0.1661 -0.1090
23122W        W39596   9.090  15.490   1.156 -0.1302 -0.1369 -0.0519
23123W        W39597   4.505  18.305   2.369 -0.0942 -0.1223 -0.1550
23124W        W39598   6.100   1.938   1.623 -0.2567 -0.0187 -0.1242
23125W        W39599  15.041   2.270   4.153  0.0004  0.1100 -0.2768
23126W        W39600   0.280  15.473  12.514 -0.0256 -0.0801 -0.1783
23127W        W39601  10.005   3.322   9.999  0.2300  0.1567  0.3593
23128W        W39602   6.938   3.245   1.731  0.2472  0.4046 -0.0265
23129W        W39603   1.670   1.643   3.563 -0.3528 -0.2081  0.0075
23130W        W39604   3.249   6.656   3.746 -0.0514 -0.3346  0.0915
23131W        W39605   1.498  16.986  13.215 -0.1823  0.0074  0.1838
23132W        W39606   3.366   1.722  13.165 -0.1966  0.1233 -0.0071
23133W        W39607  16.751   8.426  15.010 -0.3209  0.0368  0.1954
23134W        W39608  18.434   6.778  11.494 -0.0705 -0.2418  0.1752
23135W        W39609   8.670   4.663  14.205 -0.0677  0.2164  0.0151
23136W        W39610   6.656  16.326   0.450 -0.0290 -0.2504  0.1609
23137W        W39611   9.856  14.774   0.817 -0.0924 -0.0774 -0.0557
23138W        W39612  15.835   5.546  14.054  0.0275 -0.0808  0.0443
23139W        W39613   1.569   4.643   1.310 -0.0502  0.1689 -0.0774
23140W        W39614   6.359  15.032  12.964  0.0927 -0.2517  0.0275
23141W        W39615   5.645  13.094  13.583 -0.1891  0.2055  0.1173
23142W        W39616  10.449  18.460  11.395 -0.0344 -0.1596 -0.1589
23143W        W39617  17.676   4.862  12.933 -0.0563  0.2597  0.0657
23144W        W39618  10.327  18.225  12.554  0.1886  0.2749 -0.3543
23145W        W39619   7.215  14.992  12.253 -0.1250  0.0303  0.1174
23146W        W39620   2.938   3.321   4.864 -0.0113  0.0467  0.0900
23147W        W39621   1.226   5.579   4.528 -0.2173  0.4487 -0.1713
23148W        W39622   5.629   1.878   4.948  0.1406 -0.0989  0.1153
23149W        W39623  10.743   7.157   3.317  0.2742 -0.1227 -0.0153
23150W        W39624  18.462  15.368   2.324  0.0001 -0.1300 -0.1484
23151W        W39625   0.821  17.375  11.849 -0.0242 -0.2427 -0.1155
23152W        W39626  11.678  14.835  15.613 -0.3963  0.2915 -0.2066
23153W        W39627  12.168   8.422  13.386  0.3493 -0.0239 -0.0923
23154W        W39628  13.593  12.748   2.602 -0.1060  0.0233 -0.2507
23155W        W39629  15.979  16.939  10.774 -0.1533  0.4457  0.0363
23156W        W39630  11.467  13.161  13.530  0.1434  0.1336 -0.0252
23157W        W39631  13.794  10.754   4.694  0.0905  0.0085 -0.2120
23158W        W39632  16.546   1.968   5.977  0.0823  0.1154  0.0957
23159W        W39633   2.765  11.382   0.735 -0.0864 -0.0905 -0.1205
23160W        W39634  16.371  14.495  14.976 -0.1978 -0.2516 -0.1931
23161W        W39635   5.931   3.027  11.758 -0.0594  0.2599 -0.1737
23162W        W39636   7.470  10.459  14.117 -0.1816  0.2533  0.2435
23163W        W39637   4.385  13.411   1.099  0.2960 -0.0035  0.3323
23164W        W39638   3.452   0.632   4.888  0.1562 -0.0979 -0.1979
23165W        W39639  15.164  15.402   1.926 -0.1190  0.1117 -0.1275
23166W        W39640   2.990   2.266   3.248 -0.1935 -0.1667 -0.1504
23167W        W39641   7.440   9.319  14.535  0.0580 -0.0647 -0.0211
23168W        W39642  15.303   5.413   0.494 -0.0694 -0.2157 -0.2195
23169W        W39643   3.427   7.087   1.728 -0.1587  0.0107 -0.5348
23170W        W39644  14.623   3.010   4.317  0.2832  0.4905 -0.2513
23171W        W39645  17.348   8.557  11.588  0.1711 -0.0938  0.3551
23172W        W39646  17.511  18.463  14.918  0.1533 -0.2591  0.2329
23173W        W39647  13.852   5.453  12.124  0.0590  0.1224  0.0821
23174W        W39648  15.667   5.137   3.607  0.0570 -0.1683  0.1506
23175W        W39649   1.638  10.211   1.743  0.4566 -0.0250  0.2446
23176W        W39650   6.058   6.054  12.260  0.1025 -0.4947  0.2784
23177W        W39651   9.665  11.621  15.204  0.0901 -0.0369  0.0600
23178W        W39652  13.734   7.453   5.767  0.0767  0.0596  0.0362
23179W        W39653  12.389   2.691  10.637 -0.2164  0.2242 -0.0243
23180W        W39654   3.711   3.665  13.773 -0.3353 -0.1388  0.1099
23181W        W39655  15.268   8.936  11.027  0.0539  0.2827 -0.2493
23182W        W39656   0.871   9.261   5.465 -0.1278  0.1177 -0.2308
23183W        W39657   7.495   7.432   0.986  0.2189  0.2294 -0.1059
23184W        W39658  18.180  15.972  11.990  0.2439  0.1743  0.0306
23185W        W39659   8.706   0.875  15.921 -0.2290  0.1261 -0.0982
23186W        W39660   1.172   8.503   2.316  0.0465 -0.1967 -0.0197
23187W        W39661  17.317  14.414  15.690 -0.0768  0.1541 -0.1479
23188W        W39662   3.103   0.407  12.658  0.4361 -0.1030  0.1352
23189W        W39663   8.210   6.734  15.812 -0.2607 -0.1263  0.3111
23190W        W39664  14.157  16.687  14.756  0.0617 -0.2904  0.1298
23191W        W39665   3.658   7.709  10.680 -0.0704  0.3096 -0.2929
23192W        W39666  10.638   9.437  12.637 -0.0303 -0.1170  0.2407
23193W        W39667  11.645   5.531  15.305 -0.3494  0.0568 -0.2716
23194W        W39668  17.022   1.167   2.031  0.2260  0.1684  0.0241
23195W        W39669   4.292   9.650   1.077 -0.1073 -0.0664  0.2133
23196W        W39670   1.063   3.072  15.021  0.2305  0.1154  0.1214
23197W        W39671   4.192   7.960  13.374 -0.0120 -0.3405 -0.2134
23198W        W39672   6.121  11.478  11.173  0.0431  0.0597 -0.2188
23199W        W39673   6.540  13.663   4.031  0.0892  0.1042  0.0021
23200W        W39674   2.154   6.237  11.067  0.1487 -0.0123 -0.1394
23201W        W39675   6.351  10.426  11.942  0.1193 -0.0668 -0.3737
23202W        W39676  18.136   0.623   1.927 -0.2831 -0.2750  0.2721
23203W        W39677   7.587  15.665   3.665  0.0717 -0.0836 -0.1206
23204W        W39678   5.480  17.746  15.346  0.1479 -0.0927 -0.2086
23205W        W39679   6.262   0.445   0.554  0.1329  0.3028  0.0309
23206W        W39680  16.092  11.955   4.651 -0.0002 -0.2700 -0.1883
23207W        W39681   0.659   5.179   1.154 -0.1355 -0.0625  0.1716
23208W        W39682  11.867   1.002  10.469  0.3588 -0.1190  0.0018
23209W        W39683  10.458   8.338  14.226 -0.1115  0.1535  0.0206
23210W        W39684   4.789   2.461  15.637  0.0145  0.3274  0.2238
23211W        W39685  15.036   9.087   5.581  0.2430  0.0106 -0.0263
23212W        W39686  15.950   6.544   2.107 -0.1465  0.0705 -0.3513
23213W        W39687   9.288   4.300  12.341  0.0841  0.0247 -0.1448
23214W        W39688   8.151  11.386  15.121  0.0117  0.5855 -0.2135
23215W        W39689  14.334   9.005  13.116  0.0805 -0.2085 -0.4153
23216W        W39690   5.389  10.973  11.976 -0.0583  0.1521 -0.0155
23217W        W39691  12.952  17.205  11.633  0.1077 -0.1668  0.2265
23218W        W39692  16.465  15.097  13.618 -0.1108 -0.1994  0.0079
23219W        W39693   6.544   1.289   4.435 -0.3429  0.1207 -0.1678
23220W        W39694   6.496   8.031   3.054  0.0134  0.0113  0.0103
23221W        W39695  10.548   8.644   0.870 -0.2061 -0.1021 -0.0835
23222W        W39696  17.607  14.154  12.784 -0.1696 -0.2300 -0.0656
23223W        W39697  17.022   4.056  12.688  0.1032 -0.0086  0.1303
23224W        W39698  11.318   6.900   1.807  0.0155 -0.1545  0.1436
23225W        W39699  14.110   9.629   4.107 -0.1627 -0.0105 -0.1038
23226W        W39700   5.766   9.591  12.515 -0.1784  0.0364 -0.0289
23227W        W39701   1.466  12.712  13.187 -0.2356  0.2087  0.1553
23228W        W39702   3.236  14.068   3.464  0.0483 -0.2236  0.2144
23229W        W39703  12.700   3.177  15.282 -0.0479  0.0614 -0.0480
23230W        W39704   0.373   0.924  11.415 -0.2846  0.2642  0.1618
23231W        W39705   1.530   2.157   1.837  0.1329 -0.3966  0.3688
23232W        W39706  18.008  12.430   0.722  0.2023 -0.2488  0.0008
23233W        W39707   3.540   7.394  11.232 -0.0205  0.3942 -0.4213
23234W        W39708   5.035  10.580  14.822 -0.0279 -0.0982 -0.0517
23235W        W39709   0.770   6.075   2.828 -0.0208  0.1341 -0.2254
23236W        W39710   1.904  15.036   1.492 -0.0004 -0.0028  0.0514
23237W        W39711  15.800  16.386  12.216 -0.0320  0.0418 -0.0048
23238W        W39712   2.920   1.527  10.118  0.0396 -0.2147  0.0695
23239W        W39713   9.937   1.240  10.742 -0.0912  0.1995  0.0052
23240W        W39714   6.368  13.937  14.877  0.3539  0.2024 -0.1457
23241W        W39715  11.676   3.753   3.070  0.1478 -0.1884  0.1937
23242W        W39716   6.246   7.227   5.788  0.2337 -0.2641 -0.2138
23243W        W39717  16.001   9.829  12.275 -0.1079  0.1987 -0.0394
23244W        W39718  14.102   2.503   5.019 -0.2859 -0.0623 -0.0697
23245W        W39719   5.461   7.757   1.929 -0.0459 -0.0984 -0.0239
23246W        W39720   5.375   0.913   5.140  0.0605  0.1992  0.0005
23247W        W39721  18.382   9.463  10.104 -0.0965  0.5632 -0.0687
23248W        W39722  11.835   6.642  15.032  0.1537  0.3904 -0.3928
23249W        W39723   9.714  10.850  15.903  0.0976 -0.4172  0.0151
23250W        W39724   7.628   6.355  13.863  0.0195 -0.0200 -0.2398
23251W        W39725  16.046   7.358   0.903 -0.2611 -0.2328  0.0263
23252W        W39726   3.507   4.172  12.709  0.0364  0.0799 -0.1132
23253W        W39727   0.977   3.868   4.954  0.0740  0.1989 -0.0254
23254W        W39728   0.736  16.251   0.088  0.0327  0.1137 -0.0512
23255W        W39729  15.943  10.563   3.140 -0.0196 -0.1072 -0.1075
23256W        W39730   5.829  12.622   1.505 -0.0732 -0.1019 -0.0303
23257W        W39731   4.428  11.095  12.085 -0.0868 -0.0945  0.1192
23258W        W39732  12.286   3.325   4.007 -0.1476  0.1876 -0.1796
23259W        W39733  10.110  16.927   1.838  0.2960  0.1756  0.0067
23260W        W39734   3.373  17.911  11.487  0.1205  0.0962  0.2848
23261W        W39735   4.923  15.153   0.845 -0.2800 -0.0960 -0.2860
23262W        W39736   1.385  10.481  11.470 -0.2338 -0.1044  0.1087
23263W        W39737   2.871  16.273   1.768 -0.0091  0.1544  0.0075
23264W        W39738   9.849   5.002  11.567  0.1170 -0.2627  0.4267
23265W        W39739   2.927  15.866  11.710 -0.2554 -0.3231  0.0492
23266W        W39740   4.050   5.589  12.590 -0.0468  0.2013 -0.1385
23267W        W39741   4.781   8.901   3.078  0.1263 -0.3096 -0.3829
23268W        W39742   9.225   0.578   1.975 -0.0986 -0.0878 -0.1277
23269W        W39743   3.660   1.122   2.813 -0.2006 -0.0437 -0.0270
23270W        W39744   7.826  12.858   4.428 -0.0034  0.1051 -0.1184
23271W        W39745  16.756   4.244   0.810 -0.1456 -0.0203  0.1573
23272W        W39746   8.268  15.796   2.943 -0.0045 -0.3861 -0.0093
23273W        W39747   1.016  13.087  15.899  0.2732  0.1171  0.0326
23274W        W39748  10.433  11.350  14.902  0.1711  0.1013  0.2555
23275W        W39749  16.286   7.132   4.509 -0.1876  0.0971  0.0300
23276W        W39750   0.273   2.596   3.131 -0.0003 -0.1051  0.3201
23277W        W39751   1.543   5.755  13.832 -0.0271 -0.1121 -0.1639
23278W        W39752   0.236  12.004  15.120  0.0593 -0.7034 -0.0716
23279W        W39753  17.267   6.382   1.072 -0.1291  0.0745 -0.0483
23280W        W39754  13.874   6.318  15.195  0.1065 -0.1371 -0.0317
23281W        W39755   3.518   1.602  12.717 -0.0290 -0.3287 -0.0335
23282W        W39756  16.512  18.000   0.375  0.2998 -0.1229  0.2467
23283W        W39757   3.850   0.500  13.345 -0.1731  0.2361 -0.0807
23284W        W39758   6.722  16.634  15.019  0.1042 -0.3762 -0.3131
23285W        W39759  16.132   2.564   0.858 -0.4619  0.1268 -0.3615
23286W        W39760  15.546   1.671  15.426 -0.1155 -0.1675 -0.1626
23287W        W39761   1.533   5.776   3.707  0.0485 -0.1502  0.1535
23288W        W39762   9.524   4.161   3.704 -0.0343 -0.0965 -0.3710
23289W        W39763  11.353   0.584   1.895  0.4192 -0.0937 -0.1913
23290W        W39764   7.145   5.893   5.672 -0.0793  0.1206  0.2267
23291W        W39765  11.868   8.889  13.891 -0.0187 -0.0631  0.3829
23292W        W39766   9.060   4.746   0.175 -0.3420 -0.0023 -0.1634
23293W        W39767  17.172   7.010  12.783 -0.0551 -0.0861  0.0660
23294W        W39768   3.946  11.471  15.852  0.0254  0.1224 -0.2131
23295W        W39769   2.683   0.441   4.332  0.2324 -0.0604 -0.0342
23296W        W39770   1.702  15.920   3.468 -0.1276  0.0617  0.3930
23297W        W39771  16.054   8.433   3.712 -0.3972  0.0245 -0.0074
23298W        W39772  10.555   4.882  13.354  0.2695  0.0801 -0.1164
23299W        W39773   9.006  17.522  15.350  0.2614  0.1011 -0.3037
23300W        W39774   4.030   4.292  15.165 -0.0691  0.1250 -0.2344
23301W        W39775   0.939   3.376   4.804  0.1002 -0.0883 -0.0363
23302W        W39776  11.612   4.381  13.814  0.0358  0.0446 -0.1805
23303W        W39777  12.704   9.992  11.883 -0.0007  0.0309  0.0989
23304W        W39778   0.475   9.338  15.230  0.0400  0.2252 -0.0424
23305W        W39779  16.014  10.012   2.902 -0.1062 -0.1142  0.0298
23306W        W39780  13.213   6.278  14.853  0.0971 -0.2696 -0.0342
23307W        W39781   3.326   7.126  12.799 -0.0953 -0.2458  0.0842
23308W        W39782   3.312   0.775   0.571 -0.2338  0.0092  0.0645
23309W        W39783   2.576  16.210  15.432  0.2536 -0.2193 -0.2271
23310W        W39784   1.360   9.209  11.064 -0.1671  0.0993 -0.0834
23311W        W39785   0.971   8.544  13.157 -0.0244  0.0667  0.0289
23312W        W39786   5.641   1.099   2.645 -0.1155  0.1802 -0.0067
23313W        W39787   2.818   4.798   3.687  0.1320  0.1572  0.2220
23314W        W39788   8.834  16.310  15.233 -0.1064  0.3152 -0.0519
23315W        W39789   8.039  11.194  11.043  0.0172  0.1499 -0.0742
23316W        W39790   8.388  10.134  14.446  0.1481  0.1627  0.1099
23317W        W39791   7.273   8.314   0.655 -0.0987 -0.2984 -0.2357
23318W        W39792  10.728   2.414  13.875 -0.0410 -0.1489  0.5207
23319W        W39793   7.431   5.923  14.799  0.2235 -0.0196  0.0835
23320W        W39794  11.660  17.157   3.163 -0.4798  0.1280 -0.1286
23321W        W39795   7.288  14.068  12.707  0.0624 -0.1811 -0.2658
23322W        W39796  17.434  15.440  14.903 -0.0112 -0.0064 -0.2526
23323W        W39797  12.103  17.579   4.215  0.2034  0.0272 -0.3546
23324W        W39798   6.812   9.884   3.214  0.0131 -0.0789 -0.1644
23325W        W39799  16.548   7.841  14.879  0.3593  0.1179  0.1417
23326W        W39800   6.856   4.575   1.102 -0.2049 -0.1226 -0.1895
23327W        W39801   5.476   8.800   2.475  0.2074  0.0435 -0.0062
23328W        W39802   3.888  18.367   3.458  0.4551 -0.3013 -0.0278
23329W        W39803   5.253   6.525   1.372 -0.0568  0.4579 -0.0916
23330W        W39804   9.499  14.603  13.459  0.4018 -0.0675 -0.0036
23331W        W39805  11.389  17.963   4.376  0.0408  0.0410  0.1130
23332W        W39806   2.529  13.034   0.938 -0.0882  0.0708 -0.1131
23333W        W39807   4.348   7.834  11.317 -0.1514  0.1364 -0.0343
23334W        W39808  14.833  18.438  12.172 -0.2763 -0.3932 -0.1246
23335W        W39809  14.429  11.417   2.203  0.1722 -0.2345  0.0812
23336W        W39810   5.754  11.353  14.668 -0.0298  0.2008  0.3495
23337W        W39811   0.234   2.374  14.990 -0.0292  0.4613  0.0064
23338W        W39812  12.019   8.548   2.962 -0.0133  0.0952  0.1089
23339W        W39813  12.044  12.520  11.828 -0.3083 -0.1854  0.3110
23340W        W39814   4.342  18.135   3.685  0.1381 -0.1164 -0.0722
23341W        W39815  17.773  10.057   0.919  0.1196  0.1759 -0.0268
23342W        W39816   0.513  14.619   4.969  0.0197 -0.3017  0.0916
23343W        W39817   2.863  18.043   4.111  0.0654 -0.2450 -0.0788
23344W        W39818   1.177  14.187  15.100  0.4839 -0.0645 -0.3521
23345W        W39819   6.174  16.114   2.057 -0.3813 -0.4173 -0.1286
23346W        W39820   0.537  10.711  14.804 -0.0445 -0.1216  0.5732
23347W        W39821  17.157   7.798   3.240  0.2540  0.0784  0.1815
23348W        W39822   8.217   1.051   4.811 -0.0562  0.1138  0.2547
23349W        W39823   8.374   8.760   4.236 -0.3432  0.2653 -0.1759
23350W        W39824  14.701   2.560  14.035  0.2566 -0.3188 -0.0933
23351W        W39825  12.109  15.462  15.114 -0.0974 -0.0761  0.2752
23352W        W39826   5.662   7.731  10.048 -0.0976  0.2311  0.1570
23353W        W39827  12.356  17.498   0.666  0.1012  0.0510  0.1305
23354W        W39828   9.070  15.780   4.601 -0.0601  0.2938 -0.1019
23355W        W39829   7.833  14.036  14.797  0.4060 -0.2647 -0.0779
23356W        W39830  11.124   8.709  15.030  0.0759 -0.1282 -0.0290
23357W        W39831   5.905   1.839  15.860 -0.1796  0.4800  0.4850
23358W        W39832   1.565   4.536  12.786  0.0218  0.0447 -0.0075
23359W        W39833   6.123   3.626   0.552  0.2661 -0.1609 -0.0757
23360W        W39834   8.193   3.175   2.827  0.5655 -0.5934  0.1499
23361W        W39835  13.378  18.017  15.808  0.0615  0.0019 -0.1024
23362W        W39836  13.846  16.936  15.497  0.3282  0.1201  0.1241
23363W        W39837   1.860  10.695  11.261  0.1727  0.1490  0.1328
23364W        W39838   2.938   1.844   2.547  0.0442 -0.2408 -0.1150
23365W        W39839  10.676  15.247   1.683  0.0926 -0.1307 -0.1749
23366W        W39840   2.128   9.222  11.667 -0.1498  0.1852  0.0722
23367W        W39841  12.474  10.982   1.121 -0.0703  0.2771 -0.2778
23368W        W39842   0.019   2.082  14.094  0.1111  0.2999 -0.1458
23369W        W39843   2.465   6.820  14.788 -0.0983  0.0257  0.1342
23370W        W39844   3.919   8.752  12.339  0.2755 -0.1917 -0.3850
23371W        W39845  11.814   9.768  11.471 -0.4346 -0.0214 -0.2926
23372W        W39846  10.235   2.349   0.087 -0.0982  0.2460  0.2257
23373W        W39847  14.153  10.533   4.421 -0.1225  0.2963  0.0062
23374W        W39848   9.294  18.313  10.553  0.1024 -0.1226 -0.0882
23375W        W39849   6.271   1.786   1.190  0.1532  0.1635  0.0806
23376W        W39850  10.564  10.308   5.565 -0.4597 -0.4014  0.0588
23377W        W39851  15.533  18.289  14.081 -0.1553  0.0677 -0.2744
23378W        W39852  10.242   0.426  11.249 -0.1322 -0.0412  0.2724
23379W        W39853  12.093   8.861   3.661 -0.2425 -0.1037  0.2560
23380W        W39854  10.749   1.195   4.349  0.0362 -0.0187  0.2154
23381W        W39855   8.927   4.565  15.241 -0.0732  0.0905  0.2171
23382W        W39856  14.136   2.480  15.685 -0.3068  0.1281  0.1665
23383W        W39857   9.902   3.042   1.478  0.2191  0.1768 -0.0981
23384W        W39858  11.211   7.682   1.446  0.1907 -0.0813  0.2409
23385W        W39859   9.321   5.284   2.292  0.1189  0.1203  0.0845
23386W        W39860  17.137   6.509   1.804  0.1023 -0.0754  0.1741
23387W        W39861   7.655   5.018  14.755 -0.2635  0.2476  0.1890
23388W        W39862  13.986   2.403   3.926  0.0938 -0.2834 -0.0305
23389W        W39863  14.865   9.426  13.100  0.2680 -0.2486 -0.0833
23390W        W39864   2.990   5.707  12.630 -0.2435 -0.1322  0.0116
23391W        W39865   1.444   9.373   0.888 -0.0788  0.0159  0.0636
23392W        W39866  18.236  17.483   3.697  0.0283  0.1882 -0.0899
23393W        W39867   2.637  13.714   5.295  0.1583  0.3002  0.1389
23394W        W39868  16.086  14.705  13.708  0.1747  0.0544 -0.2160
23395W        W39869  17.729   6.907  12.073 -0.0488 -0.0530  0.2187
23396W        W39870   0.463  14.268  14.443  0.1199 -0.0896 -0.0736
23397W        W39871   6.992   5.335   0.699 -0.2445 -0.3763 -0.3181
23398W        W39872   1.701   8.039   2.845  0.2117 -0.0931  0.0640
23399W        W39873  10.865   8.666  13.377 -0.0874  0.0536  0.2013
23400W        W39874   8.885  14.867  14.451  0.0177  0.1886 -0.3666
23401W        W39875  16.171   6.623  11.611  0.1021  0.0082  0.1408
23402W        W39876  10.029   3.344   5.303 -0.0721 -0.0954 -0.1851
23403W        W39877  16.256  10.846   1.750  0.0656  0.1632  0.1299
23404W        W39878   5.316   6.473   4.405 -0.3149 -0.3110 -0.0149
23405W        W39879   1.181  14.829   3.895 -0.0784 -0.1651 -0.0283
23406W        W39880  12.625   6.535   0.721  0.2050  0.2413 -0.0353
23407W        W39881  16.519   0.738  13.876  0.2123 -0.0787 -0.0758
23408W        W39882  17.924  18.338  15.635 -0.0948  0.2707  0.1022
23409W        W39883   3.701   3.823   0.612  0.0213 -0.0969 -0.0976
23410W        W39884   2.033  10.438  14.201  0.2410 -0.0631  0.1789
23411W        W39885   8.031  11.704   3.799  0.0882  0.0207  0.2432
23412W        W39886   8.369   5.722   0.020  0.0944 -0.0547 -0.0427
23413W        W39887   3.995   7.572   0.537 -0.0768 -0.0410 -0.1182
23414W        W39888  12.450  13.322  13.100 -0.2912 -0.0591  0.0319
23415W        W39889   9.058  12.681   0.998  0.0457 -0.3532  0.0349
23416W        W39890   4.771  11.790   5.000  0.2980 -0.1231  0.1096
23417W        W39891   8.919  16.283   0.073 -0.0484  0.1919 -0.1065
23418W        W39892   2.719   1.060   0.400  0.0722 -0.1352 -0.2486
23419W        W39893   4.311  16.223   2.395  0.2846 -0.1467 -0.0619
23420W        W39894   6.545   0.230  11.743 -0.0758  0.0278  0.0272
23421W        W39895  15.930   2.906   4.940 -0.3042  0.1807 -0.2095
23422W        W39896  10.840   0.756  13.730 -0.2140  0.0867 -0.0407
23423W        W39897  14.340   4.433   1.129 -0.1689  0.0701 -0.0199
23424W        W39898   8.964  18.447   4.236  0.1000 -0.1938  0.0458
23425W        W39899   6.625   5.182  11.783 -0.0573 -0.1787 -0.0892
23426W        W39900  10.851   4.511   0.435 -0.2524  0.0321  0.2761
23427W        W39901  13.788   0.188   3.726 -0.4152 -0.1364 -0.1262
23428W        W39902   5.663   1.182  10.388 -0.1367  0.1841 -0.1552
23429W        W39903  10.919   1.684  11.512 -0.0507  0.2702 -0.0680
23430W        W39904   5.058   6.702   0.843 -0.0631 -0.0825  0.2184
23431W        W39905  11.287  12.626   4.555 -0.1089  0.0583 -0.0656
23432W        W39906  18.038  17.237   4.177 -0.0958 -0.1454 -0.0052
23433W        W39907   8.517   7.476   3.391  0.3258  0.0348  0.1136
23434W        W39908   7.433   4.217   5.275 -0.0475 -0.0765 -0.3505
23435W        W39909   8.286   4.373   2.991 -0.2029  0.0533  0.1028
23436W        W39910  13.957   6.675  12.382 -0.2347 -0.0408 -0.1015
23437W        W39911   4.325  16.438   3.690 -0.4317 -0.3389  0.1026
23438W        W39912   9.615   5.854   0.458 -0.0286  0.2170 -0.3496
23439W        W39913  16.281   4.079   3.481  0.2456 -0.1510 -0.1004
23440W        W39914   4.934  14.334   3.546 -0.0782 -0.1936  0.1412
23441W        W39915   4.654  15.680  13.502  0.1848  0.1632  0.1776
23442W        W39916   8.365  16.192  11.071 -0.1663  0.0786 -0.2451
23443W        W39917   5.182   7.021   4.512 -0.1612  0.1232  0.0413
23444W        W39918  13.527   1.356   3.811 -0.2921  0.0468  0.0431
23445W        W39919   6.509   2.331  13.857 -0.0270 -0.0985  0.2412
23446W        W39920  14.645   1.011   5.732  0.0102 -0.0827 -0.1011
23447W        W39921   2.676  15.970  14.944 -0.3419 -0.2524 -0.1649
23448W        W39922   1.355  10.997   2.451 -0.0286 -0.0861 -0.2364
23449W        W39923   0.967   5.460  15.029  0.2466 -0.1660  0.2627
23450W        W39924   5.927  12.284  13.107  0.2498  0.0643 -0.0259
23451W        W39925   2.380   5.504   3.796  0.0152  0.3083 -0.0361
23452W        W39926  14.943  17.860  14.765 -0.1280 -0.0100  0.3647
23453W        W39927   4.780  15.090  15.897  0.1010  0.1332 -0.2428
23454W        W39928  15.526  16.731  11.202  0.1647 -0.0447 -0.0475
23455W        W39929  15.079  13.438   3.062 -0.0490 -0.0999  0.1994
23456W        W39930   3.651  12.750  14.210  0.0786  0.1897 -0.1818
23457W        W39931   0.552   7.953  11.666  0.3062  0.0784  0.1294
23458W        W39932  12.331  13.387   6.550  0.0491  0.1256  0.2086
23459W        W39933  15.416   0.189   2.333 -0.0071 -0.2459  0.0974
23460W        W39934   3.436  13.571  15.689 -0.3204 -0.0246 -0.2724
23461W        W39935   7.004  11.306   3.818  0.0591  0.0728  0.0548
23462W        W39936   3.442   4.560   5.406  0.2950  0.5725 -0.2512
23463W        W39937   0.622   1.706   4.100 -0.0604 -0.0298 -0.1451
23464W        W39938   8.304  13.804  13.954 -0.1188  0.0936  0.2057
23465W        W39939   6.291  14.677   1.548  0.0556  0.2201  0.2098
23466W        W39940  14.919  16.883   1.693 -0.3712  0.0899 -0.4598
23467W        W39941   7.784  12.711   5.303 -0.0991 -0.3099  0.2907
23468W        W39942   7.525   6.428   1.260  0.1299  0.1255 -0.0836
23469W        W39943   1.816   6.946  13.885  0.2647 -0.0878  0.0243
23470W        W39944   2.763  12.678  15.428 -0.2038  0.0948  0.2146
23471W        W39945   7.105  14.300   4.764  0.4733 -0.3268 -0.0109
23472W        W39946   7.144  12.089   3.259 -0.0131  0.0662 -0.0994
23473W        W39947   7.543   9.235   0.835  0.0764  0.0112 -0.2908
23474W        W39948  15.608   4.946   2.190 -0.1390  0.4462  0.0594
23475W        W39949   2.632  15.046  15.237 -0.0370  0.4080  0.2589
23476W        W39950   9.747   0.776  14.534 -0.1259 -0.0947  0.1592
23477W        W39951   6.580  18.324  13.883  0.0965  0.1807  0.2564
23478W        W39952  13.407  13.108  11.488  0.0102 -0.1184 -0.0754
23479W        W39953   7.118   1.677  13.423 -0.0761 -0.2332  0.0226
23480W        W39954   5.656   5.325   3.485 -0.0305 -0.0335 -0.0925
23481W        W39955   5.666  15.326   1.236  0.1149  0.0284 -0.1576
23482W        W39956   0.047  13.025   5.527 -0.0444 -0.0663  0.2140
23483W        W39957   7.385  16.711   3.557 -0.1185 -0.2349  0.2987
23484W        W39958   0.329   7.274   1.453  0.0155  0.0723 -0.2102
23485W        W39959  10.941   4.964   2.025  0.1681 -0.1140 -0.0357
23486W        W39960  11.359  11.535  13.020 -0.1953 -0.1588 -0.0791
23487W        W39961   5.853  11.799   1.241  0.0916 -0.4598 -0.2560
23488W        W39962  17.470  10.767   0.379 -0.0656 -0.0090 -0.2454
23489W        W39963  14.184  17.347   0.681  0.1407 -0.0045  0.0360
23490W        W39964   0.234  12.041  10.875  0.2000 -0.0868  0.1772
23491W        W39965  12.259   4.588  12.020  0.4848  0.4102  0.0260
23492W        W39966  10.873   6.470  10.379  0.0087  0.0976 -0.1109
23493W        W39967   5.418   8.888  11.992  0.1914  0.0131 -0.0318
23494W        W39968   2.245  14.979   2.687 -0.0667  0.2298  0.0308
23495W        W39969  13.081  11.293   4.998  0.1313  0.1921  0.1150
23496W        W39970  13.758   0.784  12.432 -0.0573 -0.1883 -0.0685
23497W        W39971   6.583  16.398  13.366 -0.0135  0.0444  0.0068
23498W        W39972   5.443   5.767  12.777  0.1227 -0.4708 -0.0772
23499W        W39973   6.311   2.059  15.334 -0.0857 -0.0094  0.2862
23500W        W39974  11.288   9.085   3.128  0.2592  0.1166 -0.1572
23501W        W39975   7.406  14.942  11.731 -0.0718  0.0581 -0.1731
23502W        W39976  10.283   7.401   0.915  0.1459 -0.0347 -0.0167
23503W        W39977   2.648   7.034   5.867 -0.0895 -0.2810  0.0120
23504W        W39978   0.314  18.478  14.021 -0.0867 -0.0769  0.0680
23505W        W39979   8.774  12.174  13.164 -0.0294 -0.4098 -0.0542
23506W        W39980   4.323   6.737   4.264  0.1158  0.1433  0.1442
23507W        W39981   9.205  13.854   4.176  0.1613 -0.3642  0.2721
23508W        W39982  14.144  10.828   0.489  0.0921 -0.0866  0.2604
23509W        W39983   0.716  14.748  15.006  0.1210 -0.0087  0.0110
23510W        W39984  17.559  14.877  13.495  0.1529 -0.0980  0.0538
23511W        W39985   1.758  16.247   1.884  0.3542 -0.1588  0.4658
23512W        W39986  15.930   1.450   4.586 -0.0542 -0.0560  0.0028
23513W        W39987  13.810  15.660   0.180  0.1024 -0.1151 -0.0860
23514W        W39988   5.890  13.177   3.309  0.0343 -0.1571 -0.1928
23515W        W39989   5.959   3.208   5.089  0.0369  0.1494  0.0556
23516W        W39990   0.944   7.820  11.390  0.1027 -0.1100 -0.1307
23517W        W39991  18.070   8.932   2.353 -0.0735 -0.3659 -0.0419
23518W        W39992   9.982   0.355  10.815 -0.1788  0.1183  0.0984
23519W        W39993   7.354   3.553   1.453 -0.0032 -0.2511  0.0839
23520W        W39994   8.972  14.725  12.214 -0.1580 -0.3854 -0.2498
23521W        W39995   0.913  11.959  12.837 -0.0232  0.0645  0.1300
23522W        W39996   2.902  11.431   3.115 -0.1214 -0.0027 -0.3916
23523W        W39997   6.207  12.784  12.033  0.3929 -0.0053 -0.0831
23524W        W39998   2.772  12.836   3.434 -0.0081  0.1511 -0.2103
23525W        W39999  13.557  12.651   1.557 -0.0842  0.0676 -0.0370
23526W        W40000  17.559   4.025  12.677  0.2668 -0.0335 -0.1694
23527W        W40001  16.966   3.502   2.886 -0.0387 -0.1885  0.1621
23528W        W40002  11.793   8.909   3.257 -0.4039  0.1267  0.0411
23529W        W40003  13.342   0.353  13.158 -0.3799  0.1381  0.0620
23530W        W40004   8.864   4.750   3.475 -0.1343  0.1053  0.4791
23531W        W40005  15.634   2.878  14.553  0.0011 -0.0685  0.0633
23532W        W40006  15.168   9.141   3.024 -0.0239 -0.1513  0.0875
23533W        W40007  15.593   8.506  15.347 -0.2449  0.2355 -0.2290
23534W        W40008   4.697  12.285  13.515 -0.2745 -0.1218  0.1915
23535W        W40009   2.915   1.319   1.670  0.1245  0.1013  0.1197
23536W        W40010   4.795   6.105   0.633  0.2363 -0.3840  0.3114
23537W        W40011   9.705  14.488   2.642 -0.0087 -0.2548 -0.2439
23538W        W40012  12.858   1.874  11.007 -0.2758  0.0461 -0.1259
23539W        W40013   2.710  15.462   5.288  0.0297 -0.0302 -0.1104
23540W        W40014  18.359  17.069  13.824  0.2424 -0.0804  0.3910
23541W        W40015   2.283  13.383   1.179  0.2570  0.0277 -0.0516
23542W        W40016  11.159   3.307  10.780 -0.0321 -0.0161 -0.0529
23543W        W40017   2.680   8.044  11.119  0.2070  0.0771 -0.1120
23544W        W40018  10.676   9.050   5.538 -0.0512  0.0057 -0.0244
23545W        W40019   8.260   7.801   4.419  0.0520 -0.1821  0.1245
23546W        W40020  17.520  13.726   5.225 -0.3642 -0.1829  0.1123
23547W        W40021  12.986  17.487  14.690 -0.2989  0.3156 -0.2597
23548W        W40022  11.810  14.532   1.705  0.1514  0.1563 -0.0327
23549W        W40023  13.701   8.918  15.563  0.2604 -0.0067  0.0584
23550W        W40024   4.863  16.916   0.579 -0.3569 -0.0558 -0.4657
23551W        W40025  10.419   0.283   0.093 -0.2804  0.3899 -0.0353
23552W        W40026  16.059  11.718  10.964  0.0199  0.0466 -0.0341
23553W        W40027  13.477  10.844   5.071 -0.0742  0.1125 -0.0323
23554W        W40028   1.262  16.127   0.805 -0.1497  0.1008  0.2103
23555W        W40029   7.930  18.270   0.152  0.0115  0.0781 -0.0348
23556W        W40030   7.840   7.553  10.823  0.2002 -0.0246 -0.1950
23557W        W40031   9.112   6.660  15.065 -0.0036 -0.0523 -0.3288
23558W        W40032  14.511   0.255   2.116 -0.2232 -0.1543  0.2872
23559W        W40033  17.670   5.908   1.782 -0.0291  0.3702 -0.1025
23560W        W40034   4.632  10.171   3.148 -0.0252 -0.1044  0.0185
23561W        W40035  14.802   7.024   1.181  0.3321 -0.0591 -0.1871
23562W        W40036   3.024   0.512  14.490 -0.1342 -0.2933  0.0202
23563W        W40037  11.447  18.041   1.076  0.0658 -0.0350  0.4631
23564W        W40038   6.578  13.157   0.674 -0.1893 -0.2321 -0.2340
23565W        W40039  16.529  16.077  13.850  0.1068  0.1362 -0.1880
23566W        W40040  11.819  16.132  15.258  0.1159 -0.1229 -0.1957
23567W        W40041   1.166   2.025   1.522  0.0869  0.1217  0.3094
23568W        W40042  13.365  10.280   0.455 -0.1404 -0.0025 -0.2863
23569W        W40043  13.959   5.599   3.295  0.0098  0.3257 -0.0821
23570W        W40044  12.186  11.297   1.470 -0.0725  0.0458  0.2180
23571W        W40045   0.365  10.978  13.536 -0.0431 -0.1385 -0.0187
23572W        W40046   2.239  17.860  14.018  0.0776  0.2305 -0.0481
23573W        W40047  11.476   8.130   3.745 -0.0421  0.0089  0.0779
23574W        W40048   3.139   9.630  14.609 -0.1086 -0.2388 -0.0252
23575W        W40049  15.564   0.058   2.848  0.0414 -0.2062 -0.0017
23576W        W40050  14.726  12.238   1.989  0.0092  0.0220  0.0648
23577W        W40051  10.304   5.572   2.830 -0.2529 -0.0255 -0.1004
23578W        W40052  15.163   3.979  15.245 -0.1121  0.0099  0.0480
23579W        W40053  15.475  18.401  12.619 -0.0601 -0.1040 -0.0227
23580W        W40054   0.059  18.168  12.329  0.2537  0.2412 -0.2393
23581W        W40055   6.672   3.212  13.749  0.2462  0.1866 -0.2726
23582W        W40056   3.986   5.817  15.656 -0.1285  0.1177  0.2282
23583W        W40057   4.379   4.776   5.263 -0.1426 -0.0188  0.1358
23584W        W40058  15.848  15.562   4.941  0.2080  0.2741  0.0112
23585W        W40059   6.366  18.106   4.058  0.0757  0.2019  0.0020
23586W        W40060  15.739  18.150   1.182 -0.1260 -0.0665 -0.0743
23587W        W40061  15.560  13.310  13.921 -0.3555  0.1669 -0.1502
23588W        W40062   6.386   0.516  12.796 -0.0481 -0.1302  0.0524
23589W        W40063  17.798   6.040  11.925  0.0557 -0.1591  0.1165
23590W        W40064   1.918   9.527   4.001  0.2445 -0.0849  0.1633
23591W        W40065  14.790   4.056  14.829  0.2748  0.0089  0.0008
23592W        W40066   3.727   7.773  14.814 -0.1520  0.0966  0.1245
23593W        W40067  14.556  14.501   3.245  0.0215 -0.0873 -0.0988
23594W        W40068  17.988  17.871  11.281  0.0026  0.3220 -0.0885
23595W        W40069  15.594   5.133   0.183  0.0182 -0.0729  0.0555
23596W        W40070   4.987  12.749  14.690  0.1938 -0.1881 -0.2171
23597W        W40071  16.311  10.964   3.482  0.1866  0.1144  0.2418
23598W        W40072   7.190  14.085   4.340  0.1335 -0.3402  0.0253
23599W        W40073   9.383   1.928   2.716  0.3711 -0.0562 -0.1111
23600W        W40074  13.189   7.793   0.166 -0.3158 -0.0731  0.3132
23601W        W40075   2.110  10.601  12.135  0.1296 -0.0656 -0.2254
23602W        W40076   6.396   8.588  15.922 -0.0418 -0.2920 -0.2723
23603W        W40077  14.183  11.010  15.660 -0.0429 -0.0070  0.0242
23604W        W40078   8.594  17.089  15.247  0.2132 -0.1191  0.4467
23605W        W40079   6.467  15.262   0.257 -0.0498  0.2469 -0.0600
23606W        W40080  14.607   5.984   2.730  0.1679  0.0424 -0.0631
23607W        W40081  15.987  11.615   2.136  0.1925 -0.1864 -0.1450
23608W        W40082   4.265  17.215  15.874 -0.2087 -0.0942  0.4708
23609W        W40083  14.122  14.291   4.353  0.0017  0.0489  0.1294
23610W        W40084  10.469  18.286  13.714  0.1202 -0.2117 -0.1173
23611W        W40085  15.369   8.364   3.020 -0.0006 -0.0453 -0.2531
23612W        W40086  13.727  12.591  15.818 -0.1775 -0.1968  0.1117
23613W        W40087   9.524  18.121  13.769  0.1102 -0.3163  0.2504
23614W        W40088   1.600  15.893   4.437  0.1093  0.2509  0.0265
23615W        W40089  16.125  14.475  12.755 -0.0156  0.0511  0.1198
23616W        W40090  10.617  17.444  13.197 -0.1597 -0.1762  0.0478
23617W        W40091  12.150   8.972  13.447 -0.1682  0.0904 -0.0282
23618W        W40092   8.397   0.991  12.702  0.2046 -0.1038 -0.0103
23619W        W40093   3.602  12.279   1.419 -0.0196 -0.0315 -0.0008
23620W        W40094   8.551   0.017  10.728 -0.0757  0.1996 -0.0348
23621W        W40095   5.222   2.739   1.146 -0.0740  0.2959 -0.0848
23622W        W40096  16.707   8.391   4.338 -0.1243  0.2791 -0.1388
23623W        W40097   8.569   3.533   4.037 -0.1911  0.0128  0.1979
23624W        W40098   5.380   0.910  13.638  0.0428 -0.0042 -0.0022
23625W        W40099   7.519   4.175   1.663 -0.0418 -0.1626  0.2583
23626W        W40100   2.053   6.712  11.017 -0.1847 -0.3916  0.1153
23627W        W40101   8.641   7.406   2.343 -0.2221 -0.0536 -0.0041
23628W        W40102   9.195   8.169   0.617  0.0913  0.2475 -0.1036
23629W        W40103  14.414  15.396   4.377 -0.0600  0.2738 -0.1513
23630W        W40104  14.415  18.177   0.415  0.1379 -0.1663 -0.1472
23631W        W40105   1.579  15.688  14.017  0.1174 -0.1625 -0.0879
23632W        W40106   0.941   7.215  12.031  0.1758 -0.0862 -0.1753
23633W        W40107   2.284  17.440  15.330 -0.0656 -0.1932  0.1256
23634W        W40108  11.282  11.163   3.593  0.1167 -0.0256  0.0398
23635W        W40109   1.140  11.340   2.110  0.0221  0.0648  0.1194
23636W        W40110   5.664   5.813   3.619  0.1163 -0.1446  0.4294
23637W        W40111   5.388  12.646  14.296  0.0384  0.1809  0.1275
23638W        W40112   0.478  13.838   1.573 -0.2574  0.1433  0.0596
23639W        W40113   0.445   3.915  14.065 -0.0363 -0.1218 -0.1379
23640W        W40114  18.151   8.033  13.203 -0.0818 -0.1348  0.2132
23641W        W40115   7.469   4.762   4.789 -0.0210  0.0239  0.0168
23642W        W40116  10.547   1.127   3.374  0.1283  0.1597  0.0114
23643W        W40117  11.929  15.443  12.937 -0.2463 -0.0289 -0.1316
23644W        W40118  12.429   1.301   5.218  0.4000 -0.2004  0.0934
23645W        W40119  11.429   9.424  11.516  0.1176  0.1423 -0.0507
23646W        W40120  16.615  11.447  13.556  0.2210 -0.2331  0.0805
23647W        W40121   3.012   1.980   1.745 -0.0949 -0.2044  0.3389
23648W        W40122  16.779  17.764  15.954  0.0981 -0.1739 -0.0466
23649W        W40123   8.790  10.330  14.068 -0.0923  0.3274 -0.1456
23650W        W40124   3.598  14.990   2.029  0.1294  0.0390  0.1627
23651W        W40125   9.274   0.728   2.596  0.1750  0.1060  0.1686
23652W        W40126  17.911  11.752  11.492  0.0770 -0.0588 -0.0446
23653W        W40127  11.809  10.352   3.170 -0.0117 -0.0325  0.1824
23654W        W40128   1.187  18.048   0.744  0.1092 -0.1265 -0.0572
23655W        W40129  17.132  13.461   1.776  0.0938  0.2234 -0.0676
23656W        W40130  15.134  16.952  15.679 -0.0575  0.2929  0.3251
23657W        W40131  17.599   5.742  11.203 -0.0050  0.3749  0.0029
23658W        W40132   6.381  14.388  13.647  0.0352  0.0149  0.0003
23659W        W40133  12.592   0.880   0.677 -0.1019  0.0887 -0.2656
23660W        W40134  15.782   8.176  12.046  0.4029 -0.1361 -0.2196
23661W        W40135   9.329   3.908  13.824 -0.0343  0.3297 -0.0555
23662W        W40136  13.921  14.527  14.932 -0.2511 -0.0522 -0.1893
23663W        W40137   9.470   3.985   0.499  0.0767  0.1230  0.0737
23664W        W40138   5.259   8.318  10.586  0.0958 -0.1111 -0.1887
23665W        W40139  13.608   2.837   2.787  0.0073 -0.0292 -0.0051
23666W        W40140   0.592  14.501   1.494 -0.0933 -0.1991 -0.0658
23667W        W40141   4.437   1.049  12.797  0.1543  0.2248 -0.1630
23668W        W40142  16.604  14.623   0.362 -0.0078  0.2158 -0.0601
23669W        W40143   2.269  18.312   2.006 -0.0249  0.0835  0.1802
23670W        W40144   5.242   5.587  13.235 -0.0136 -0.1635 -0.2927
23671W        W40145  14.518  11.729   2.687 -0.0900  0.1609 -0.2509
23672W        W40146  12.297   6.283  12.132  0.1552 -0.0068 -0.4406
23673W        W40147  17.665  15.460   2.140  0.0152 -0.0053 -0.2175
23674W        W40148  13.617  14.794   5.137  0.1902  0.0827 -0.0230
23675W        W40149  12.924  16.581   2.875  0.1225 -0.2133  0.0373
23676W        W40150   7.749   3.646  12.236  0.0749  0.1467  0.1743
23677W        W40151  12.529  14.481  13.615  0.2882  0.1324  0.1013
23678W        W40152  18.096   6.733   5.294 -0.1571  0.0678  0.0155
23679W        W40153   7.424  15.092   5.332  0.1598  0.2214 -0.1072
23680W        W40154  16.443   6.739   0.499 -0.2556 -0.0047  0.1211
23681W        W40155   7.563  17.813   3.028 -0.1159 -0.1592  0.1686
23682W        W40156   5.763   1.500  12.154  0.0281  0.1306  0.2328
23683W        W40157   1.132  11.591  13.234  0.0112  0.1038 -0.1882
23684W        W40158   1.883   3.706  15.293 -0.0855 -0.0082 -0.0841
23685W        W40159   2.050  13.252  14.830  0.3884  0.3112 -0.1499
23686W        W40160   6.324  15.831   3.251  0.0653 -0.1365 -0.4251
23687W        W40161  15.625   8.340  11.393 -0.5887  0.0023 -0.2148
23688W        W40162  16.127  16.545   2.564 -0.1752  0.3005  0.0997
23689W        W40163   2.547   7.792   0.135 -0.4018  0.1026 -0.2194
23690W        W40164   9.615   1.995  15.023 -0.0761  0.1062 -0.1851
23691W        W40165  14.617  15.251   0.357  0.1396 -0.2543 -0.0087
23692W        W40166   7.772   8.350   2.434 -0.1026  0.1404 -0.0701
23693W        W40167  12.447   8.428  11.970  0.3986  0.0709 -0.2245
23694W        W40168   7.209   5.102   2.697  0.2407 -0.0739 -0.1873
23695W        W40169   3.186   4.885   2.667 -0.1984 -0.0090 -0.0585
23696W        W40170   6.236  17.082   0.885 -0.1842 -0.1783 -0.0522
23697W        W40171   7.128  15.704   2.245  0.0573 -0.0120 -0.0181
23698W        W40172  13.652  14.938  14.639  0.0069 -0.4167 -0.3647
23699W        W40173  14.832  14.167  10.672 -0.0044  0.0015 -0.1662
23700W        W40174   5.722   0.858   3.167  0.0038  0.0428 -0.2320
23701W        W40175  10.633   8.036   4.914 -0.3835 -0.2002 -0.2275
23702W        W40176   5.159   8.128   2.918  0.0448 -0.0701 -0.0127
23703W        W40177  14.410  15.427  12.371 -0.0763 -0.1607 -0.2908
23704W        W40178   6.084   5.444  13.436 -0.0303 -0.1874  0.0618
23705W        W40179  14.126  10.307   0.275  0.2038  0.2915 -0.1374
23706W        W40180   1.171   1.341   0.760 -0.1290  0.2624 -0.1136
23707W        W40181   3.461  13.277   5.089 -0.2298  0.0150 -0.0341
23708W        W40182  13.117  11.104   1.672  0.1906  0.3843  0.1338
23709W        W40183   7.013   0.178  14.927 -0.0074 -0.0916  0.0693
23710W        W40184   0.910  10.571  14.248  0.0819  0.0313  0.3439
23711W        W40185   7.507   7.732   4.860  0.0059 -0.4167  0.3939
23712W        W40186  11.279   2.679  11.989 -0.0683  0.1825  0.0332
23713W        W40187  11.997   7.699   2.577 -0.0070  0.1935 -0.0232
23714W        W40188   1.101   2.632  14.704  0.3537 -0.0775 -0.1029
23715W        W40189  10.095  10.356   0.655 -0.4047  0.0071  0.0324
23716W        W40190   5.826  16.780   5.486 -0.1155 -0.2813 -0.0911
23717W        W40191  16.574   6.032  13.690  0.1156 -0.0016  0.0578
23718W        W40192   5.433   5.192   3.926 -0.1310  0.1956  0.2683
23719W        W40193  12.171   9.624   2.975  0.1374 -0.0353  0.2214
23720W        W40194   9.407   8.231   6.387  0.3313 -0.1770  0.2477
23721W        W40195   9.731   4.407   2.279 -0.1460  0.0156  0.1822
23722W        W40196  17.512  17.554   4.997  0.0186  0.1287 -0.2702
23723W        W40197   9.599   4.468   5.421 -0.1441 -0.0888 -0.1206
23724W        W40198  10.475   7.272   4.001  0.1496 -0.0806  0.0881
23725W        W40199   9.556   9.391  13.439  0.0357  0.0603  0.2167
23726W        W40200   8.757   3.253  11.608  0.0120  0.0657  0.0633
23727W        W40201  12.799  12.610  10.801  0.3303  0.1305 -0.3264
23728W        W40202   8.825  10.536   0.230 -0.1667 -0.0317 -0.0940
23729W        W40203  16.823  10.275   2.894  0.0218 -0.2153  0.2667
23730W        W40204   9.940   4.391  15.339 -0.0711  0.0259  0.1522
23731W        W40205  11.151   3.827  10.946 -0.1400 -0.1684 -0.1231
23732W        W40206  11.440  14.872   4.380  0.0757  0.0388 -0.1731
23733W        W40207   6.944  14.574  10.882 -0.1210  0.2050  0.2470
23734W        W40208  14.564   2.010   0.424 -0.2911 -0.0907 -0.0225
23735W        W40209   4.905   4.737  14.366 -0.1178  0.0564 -0.1560
23736W        W40210  15.460  11.580  11.624  0.4128  0.1076  0.0245
23737W        W40211  13.495   4.247   0.145  0.2972  0.3790  0.0290
23738W        W40212  13.831  13.981  12.471  0.2358 -0.2289 -0.1067
23739W        W40213  11.366   4.513   3.003  0.2601  0.2336 -0.0062
23740W        W40214  16.074   9.283   1.981  0.1640  0.0200 -0.2587
23741W        W40215  16.405  16.874  15.535 -0.0195  0.2286  0.3020
23742W        W40216  10.917  14.940  15.026  0.0643  0.2725 -0.2533
23743W        W40217  12.610  17.642  14.360  0.0064 -0.2046  0.1408
23744W        W40218  18.341   1.934  12.264 -0.0680 -0.3172  0.0662
23745W        W40219   0.407   5.570  15.000  0.2452 -0.0125 -0.1360
23746W        W40220   7.311   2.668  11.105  0.1081 -0.3669 -0.0265
23747W        W40221  16.292   8.893   0.012 -0.1155 -0.2976 -0.0780
23748W        W40222  13.533  11.772   1.173  0.3101  0.4900  0.0354
23749W        W40223   6.817   5.205  13.795  0.0797  0.1747  0.2862
23750W        W40224   6.276   2.548   4.701  0.1253 -0.1122  0.2824
23751W        W40225  10.052  10.212   5.059  0.2206  0.3041  0.1677
23752W        W40226  11.481   5.919  13.903 -0.0222  0.0493  0.0209
23753W        W40227   4.454  16.037  11.231  0.0906  0.4228  0.1578
23754W        W40228   1.722  16.998   3.350  0.1198  0.0486 -0.0972
23755W        W40229   8.631   3.484  14.763  0.0863 -0.0322  0.0280
23756W        W40230   1.922  16.967  15.921 -0.0084  0.1249  0.1563
23757W        W40231   2.479   3.689   2.117  0.2743  0.1759  0.0197
23758W        W40232   2.772   5.980  10.886 -0.0408  0.0377 -0.4936
23759W        W40233   7.344  11.875   2.483 -0.4010 -0.1602  0.0378
23760W        W40234   9.557   9.981  15.236 -0.1129  0.2340  0.1953
23761W        W40235  16.301  14.389  14.115  0.0206  0.0246  0.3469
23762W        W40236   5.194  10.986   3.600  0.1564  0.1266 -0.4248
23763W        W40237   3.706  17.785  14.055 -0.0161 -0.4307 -0.3460
23764W        W40238  15.549  15.509  14.688  0.0156 -0.0624  0.0681
23765W        W40239   8.765   5.310   3.133 -0.0093  0.2837  0.3614
23766W        W40240  12.066  12.266  10.548 -0.0932 -0.0399  0.0373
23767W        W40241  10.771  11.249   4.292 -0.1479  0.0701  0.1452
23768W        W40242  15.341   1.557  14.170  0.1534  0.1555  0.3775
23769W        W40243  11.762   9.393   0.538  0.2905  0.1127  0.0756
23770W        W40244   3.632   1.099   3.895 -0.1911  0.0209 -0.1547
23771W        W40245  16.773   3.439   3.379 -0.1518 -0.2165  0.0818
23772W        W40246  16.986   6.572   4.848 -0.0792 -0.1351  0.1710
23773W        W40247  14.662  15.178  13.720 -0.0645  0.0484  0.0018
23774W        W40248  17.131   9.606   5.381  0.0603  0.0009  0.1291
23775W        W40249  18.240  11.027  12.144  0.2717 -0.0967  0.1159
23776W        W40250  12.837   8.752  15.322 -0.0454 -0.1863 -0.2176
23777W        W40251   4.239   6.818   4.751  0.0895 -0.0972  0.2955
23778W        W40252   9.312  18.217   4.997  0.2167  0.1611  0.1512
23779W        W40253  13.265  13.269  12.730 -0.1860 -0.2249  0.0110
23780W        W40254  17.831   9.258  14.057 -0.2255  0.0622 -0.3315
23781W        W40255  11.743   5.459  13.200  0.1571  0.1654 -0.0829
23782W        W40256  13.510  11.248  14.476 -0.0624 -0.0682  0.4387
23783W        W40257  16.855  13.396   2.717  0.2793  0.5561  0.0322
23784W        W40258  12.853  14.192   1.054 -0.0449 -0.1670 -0.1569
23785W        W40259  17.239   3.892   4.676 -0.0413 -0.0391  0.2216
23786W        W40260   2.635   5.815   2.276 -0.0907 -0.2880  0.0349
23787W        W40261   6.551   5.969   9.971  0.0122  0.1611  0.0323
23788W        W40262  13.281  16.101   4.959  0.1204 -0.1092 -0.1507
23789W        W40263   6.026  16.634  13.224 -0.1885  0.2813  0.0060
23790W        W40264   6.947  18.330  11.756 -0.0425  0.0716  0.2623
23791W        W40265   4.451  12.086  12.828  0.1368  0.0883 -0.2673
23792W        W40266  16.977  12.109  12.026  0.0669  0.3657  0.2456
23793W        W40267   0.245  16.477  10.800  0.1994 -0.2575 -0.2490
23794W        W40268   3.852  10.191   1.696  0.0723  0.1197 -0.0283
23795W        W40269  11.234   6.890  12.162  0.1852  0.2353 -0.1181
23796W        W40270  16.203  12.869   3.311  0.1929 -0.1684 -0.0138
23797W        W40271   2.254   1.452   3.044 -0.2373  0.0224 -0.0562
23798W        W40272   8.407  17.782   3.708  0.0632  0.0901 -0.1006
23799W        W40273   0.935   3.149   2.327  0.1081  0.3731 -0.0042
23800W        W40274   6.416  12.520  14.432  0.1412  0.0477  0.0364
23801W        W40275  13.811   8.599   1.452 -0.1310  0.0215 -0.1373
23802W        W40276  10.983   7.568  10.729 -0.1762  0.1307 -0.0781
23803W        W40277  13.855   0.012   5.098 -0.2427  0.1340 -0.1590
23804W        W40278   0.699  16.602   1.078 -0.1371 -0.1179 -0.0252
23805W        W40279  13.619   0.352   4.247 -0.0320  0.0187  0.0735
23806W        W40280  10.008   5.023   4.305 -0.0378 -0.0097  0.1292
23807W        W40281   9.904  15.839   2.915 -0.0649 -0.1481 -0.1280
23808W        W40282  16.439   9.586  12.080 -0.0685 -0.0175  0.3990
23809W        W40283  10.460   6.377  15.141 -0.1148 -0.0502  0.1622
23810W        W40284  10.695   1.615  13.313  0.1187  0.2718 -0.0110
23811W        W40285  18.120   6.382   2.646 -0.2877 -0.4355  0.1239
23812W        W40286  12.188  14.962   1.938  0.2917 -0.3764  0.0574
23813W        W40287   2.212   6.733  13.184  0.1108 -0.0775 -0.1055
23814W        W40288   1.726  15.969  14.925 -0.1485  0.0380 -0.1166
23815W        W40289   3.757   6.261  15.582 -0.2387  0.0922  0.1722
23816W        W40290   4.590  15.112   0.430 -0.4140 -0.0878  0.0211
23817W        W40291  13.800   6.490  10.453  0.0273  0.2009 -0.0378
23818W        W40292   6.775   7.911   1.150 -0.1609  0.1947 -0.1229
23819W        W40293   4.157   1.550  15.402 -0.1588 -0.0958 -0.0555
23820W        W40294  10.766   7.886   2.658  0.1169 -0.1875  0.3849
23821W        W40295  12.210  11.699  13.302 -0.1233 -0.1544  0.1389
23822W        W40296  17.207   3.404  14.943  0.2067  0.0519  0.1381
23823W        W40297   0.540   5.695   5.077  0.2844  0.1475  0.2826
23824W        W40298  10.652  14.838   3.921  0.3596 -0.1173 -0.2074
23825W        W40299   0.237   6.381   0.953 -0.0643  0.1039  0.0012
23826W        W40300   0.090   8.011   1.306 -0.0994 -0.0604  0.0271
23827W        W40301  12.167   4.142   1.744 -0.0093 -0.3148  0.0573
23828W        W40302   0.863   4.468   4.553  0.0824  0.0780  0.0099
23829W        W40303   9.718  16.997  13.482  0.1719  0.3693  0.0612
23830W        W40304  16.797   1.059   1.459  0.2186 -0.0916 -0.0640
23831W        W40305   9.019  14.690   3.844 -0.0196 -0.0848  0.0660
23832W        W40306   1.747   2.750   3.260  0.0949 -0.0189 -0.0296
23833W        W40307   0.353  13.484  15.160 -0.0387  0.1107  0.1710
23834W        W40308   3.264  17.816  14.858  0.0357 -0.1850 -0.0014
23835W        W40309  11.015   7.166  14.139 -0.1492 -0.1316  0.2796
23836W        W40310  10.123  15.384   1.726  0.1648  0.0600 -0.1485
23837W        W40311  10.505  12.165   0.143  0.0225  0.3216 -0.0507
23838W        W40312  12.174   2.824  14.300 -0.0325 -0.0736 -0.3750
23839W        W40313   8.414   2.830  12.229 -0.2194  0.0200 -0.0076
23840W        W40314   3.787  11.583  12.233  0.0275  0.0990  0.1053
23841W        W40315  13.685  16.593   1.742  0.1804  0.1225  0.2599
23842W        W40316   5.526   9.255  11.722 -0.2494  0.0663  0.0601
23843W        W40317  18.154  11.201   0.146 -0.1466 -0.1136 -0.0298
23844W        W40318   5.158  13.531  12.061  0.1466 -0.0409  0.2818
23845W        W40319   7.441  11.698  11.662  0.0216 -0.2668 -0.0977
23846W        W40320  17.118  10.949  15.926 -0.2375  0.1211 -0.0716
23847W        W40321   7.711  15.657   4.287  0.0399 -0.1386 -0.1001
23848W        W40322  13.744  15.907   2.521  0.4036  0.2206 -0.0642
23849W        W40323   1.879   2.487  11.802  0.1028  0.0542  0.3639
23850W        W40324  10.000  11.530  14.728  0.0443  0.0430  0.4385
23851W        W40325  12.200   3.853   4.854  0.0184  0.2901  0.0946
23852W        W40326   4.489   7.742  12.783 -0.2486 -0.0028 -0.0640
23853W        W40327   5.485  12.426   3.825  0.2477  0.0716 -0.1333
23854W        W40328  12.473  12.354  15.882 -0.1869 -0.1578  0.2341
23855W        W40329  12.687   3.417   3.336  0.3115  0.1041  0.1963
23856W        W40330  15.989  17.545  12.507  0.1164  0.1323  0.1018
23857W        W40331  18.205   7.536   0.238 -0.2990 -0.1128  0.0155
23858W        W40332  10.433   1.600   4.198 -0.0042 -0.0899  0.1362
23859W        W40333  16.868  17.306  13.573  0.1462  0.0451 -0.2189
23860W        W40334  11.474  15.611  12.551 -0.0271  0.1105 -0.0428
23861W        W40335   8.127  17.055   5.362 -0.0394 -0.0750 -0.1422
23862W        W40336  16.588  15.627  12.681 -0.0737 -0.2503  0.2566
23863W        W40337  16.355   5.819   5.041  0.1477 -0.1202 -0.1587
23864W        W40338   1.789   4.299   0.615 -0.1390  0.4579  0.2496
23865W        W40339   1.116  16.893   1.322 -0.0193 -0.0985 -0.0882
23866W        W40340  17.106  12.453   4.022 -0.2644 -0.0441 -0.1615
23867W        W40341   8.937  10.539  15.702  0.1723 -0.1005  0.2383
23868W        W40342   8.626  14.678   4.205  0.0464 -0.3770  0.1239
23869W        W40343  17.372   9.891  12.902  0.2147  0.1376 -0.1401
23870W        W40344  13.684   3.135  14.878  0.0222 -0.4988  0.2003
23871W        W40345   7.339   0.694  10.794  0.2454 -0.1192 -0.2302
23872W        W40346   2.984  15.753  14.161  0.0243 -0.1297 -0.0198
23873W        W40347   0.139   0.635  15.914  0.4391  0.0555 -0.1174
23874W        W40348   4.917  11.618   4.557  0.0950 -0.0417  0.2322
23875W        W40349   1.232  13.101  13.364  0.1178  0.0226 -0.1827
23876W        W40350  10.837  14.055   5.645 -0.0219 -0.0092 -0.0653
23877W        W40351   5.732   0.629   0.349  0.1711 -0.2793 -0.0604
23878W        W40352  17.575   9.157  10.881  0.2280 -0.0916 -0.0958
23879W        W40353  17.452   8.868   1.793  0.2173 -0.0016  0.1522
23880W        W40354  12.518  11.697  15.267 -0.0608 -0.0968  0.0053
23881W        W40355   7.217   2.174   3.454 -0.0049  0.0679  0.1774
23882W        W40356  15.613   7.433   2.654  0.0779 -0.1907  0.2220
23883W        W40357  16.179   2.474   3.448 -0.1382 -0.1377 -0.1600
23884W        W40358   5.280   9.528   1.394  0.2159  0.1707 -0.2208
23885W        W40359   5.056  11.875  13.706 -0.1709  0.0577 -0.1428
23886W        W40360  11.791  18.084  13.340 -0.0165 -0.0190 -0.1398
23887W        W40361  10.322  11.331  12.829 -0.2741 -0.3125  0.1658
23888W        W40362  10.878  12.399   4.700  0.0508 -0.0784 -0.0810
23889W        W40363  10.534   3.639  15.499 -0.1376 -0.0371  0.1368
23890W        W40364  10.290  18.243   3.873  0.2568  0.0033  0.0123
23891W        W40365  11.901  16.948  15.670  0.0585 -0.0105 -0.0133
23892W        W40366   6.971   2.541  14.933  0.2903  0.0080 -0.4215
23893W        W40367  10.245  18.077   1.218 -0.1463 -0.0536  0.2392
23894W        W40368  12.002   8.123   1.814 -0.1410  0.1790 -0.1443
23895W        W40369   7.191  17.550   5.401  0.1289  0.0966  0.2760
23896W        W40370  13.574   0.865  10.951 -0.1203  0.4409  0.0025
23897W        W40371   4.122   5.877   5.162 -0.1197  0.0719 -0.3111
23898W        W40372  13.259   0.421  12.307  0.2722  0.2895  0.0847
23899W        W40373   4.002  16.584  14.938  0.1741  0.0903  0.0038
23900W        W40374  18.230   3.207  11.619 -0.1568 -0.1575 -0.1931
23901W        W40375  11.373  11.647   1.208 -0.2918 -0.0951 -0.0344
23902W        W40376  12.921  14.882   2.660  0.2175 -0.3534 -0.0679
23903W        W40377   2.743  17.423  15.722  0.4446 -0.0680 -0.1158
23904W        W40378   8.174   7.425   3.021  0.2430  0.0845 -0.2306
23905W        W40379  10.325  17.305   0.811 -0.1252 -0.2123  0.0905
23906W        W40380   2.834   5.108  14.834 -0.0778 -0.3938  0.3883
23907W        W40381   7.004   5.373  11.449  0.0175  0.0567 -0.2348
23908W        W40382  16.851  12.583  13.398  0.0303 -0.3136  0.0672
23909W        W40383  13.526   1.787   4.646 -0.1035 -0.0530 -0.1217
23910W        W40384  18.025   3.409  14.108 -0.4053  0.0847 -0.0919
23911W        W40385  17.086   2.631   0.519 -0.0729  0.0229  0.0128
23912W        W40386   4.435   9.419   4.296 -0.0870 -0.1137  0.0315
23913W        W40387   4.008   5.168   2.824  0.0669  0.2162 -0.0912
23914W        W40388  17.612  18.137   0.262  0.2154 -0.0313 -0.2119
23915W        W40389   1.734  15.035   2.440  0.0633  0.0942 -0.3367
23916W        W40390  13.450  14.683   2.044  0.1498  0.0269 -0.0751
23917W        W40391   0.394  15.542  10.862  0.1996 -0.3894 -0.1229
23918W        W40392   3.045   8.032   4.070  0.2905 -0.3207 -0.0885
23919W        W40393   2.654   3.681   1.606 -0.1215  0.0377 -0.1104
23920W        W40394  18.142  14.775   6.091  0.0807 -0.0503  0.1046
23921W        W40395   5.427   4.526  14.254  0.3037  0.0710 -0.0454
23922W        W40396   2.634   5.477  14.548 -0.0039 -0.1388 -0.1988
23923W        W40397   9.260  11.966  13.912 -0.0300  0.3977 -0.0589
23924W        W40398   7.318  13.102  14.403  0.3539 -0.1330  0.1079
23925W        W40399   5.822  13.378   2.836  0.0307 -0.1041 -0.3318
23926W        W40400   9.533  14.901   3.024  0.4234 -0.0380  0.1466
23927W        W40401   5.764   6.985   1.200  0.5138 -0.1559 -0.2221
23928W        W40402   8.581   4.757   0.370 -0.0641 -0.2613  0.0839
23929W        W40403   0.262  13.499  12.428 -0.1711 -0.0360 -0.1051
23930W        W40404   4.535   7.815   0.432 -0.0471  0.0954 -0.3286
23931W        W40405  10.345  11.481   3.289 -0.0534  0.1707 -0.2030
23932W        W40406   1.198   4.228  13.186  0.1646 -0.1681  0.0484
23933W        W40407  16.341   9.248  13.216  0.0158  0.0672 -0.2665
23934W        W40408  10.536  17.120   2.682  0.1455 -0.3378  0.2821
23935W        W40409  13.882  13.179   0.799 -0.0643 -0.0821  0.2463
23936W        W40410   5.742  15.731  12.830 -0.3077  0.2298  0.0555
23937W        W40411  16.278  18.325  10.793 -0.1437  0.1086 -0.0507
23938W        W40412  16.358   2.075   3.803 -0.3349 -0.2535  0.1035
23939W        W40413  18.117   2.711   4.462  0.1814 -0.1997  0.2537
23940W        W40414   8.698  18.360  11.719  0.1839 -0.2485  0.0016
23941W        W40415  18.470  16.950   0.150 -0.2086  0.0547 -0.4028
23942W        W40416   3.908  18.141  15.661  0.0408 -0.3499 -0.3044
23943W        W40417   2.412  13.626   3.098 -0.2206  0.2396 -0.2058
23944W        W40418  10.890   6.131  14.714  0.1660  0.1947  0.1157
23945W        W40419   5.077   8.634   1.596  0.0642 -0.0283 -0.4660
23946W        W40420  18.139  13.969  13.848  0.2777 -0.1688  0.1153
23947W        W40421   2.692   3.901   0.919 -0.1653 -0.1953 -0.4072
23948W        W40422  14.363   6.340  15.306 -0.0735 -0.0088 -0.1456
23949W        W40423  13.616  15.811   5.426  0.0257 -0.1405  0.1565
23950W        W40424   9.367   4.052   2.356  0.2204 -0.1147 -0.0141
23951W        W40425   8.586  11.521   0.032 -0.3807 -0.0591  0.5169
23952W        W40426   0.441   0.883   0.967 -0.1952 -0.0647  0.1030
23953W        W40427   9.717  11.260  15.564  0.0227 -0.0142 -0.0149
23954W        W40428   2.284  13.650   2.556  0.0702 -0.2499  0.1099
23955W        W40429  12.675  12.341   3.716 -0.0648  0.3252 -0.3153
23956W        W40430  17.986   6.637  13.265  0.1901 -0.0999 -0.0151
23957W        W40431  11.071  18.455   1.128  0.1881 -0.2535 -0.1074
23958W        W40432  13.952   2.009  15.434  0.0609  0.0373 -0.0737
23959W        W40433  13.761  17.501  11.659 -0.0668  0.0080  0.1666
23960W        W40434   6.302  11.946   4.949  0.0324  0.1107  0.1658
23961W        W40435   0.872  17.019   5.335 -0.2405 -0.0685  0.1050
23962W        W40436   6.836   9.284   1.296 -0.0646  0.0445 -0.1621
23963W        W40437   5.542   3.271   2.414 -0.3208 -0.3470 -0.3125
23964W        W40438  17.299   8.541  13.988  0.2037 -0.0501 -0.0711
23965W        W40439  13.945  17.184   3.423  0.1255  0.0110  0.3395
23966W        W40440  15.272   2.936  11.471  0.0276 -0.0481 -0.1119
23967W        W40441  14.418  16.244   5.538  0.2911 -0.1073 -0.0171
23968W        W40442   1.295  17.064  11.729  0.2126 -0.1196  0.1611
23969W        W40443   3.423  13.661  13.479 -0.0157 -0.1035 -0.1264
23970W        W40444   7.533  16.355  10.870 -0.2021 -0.1686  0.1152
23971W        W40445  16.601  14.015   4.851 -0.1621  0.0805  0.0996
23972W        W40446   1.709   5.079  15.585 -0.0445  0.0869 -0.1652
23973W        W40447  15.035   8.664   1.078  0.0733  0.0968 -0.4967
23974W        W40448   8.856   1.133  13.284 -0.3188 -0.0293 -0.1095
23975W        W40449  15.149   7.335  10.722  0.3061  0.0127 -0.1032
23976W        W40450   2.370   4.316  10.641  0.2733  0.1083  0.0014
23977W        W40451  18.152   9.422  15.516  0.0306 -0.0881  0.0773
23978W        W40452   9.176   8.493   1.133 -0.4182  0.0533 -0.0912
23979W        W40453   7.551  15.764   1.358 -0.0920  0.2963  0.1774
23980W        W40454   8.541   5.185   0.158 -0.1491 -0.1041  0.1232
23981W        W40455   2.072  11.829   3.421  0.0279  0.1484  0.2066
23982W        W40456  15.003   1.971   0.272  0.2554 -0.0245  0.1779
23983W        W40457   4.481  10.137   5.023 -0.0874 -0.1949  0.1254
23984W        W40458   5.030  13.898   0.137 -0.0779  0.1327  0.3433
23985W        W40459  13.842  15.286  15.803  0.1902  0.1998 -0.2707
23986W        W40460  14.521  12.322  15.313 -0.0674  0.4178  0.1207
23987W        W40461  14.128  14.176  14.628 -0.0264  0.0585  0.1563
23988W        W40462   2.331   1.520   4.002 -0.3322  0.1198  0.2289
23989W        W40463   8.601  14.753   1.144 -0.0889  0.3215  0.0021
23990W        W40464   4.819   2.260   4.423  0.3645  0.0941  0.2430
23991W        W40465   2.187  12.264   3.101 -0.1750  0.0704  0.1058
23992W        W40466   9.621   7.948  13.623 -0.2197 -0.0192 -0.0548
23993W        W40467   0.789  18.336  15.125 -0.3142  0.1340  0.2691
23994W        W40468   6.402   8.977   3.053 -0.2122  0.1580  0.4112
23995W        W40469   2.464   0.712   0.158  0.1422 -0.1780  0.0573
23996W        W40470  16.695   9.531  13.443 -0.0823 -0.1509 -0.0782
23997W        W40471  16.205  11.202   3.986  0.2334 -0.1658 -0.1477
23998W        W40472   1.966  10.932   4.607  0.2747 -0.1498 -0.0208
23999W        W40473  16.752   5.995  14.646 -0.0872 -0.2274 -0.1332
24000W        W40474  17.085  12.213  15.724  0.3436 -0.0726  0.0540
24001W        W40475   6.323   1.034  12.806  0.2908 -0.0063  0.1969
24002W        W40476   6.786   5.927  12.342  0.4068  0.1131 -0.1735
24003W        W40477   9.553  15.849   4.692  0.0236  0.2941  0.0067
24004W        W40478  18.356   8.647  15.582  0.1788  0.2703 -0.1037
24005W        W40479   1.005  12.801   4.689 -0.0043  0.2568 -0.0688
24006W        W40480  10.526   0.659  10.795 -0.3130  0.1238 -0.0663
24007W        W40481   2.396  12.721   4.820 -0.4102 -0.2499 -0.0223
24008W        W40482  12.258   1.637  15.834  0.0485 -0.0850  0.0364
24009W        W40483   1.949   4.584   2.507 -0.0371  0.1551  0.3105
24010W        W40484   7.782   4.107  11.399  0.1858  0.0338 -0.0716
24011W        W40485   6.491  10.780  15.206  0.1997  0.1102  0.0380
24012W        W40486   4.255   1.960  13.733 -0.2441 -0.0419  0.1622
24013W        W40487  17.222  11.335  13.784 -0.0946  0.0962  0.2658
24014W        W40488   9.599  10.666   5.448 -0.1043 -0.4024  0.0710
24015W        W40489  16.774  17.815  12.238 -0.0476  0.2246  0.0300
24016W        W40490   8.086   4.830  13.108 -0.0747 -0.1820  0.0065
24017W        W40491  13.701   9.122  10.670  0.0033 -0.0909  0.3182
24018W        W40492   1.507   1.674  14.764  0.0488 -0.0672 -0.1235
24019W        W40493  11.655   4.068   4.535  0.1970  0.1080  0.2387
24020W        W40494  18.392  14.476  14.532  0.0534  0.1298 -0.1978
24021W        W40495   6.918   0.804  13.537  0.0210  0.2853  0.0927
24022W        W40496   8.015   2.756   4.199 -0.1075 -0.1419  0.2717
24023W        W40497   6.461  14.367  12.120  0.0203  0.0131 -0.0581
24024W        W40498  11.545   4.050  11.121 -0.1739 -0.1338  0.0761
24025W        W40499  16.888  12.774  12.002  0.1029 -0.1325  0.1252
24026W        W40500   8.042  11.403   4.742 -0.0723 -0.3491  0.3506
24027W        W40501  12.240   2.916   4.586 -0.1830  0.1145 -0.1806
24028W        W40502  16.952  15.644  15.762 -0.1399  0.2019 -0.0631
24029W        W40503   7.789  14.540   0.445  0.0863  0.1379 -0.0359
24030W        W40504  11.820   5.747  15.730  0.0214  0.2153  0.0404
24031W        W40505   6.846   7.153   4.882 -0.0986  0.0829  0.2540
24032W        W40506   1.581   1.743   1.466  0.0930 -0.3753  0.3101
24033W        W40507  14.437   2.682  11.653 -0.1817  0.0475  0.0471
24034W        W40508  12.571   3.803   4.120  0.3153  0.0308  0.0667
24035W        W40509   0.811   5.682  10.136 -0.1300  0.0641 -0.1340
24036W        W40510   5.077  17.568  15.638 -0.1898 -0.1197 -0.1795
24037W        W40511  12.746   7.707   1.878 -0.0115  0.3993 -0.2085
24038W        W40512   6.400   3.981   4.620  0.1208  0.2284 -0.1209
24039W        W40513  11.821  13.965   1.196 -0.0612  0.1427 -0.1737
24040W        W40514   9.075   1.010  13.742  0.0660  0.1957  0.1113
24041W        W40515   3.231   0.022  13.255  0.0972 -0.2175 -0.3085
24042W        W40516  15.995  17.370   1.973  0.2014 -0.0336 -0.0488
24043W        W40517   2.543   1.987   1.127  0.2376  0.2655 -0.1851
24044W        W40518  12.063  15.197  13.787 -0.0215 -0.2147 -0.2054
24045W        W40519  10.985  17.283   5.409  0.1081  0.0945 -0.3436
24046W        W40520  14.701  13.090   0.464 -0.1944  0.0288 -0.0239
24047W        W40521   3.362   9.125  14.515  0.2927  0.1482 -0.1882
24048W        W40522  16.474   8.730  11.799 -0.0418  0.2760  0.3711
24049W        W40523   7.314  17.955   1.226 -0.0738  0.4885 -0.1033
24050W        W40524   1.922  17.960  14.345  0.2500  0.3154 -0.2606
24051W        W40525   0.977   5.083   3.911  0.2335  0.1357  0.0981
24052W        W40526  15.472  11.553   1.841 -0.3187  0.1236  0.1366
24053W        W40527  16.649   2.836   1.676 -0.0137 -0.0956  0.0343
24054W        W40528   2.023  10.732   5.629  0.1799  0.0281 -0.0181
24055W        W40529   6.297   5.987  14.031 -0.0008 -0.0388  0.0673
24056W        W40530  14.582   6.514   4.026 -0.0225  0.3231  0.0692
24057W        W40531   3.018  15.061   3.126 -0.0870 -0.2495 -0.2447
24058W        W40532  12.441  13.451  12.251  0.2058 -0.0189  0.0929
24059W        W40533   6.110  11.426   2.804  0.1971  0.0708  0.0172
24060W        W40534  14.044   4.153   0.152  0.1060  0.2462 -0.1291
24061W        W40535   0.909  12.266  12.388 -0.1975  0.3740  0.1227
24062W        W40536  14.362   5.596   0.228 -0.2690 -0.0113  0.1339
24063W        W40537  11.167   0.753  14.932  0.0321 -0.1730 -0.1983
24064W        W40538   6.340  10.105   5.185  0.0029 -0.1198  0.1725
24065W        W40539   0.834   0.265   4.353  0.0076  0.0466 -0.0645
24066W        W40540   4.785  15.248  11.380  0.2059  0.1658  0.0642
24067W        W40541   0.432  12.023  14.221  0.0608 -0.1954 -0.0414
24068W        W40542  11.461  10.314   5.457 -0.1733 -0.2307  0.0649
24069W        W40543  11.167   1.972   0.974 -0.0241  0.0979 -0.0225
24070W        W40544   5.091  16.127   3.148 -0.2612 -0.1943  0.0443
24071W        W40545  18.280  16.599   4.876  0.0733 -0.1419  0.1072
24072W        W40546   7.482  11.278  15.712 -0.0600  0.0445  0.3419
24073W        W40547   4.950  11.129   1.655 -0.0761 -0.1751 -0.3935
24074W        W40548  16.186   6.127   1.797  0.0318 -0.2145 -0.2018
24075W        W40549   2.475  10.347  10.953 -0.0621 -0.0880 -0.0775
24076W        W40550  11.741  11.456  12.663 -0.0044  0.0934  0.0250
24077W        W40551  11.654   2.269  14.981  0.1328  0.3027  0.0496
24078W        W40552  13.024  15.168  13.986  0.1441 -0.1972 -0.0367
24079W        W40553   7.636  10.470  15.536 -0.2127  0.1208  0.2183
24080W        W40554  17.344   1.794  12.590 -0.0838  0.1154  0.1260
24081W        W40555  17.056   6.886  11.125  0.1370  0.4397  0.0072
24082W        W40556   3.869  17.012   0.291  0.0137  0.0089  0.2669
24083W        W40557   0.283   6.184   4.339 -0.1571  0.2019  0.1862
24084W        W40558   1.457  11.769   2.088  0.0444  0.1702 -0.2967
24085W        W40559   7.916   2.502   4.642  0.0359  0.1383  0.0638
24086W        W40560   7.335  13.661   2.758  0.0941 -0.3038  0.1617
24087W        W40561  18.398   6.202  13.161 -0.1035 -0.0110  0.0514
24088W        W40562  16.062   9.963   1.345  0.2307 -0.0815  0.2344
24089W        W40563   4.996  17.444   1.155  0.0611 -0.1922 -0.0949
24090W        W40564  10.219   1.022  12.115 -0.0063 -0.0330  0.1534
24091W        W40565   1.002   2.660   0.117  0.2239  0.2639 -0.1266
24092W        W40566  17.983   3.027   4.823 -0.1303 -0.0334 -0.2733
24093W        W40567   0.509  16.955  15.497 -0.0664  0.2272 -0.0074
24094W        W40568  10.556   0.055  11.893  0.2042 -0.0312 -0.0923
24095W        W40569   0.823   4.157  14.951 -0.1138 -0.3390 -0.0591
24096W        W40570  16.269  17.800  10.872  0.1235 -0.3586  0.0694
24097W        W40571   1.268   6.752   1.975  0.3499  0.2926  0.0897
24098W        W40572  12.920  17.842  15.785 -0.0310 -0.0302  0.1363
24099W        W40573  10.349   5.929   4.200 -0.1779 -0.1286  0.2041
24100W        W40574  12.439  14.937   0.578  0.0598 -0.2390  0.0369
24101W        W40575   7.395   8.569  12.766 -0.0389  0.1159 -0.1013
24102W        W40576  10.633  13.127  14.046 -0.1809 -0.5363 -0.2201
24103W        W40577   5.098  13.818  13.289  0.1576 -0.0750 -0.2131
24104W        W40578  14.984  17.865  15.645 -0.0557  0.0974 -0.1469
24105W        W40579   5.952  15.103   0.807 -0.2842 -0.0162  0.1819
24106W        W40580  12.580  12.086  13.213 -0.0004  0.5254 -0.2259
24107W        W40581  11.995  16.183   3.488  0.1561  0.1775 -0.2206
24108W        W40582   4.594   5.522  14.700 -0.1051  0.3547  0.2361
24109W        W40583  18.251  12.764  12.099  0.2868 -0.1168 -0.0344
24110W        W40584   8.616   3.667  11.355  0.0878  0.0075  0.0036
24111W        W40585   9.272  13.512  13.881  0.0758 -0.2446 -0.0855
24112W        W40586  11.429  17.592  10.142  0.4230  0.1909  0.2090
24113W        W40587  17.995   7.312   3.638 -0.0767  0.0297  0.2470
24114W        W40588   2.690  16.662   4.878 -0.0450  0.0857 -0.4622
24115W        W40589  18.206  17.412  11.247 -0.0194  0.0378 -0.1484
24116W        W40590   3.019   0.902  13.476 -0.1644  0.1755 -0.1635
24117W        W40591   7.103  14.107  11.811  0.1255 -0.0163 -0.1073
24118W        W40592  14.236  14.491   1.538  0.2861 -0.0697  0.0273
24119W        W40593   7.357  17.890   3.518 -0.0515 -0.1568 -0.1387
24120W        W40594  11.084   8.149  14.275 -0.0127 -0.2930 -0.1163
24121W        W40595   3.297  16.795  12.744  0.2762  0.0370 -0.1046
24122W        W40596  14.680   4.363  14.457  0.0252 -0.1755  0.0413
24123W        W40597  15.194   5.416  12.700  0.2262 -0.2170  0.0653
24124W        W40598   7.302  12.059   4.700  0.3737 -0.1814 -0.1505
24125W        W40599  18.324   6.938  10.868 -0.1396 -0.0149 -0.0059
24126W        W40600  14.166   1.294  14.945  0.3013 -0.2564  0.1166
24127W        W40601  12.761   9.653   3.817 -0.0590 -0.1241  0.0624
24128W        W40602   1.729   6.426  12.343  0.3471 -0.1969 -0.0308
24129W        W40603  16.449  16.748  13.048 -0.2753 -0.0119  0.0686
24130W        W40604   1.303  16.332   3.868 -0.4012  0.1625  0.0243
24131W        W40605  10.276  18.187   2.814 -0.2195 -0.0727  0.2133
24132W        W40606  18.318  11.448   4.856  0.0838 -0.0486 -0.1037
24133W        W40607   8.297  10.616   1.227 -0.0585 -0.1389 -0.1481
24134W        W40608  12.442   0.449  15.292 -0.0343 -0.1991  0.3714
24135W        W40609   6.617   4.216  15.297  0.0482 -0.1718  0.3162
24136W        W40610  10.410  16.618  11.255 -0.1821  0.0661 -0.1668
24137W        W40611  16.593  14.907   0.920  0.3387  0.0576 -0.0778
24138W        W40612   6.651   4.591   3.369  0.1043 -0.0945 -0.1249
24139W        W40613  13.743  16.028  13.431  0.0982  0.2523 -0.2944
24140W        W40614   7.299   7.404  13.491  0.2869 -0.2335  0.3018
24141W        W40615   4.439  16.809  15.495  0.3467  0.0963  0.0892
24142W        W40616  12.323  17.736  12.145  0.0561 -0.0489 -0.3507
24143W        W40617   5.846   2.786   4.548  0.1134  0.2052  0.1808
24144W        W40618   9.967  13.374  12.862  0.0258 -0.3017  0.0268
24145W        W40619  15.900   4.518   3.236 -0.0879 -0.1262 -0.1049
24146W        W40620   4.902  10.062  14.829 -0.1608 -0.0823  0.2104
24147W        W40621   8.774  15.831  11.067  0.0369  0.0142  0.0831
24148W        W40622  16.123   4.412  14.780  0.0412  0.0266 -0.1150
24149W        W40623  17.686   7.720   2.356 -0.2225 -0.1481  0.1795
24150W        W40624  12.598  17.719   1.510  0.0154 -0.0900  0.0648
24151W        W40625  16.365   3.704  12.019 -0.3629  0.0558  0.1438
24152W        W40626  17.071  10.733   3.133 -0.3012  0.2321 -0.0103
24153W        W40627   8.014  17.816   2.755  0.0006 -0.1863 -0.2912
24154W        W40628  10.651  11.742   2.988 -0.4584  0.0480 -0.4109
24155W        W40629  15.139   0.887  11.776  0.4227 -0.1163 -0.1896
24156W        W40630   7.577  17.134   0.012 -0.0780 -0.0362 -0.1442
24157W        W40631  16.233  14.036  15.012  0.2098  0.1357  0.2156
24158W        W40632  17.778  12.652   3.347 -0.3253  0.1993  0.1176
24159W        W40633   7.434   7.289   4.550 -0.1553 -0.0233 -0.0008
24160W        W40634   5.347   7.291   2.184  0.0780 -0.0788  0.3261
24161W        W40635   7.622  10.170   1.913  0.2157 -0.2143 -0.1121
24162W        W40636   4.256  11.435  11.120  0.0343  0.1416  0.4355
24163W        W40637  16.881   3.973  14.406 -0.1983 -0.0218  0.0728
24164W        W40638   7.183   8.781   3.451  0.0870  0.1036 -0.0641
24165W        W40639   4.454   7.218   4.573  0.1216  0.0378  0.2159
24166W        W40640   1.764   4.647   3.527  0.1203  0.0538 -0.2603
24167W        W40641   4.857  14.064  14.879 -0.0340 -0.0623 -0.0286
24168W        W40642   3.171   5.412   5.387  0.2196 -0.0388  0.1719
24169W        W40643   3.901  14.789  11.063  0.1837 -0.1082 -0.1272
24170W        W40644   5.861  14.602  14.719  0.1346  0.2927 -0.1185
24171W        W40645  11.973  11.487   4.767  0.1859 -0.0573 -0.2426
24172W        W40646  15.704   4.008   2.991 -0.1047 -0.1340  0.3077
24173W        W40647   3.181   3.130  11.893 -0.0158 -0.1073  0.0242
24174W        W40648   7.393  14.871   0.397 -0.1437 -0.1380  0.3373
24175W        W40649  16.734   4.030  11.881 -0.0351 -0.2767 -0.0324
24176W        W40650   3.904  11.864   3.718  0.0539  0.1289 -0.1393
24177W        W40651   0.600  15.521  12.099  0.2357 -0.1764 -0.1644
24178W        W40652   5.391   0.669  12.511  0.0227 -0.1355 -0.2980
24179W        W40653  11.175  11.125   4.737 -0.0747 -0.1064  0.0569
24180W        W40654  11.935  10.409   1.816 -0.0380 -0.0018  0.1265
24181W        W40655  10.889  11.638  12.383  0.2748  0.0165  0.5534
24182W        W40656   6.221   2.359  12.093 -0.0899  0.0985 -0.0025
24183W        W40657  15.183   9.315  13.484  0.1092 -0.0142 -0.0037
24184W        W40658  17.078  16.133   5.347 -0.2035  0.0085 -0.1488
24185W        W40659  10.274   6.172  13.840 -0.0379 -0.1171  0.1280
24186W        W40660  10.811  11.818   1.295  0.1595 -0.4106 -0.0312
24187W        W40661  14.784  14.830  15.424 -0.0308  0.1605  0.2057
24188W        W40662  18.266  17.702   2.832 -0.2059  0.0304 -0.1793
24189W        W40663  15.070  18.335   0.562  0.0341 -0.1603  0.1385
24190W        W40664  13.939   3.901   1.851 -0.0299  0.0961 -0.1127
24191W        W40665   8.987  13.543  13.377 -0.2746 -0.1266 -0.1829
24192W        W40666   7.056  10.635   0.353 -0.1265 -0.0316 -0.3066
24193W        W40667  11.779   6.107   3.941 -0.0333  0.2356 -0.1798
24194W        W40668   9.139  11.395   0.909 -0.0268  0.3082 -0.0086
24195W        W40669  18.113  11.449  12.331 -0.0834 -0.1924  0.4496
24196W        W40670  13.054   2.577  12.628  0.3076 -0.2741 -0.0979
24197W        W40671  13.173  14.459   1.323  0.0877 -0.1514  0.0858
24198W        W40672   6.687   0.269  13.144 -0.1053  0.1376 -0.1897
24199W        W40673   8.426  10.019  15.429 -0.3411 -0.1496 -0.1975
24200W        W40674  12.813  11.291   0.785 -0.0242  0.2631  0.3147
24201W        W40675  16.218   2.827   1.251 -0.0679  0.0740  0.3019
24202W        W40676   0.693   2.010   1.810 -0.0243  0.2686  0.1376
24203W        W40677   0.183   0.850  13.668  0.0580 -0.0241 -0.2637
24204W        W40678   1.569  11.498  13.130 -0.2326 -0.0166  0.0749
24205W        W40679  17.513   3.610   5.453 -0.1603 -0.0705  0.2941
24206W        W40680  16.876  15.369  11.810  0.1472  0.0451 -0.0929
24207W        W40681   5.205  13.468  13.639  0.3500  0.1970 -0.1767
24208W        W40682   5.519   2.238   5.327  0.3453  0.0890  0.0313
24209W        W40683  17.933   6.008  15.599  0.3072 -0.1482  0.1764
24210W        W40684   9.521   7.876  15.854 -0.2431 -0.2315 -0.1040
24211W        W40685   8.414   9.735   4.266  0.0169 -0.2181 -0.0456
24212W        W40686  11.369  17.318  11.872 -0.0591 -0.0991 -0.1761
24213W        W40687   6.556  10.010  12.099  0.0497  0.1604 -0.1201
24214W        W40688  12.117   8.139   2.323  0.3616  0.0985 -0.0322
24215W        W40689  15.926  15.978   4.647 -0.0077 -0.0722  0.0380
24216W        W40690   4.714   9.549  15.036  0.0177 -0.0574  0.0635
24217W        W40691  12.897   7.114  12.976  0.1891 -0.0937 -0.0901
24218W        W40692  15.741   4.600   1.792  0.2720  0.1085 -0.0403
24219W        W40693   1.714  16.012   2.348 -0.0923 -0.0056  0.1015
24220W        W40694   2.281  10.164  13.006  0.0586 -0.1242 -0.0707
24221W        W40695   6.471   4.111  11.730 -0.0674 -0.0194 -0.1019
24222W        W40696  11.585   8.101  11.693 -0.2097 -0.0051 -0.0035
24223W        W40697  15.864  14.386  14.839  0.1264 -0.2657  0.0996
24224W        W40698   6.109   7.515  15.876  0.2731 -0.0281  0.1004
24225W        W40699  10.384  10.755  11.882  0.1318  0.1609 -0.1861
24226W        W40700  10.549   5.484   5.305  0.2586  0.1395 -0.0865
24227W        W40701  12.690   0.765  10.897 -0.3317 -0.1804  0.3361
24228W        W40702  10.170  17.831  12.016 -0.0856  0.1846 -0.0356
24229W        W40703  12.126  15.040  12.709 -0.2124 -0.1621 -0.0420
24230W        W40704  18.409   7.190   5.428  0.1469  0.1391  0.1038
24231W        W40705  15.797  11.488  12.573 -0.1738  0.0190 -0.1120
24232W        W40706   6.213   2.012  12.780 -0.1337  0.0378 -0.0845
24233W        W40707   7.941   5.931  10.432  0.1295 -0.0314 -0.0961
24234W        W40708  13.141   0.736  10.753 -0.3367 -0.0003 -0.0975
24235W        W40709   0.135   8.158   2.428 -0.2101 -0.1464 -0.3600
24236W        W40710  12.620   9.326  11.932 -0.0847 -0.3186 -0.1526
24237W        W40711   0.070  10.278   3.438 -0.0212 -0.0295 -0.0339
24238W        W40712  12.440   5.052  15.848  0.0264  0.0718 -0.1970
24239W        W40713   0.293   2.225  14.496 -0.4354  0.0859 -0.0411
24240W        W40714  16.265  16.972  14.090 -0.1180  0.2225  0.0313
24241W        W40715  13.079   1.400  11.664 -0.3463 -0.0430  0.2816
24242W        W40716   4.441   6.100   3.876 -0.0449  0.2194 -0.3417
24243W        W40717  17.441  17.689  12.629  0.1949 -0.1035  0.2520
24244W        W40718   0.428   7.037   2.231 -0.0285 -0.0419 -0.3211
24245W        W40719  15.355  16.186  13.139  0.0975 -0.3027 -0.0564
24246W        W40720   6.352  17.391  15.051  0.0950  0.1404  0.1152
24247W        W40721  17.294   8.853  11.185  0.0107 -0.0614  0.1769
24248W        W40722  16.255  18.158  11.639  0.3387  0.2344  0.2010
24249W        W40723  14.619   3.906  15.340 -0.0494  0.0424  0.0858
24250W        W40724  10.986   1.977   4.927 -0.0470  0.0750 -0.0252
24251W        W40725  14.141  15.669  11.947  0.1264 -0.2057 -0.1277
24252W        W40726  12.328   5.123  12.139 -0.1143  0.1987 -0.0111
24253W        W40727   6.054  12.159  14.480 -0.2742 -0.2147 -0.0714
24254W        W40728  11.412  10.448  13.097  0.2948 -0.1030 -0.3332
24255W        W40729  13.483  17.893   3.548  0.2487  0.2905  0.0372
24256W        W40730  18.244  10.764  15.074  0.0675 -0.0374  0.0947
24257W        W40731   8.787  12.688   3.432  0.1571 -0.3784  0.2367
24258W        W40732   7.365  17.554   2.275 -0.2118 -0.0327  0.2305
24259W        W40733   9.450  10.093  12.427  0.2663  0.0996 -0.1519
24260W        W40734   3.651  17.198  12.480  0.2887  0.2621  0.0708
24261W        W40735   3.024  15.871  11.198  0.0543  0.0230  0.2379
24262W        W40736   9.327  13.799   1.644  0.1832 -0.0211  0.1823
24263W        W40737  15.011  16.724   4.076  0.2634  0.1547  0.1112
24264W        W40738  16.686   7.942  13.932 -0.0244 -0.2347 -0.0146
24265W        W40739  17.525  12.478  13.968 -0.3001  0.4458 -0.2626
24266W        W40740  11.045   8.089  12.645 -0.1321  0.1249  0.2084
24267W        W40741  12.300   6.580   1.172  0.0223  0.1517 -0.0744
24268W        W40742  14.771   9.910  14.822  0.0543  0.0269  0.2495
24269W        W40743  11.259  14.806   0.050  0.1497 -0.1037 -0.0850
24270W        W40744  10.868  12.663   4.234  0.0743  0.0409 -0.0111
24271W        W40745  12.263   1.930  12.377  0.1031  0.0446 -0.1552
24272W        W40746  15.932   9.131  13.513  0.0556 -0.2578  0.3583
24273W        W40747   7.458   5.092   4.210 -0.0262  0.1371 -0.1162
24274W        W40748   1.854  15.861   2.793 -0.0437 -0.0844 -0.2196
24275W        W40749   8.426  16.409   2.630 -0.1749 -0.2144  0.3194
24276W        W40750   3.505   0.086  12.756  0.0859  0.2399  0.0452
24277W        W40751   3.864   1.799   1.549  0.0319 -0.2430  0.0043
24278W        W40752   6.491  10.881   4.605 -0.1082  0.0630 -0.1130
24279W        W40753  15.840  13.584  11.209  0.0616 -0.0392  0.4170
24280W        W40754   6.609   3.896   4.123 -0.0900  0.2564 -0.4065
24281W        W40755   9.950  16.619  15.165  0.3787  0.0314  0.0786
24282W        W40756  12.975  10.078  13.383  0.2154  0.1267 -0.0390
24283W        W40757  17.513   4.336  12.267 -0.0686 -0.1995  0.0385
24284W        W40758  11.631   0.259  12.686 -0.1204 -0.0836  0.0487
24285W        W40759  13.869  18.034  15.905 -0.1084  0.0785 -0.2092
24286W        W40760  13.496  11.861   2.084  0.3561 -0.1617  0.0599
24287W        W40761   3.604   3.757  15.776 -0.2462 -0.0600 -0.1228
24288W        W40762   2.949   3.104  12.783  0.0516  0.0726  0.0294
24289W        W40763  10.710   5.518   3.469  0.1663  0.0479 -0.2298
24290W        W40764  15.658  15.291   4.530  0.1612  0.0048 -0.1138
24291W        W40765   9.428  11.895  14.811  0.0974  0.3098  0.0648
24292W        W40766   4.160  17.332  11.799  0.0117 -0.3674 -0.1376
24293W        W40767   9.430  17.025   0.434  0.1765 -0.0978 -0.0349
24294W        W40768   1.247  10.926  14.420 -0.2885 -0.0367  0.2197
24295W        W40769   7.773   8.130   3.596  0.2372 -0.0185  0.0547
24296W        W40770   4.172  14.535  11.381  0.2810  0.1174 -0.1607
24297W        W40771  16.376  18.441   1.803 -0.2688  0.0891 -0.3498
24298W        W40772   2.413  14.033   2.269  0.1795 -0.2095  0.1680
24299W        W40773   7.873   9.425   2.240 -0.1020 -0.0492  0.1396
24300W        W40774  10.770  17.818   0.167  0.2047  0.4000  0.1019
24301W        W40775   1.680  14.696   1.193  0.1663  0.2082 -0.2354
24302W        W40776  15.155  18.471  15.897 -0.1655 -0.3604  0.2323
24303W        W40777   0.748  17.359   2.607  0.0446  0.1292  0.0821
24304W        W40778  15.441  14.999  12.521  0.4337  0.3529 -0.2594
24305W        W40779  16.888  14.220   5.243  0.0746  0.0632  0.2023
24306W        W40780  12.182  16.400  12.921  0.0145  0.1948  0.0879
24307W        W40781   9.520   8.607   0.767  0.0444  0.2666 -0.2226
24308W        W40782   9.298  15.895   0.109  0.0733 -0.2147 -0.0343
24309W        W40783   2.679  11.823   0.960 -0.0631 -0.2625  0.0332
24310W        W40784   9.006  16.882   2.354 -0.2505  0.0123  0.0065
24311W        W40785   1.708   8.975   3.459  0.0710 -0.1715  0.3602
24312W        W40786  11.112   8.826   0.092  0.0842  0.5100 -0.0766
24313W        W40787   7.413   5.408  13.016  0.0273 -0.2855 -0.0341
24314W        W40788   7.822  11.274   4.322 -0.3355  0.1109 -0.4477
24315W        W40789   2.027   2.589  15.870  0.4476 -0.0653  0.2616
24316W        W40790   0.992  12.966  11.602  0.0282 -0.1100 -0.3237
24317W        W40791  11.415   7.404  12.232 -0.0336 -0.1647  0.3730
24318W        W40792   4.350   7.237   3.729  0.0109  0.3209  0.0926
24319W        W40793  12.363   7.591  11.194 -0.0684  0.2331  0.2987
24320W        W40794  14.751   1.769  14.758  0.0637 -0.3731  0.0240
24321W        W40795   6.790  17.634   1.258  0.1564 -0.2131 -0.0556
24322W        W40796  15.303   2.297   4.660 -0.1156 -0.2915 -0.1495
24323W        W40797   4.173   7.724   5.386 -0.0464  0.0005 -0.0587
24324W        W40798  18.105   1.030   0.987 -0.0383 -0.1016  0.1577
24325W        W40799  18.243   2.364   0.214 -0.3403 -0.3559 -0.2975
24326W        W40800   1.403   2.033   4.697 -0.0207 -0.1926  0.3924
24327W        W40801   5.958  10.156   2.504 -0.0294  0.3242  0.2302
24328W        W40802  17.741   8.629  12.619  0.0852 -0.3142 -0.1235
24329W        W40803   8.784  10.973   3.086  0.0704  0.0846 -0.2222
24330W        W40804  12.088   6.341   4.747 -0.3019  0.0616 -0.2521
24331W        W40805   7.653  12.389   0.774 -0.1711 -0.3736  0.2530
24332W        W40806   2.190  17.770  10.841 -0.1911 -0.2167 -0.0611
24333W        W40807  17.381  14.368  12.058  0.2001  0.4450 -0.2129
24334W        W40808   6.666  10.994  12.065 -0.0432  0.1843  0.3307
24335W        W40809   2.064   9.671  11.463 -0.3199  0.2904  0.0003
24336W        W40810   4.030  18.465   2.271  0.1188 -0.0373 -0.2194
24337W        W40811  16.534   9.122  12.281  0.1117 -0.0019 -0.0571
24338W        W40812  14.739  10.775  13.486  0.0800  0.1187 -0.1390
24339W        W40813   5.735  13.616   2.349  0.0849 -0.2070 -0.1171
24340W        W40814   5.238  10.825  12.617 -0.1853  0.1562  0.0773
24341W        W40815   7.058   8.656  14.162  0.0066 -0.2547  0.1538
24342W        W40816   4.818  16.472  15.387 -0.2628 -0.2887 -0.3416
24343W        W40817   7.552  17.911   2.539  0.2469 -0.1905 -0.0631
24344W        W40818   8.119   1.582   2.938  0.0494 -0.1203 -0.2694
24345W        W40819   7.197  12.877   2.528  0.0491  0.2000  0.1201
24346W        W40820   3.713  12.707   2.264 -0.1003 -0.1047 -0.1275
24347W        W40821   7.601   2.452   4.207  0.0157  0.2231  0.0111
24348W        W40822  14.309   1.827  15.739  0.0459 -0.0787 -0.0021
24349W        W40823  10.137  11.821   6.522  0.0689 -0.0330  0.0237
24350W        W40824   8.390   2.272   4.794 -0.0323  0.1813 -0.0250
24351W        W40825   3.565   8.175   3.266  0.1514 -0.1132  0.2053
24352W        W40826  11.604  12.258  15.485  0.0108 -0.1661  0.1921
24353W        W40827   1.099   4.360  11.348  0.1111 -0.1028  0.0206
24354W        W40828  11.692  17.260   1.685 -0.0817 -0.1532  0.0534
24355W        W40829   1.462  14.995  15.948  0.0465  0.1502  0.0465
24356W        W40830  14.591   0.647   0.356 -0.2046  0.0372  0.0297
24357W        W40831  10.784   8.472   1.773  0.2681 -0.2694 -0.0779
24358W        W40832   7.556   7.202   1.926 -0.2894  0.1353  0.1449
24359W        W40833   1.680   3.839  13.960  0.2089 -0.1450 -0.0883
24360W        W40834  13.975   7.841  11.890 -0.0961  0.0785 -0.0952
24361W        W40835   3.714   7.687   5.712 -0.3261 -0.2942  0.0534
24362W        W40836  11.097  17.368   6.317  0.2121  0.1363  0.2059
24363W        W40837  12.636   1.771  14.290 -0.3601  0.2209  0.1711
24364W        W40838   5.996  12.748   1.025 -0.4630 -0.0890 -0.0490
24365W        W40839   9.703   2.758   5.778 -0.0835 -0.1113  0.2746
24366W        W40840  11.856  15.528   4.142 -0.0490  0.1662  0.1702
24367W        W40841   2.881  10.540  12.428 -0.1259  0.3084  0.3273
24368W        W40842  10.628  16.956   5.179 -0.1602  0.3331 -0.0259
24369W        W40843   3.908   5.917  11.005 -0.0728 -0.0058 -0.1910
24370W        W40844   5.462   9.876  14.146  0.1897  0.0451  0.0934
24371W        W40845   3.840  10.574  11.437 -0.0355  0.1464 -0.0644
24372W        W40846  16.270   9.616  14.613 -0.1133 -0.0693 -0.3108
24373W        W40847   7.629  15.229   0.132 -0.1139 -0.3860  0.2040
24374W        W40848  12.733  11.833   5.151  0.3675 -0.2675 -0.0177
24375W        W40849   7.489  17.709  15.772  0.1473 -0.0134  0.1538
24376W        W40850   7.708   8.253   1.584 -0.0970 -0.1931 -0.3658
24377W        W40851  15.429  11.120  12.383  0.0845  0.1846  0.4197
24378W        W40852   4.745  12.626   0.667 -0.1814  0.1729  0.2544
24379W        W40853  11.253  10.393  15.643  0.0967 -0.0046  0.0078
24380W        W40854  17.201   3.809  15.287  0.0948 -0.1679 -0.0333
24381W        W40855   3.839   6.590   2.900  0.0356 -0.0969 -0.2485
24382W        W40856  13.626  13.097   1.795  0.1791 -0.2317  0.0489
24383W        W40857   2.252  13.447   3.886 -0.2570 -0.1547 -0.1848
24384W        W40858  15.080   2.699   1.254 -0.0184  0.1554  0.1467
24385W        W40859  17.114  15.772   1.708 -0.0792 -0.1562 -0.1014
24386W        W40860   8.393   7.839   5.714 -0.3071  0.0994 -0.1708
24387W        W40861   4.867   9.258   0.449 -0.1027 -0.1116 -0.2148
24388W        W40862   0.935  12.574   2.024  0.0122 -0.2102 -0.3569
24389W        W40863  10.737  18.366   2.123 -0.2245  0.0698  0.1249
24390W        W40864  10.429  17.568  14.879  0.1637  0.0397  0.2757
24391W        W40865  12.305   6.361   2.388  0.1542 -0.2052  0.0082
24392W        W40866   8.394  15.983  11.977 -0.0272 -0.1779  0.0747
24393W        W40867  17.481   1.755   4.342  0.2884 -0.0511  0.0246
24394W        W40868   2.110   4.409  11.499 -0.2110 -0.2599 -0.4723
24395W        W40869   7.300   8.500   3.048 -0.0008  0.0349  0.2202
24396W        W40870   4.991   8.487   1.095 -0.3113  0.3160 -0.2155
24397W        W40871   5.748  12.954   4.200  0.0333 -0.2033 -0.1724
24398W        W40872  12.102  10.794   1.497 -0.3634  0.2754  0.1142
24399W        W40873  17.376  15.197   1.560 -0.0658 -0.1007  0.0964
24400W        W40874   3.965   9.904   2.636  0.0423  0.0156  0.1858
24401W        W40875   6.893   0.947  15.912 -0.0534  0.2033  0.1316
24402W        W40876   7.402   5.224   5.016  0.1068 -0.0782  0.1866
24403W        W40877   4.750  12.852  11.918 -0.1450 -0.0697  0.0174
24404W        W40878  18.219   4.564  12.404  0.1558  0.4377 -0.3053
24405W        W40879   8.311  16.248   2.025 -0.3845  0.1574 -0.0239
24406W        W40880   3.677   4.980  14.314 -0.2012  0.0749  0.0834
24407W        W40881   5.741  16.998   2.115 -0.3255 -0.0740 -0.2948
24408W        W40882  17.286   7.977   1.557  0.0486 -0.2106  0.0652
24409W        W40883   8.930  12.818  11.231 -0.2221  0.0421 -0.2785
24410W        W40884   1.435   2.461  12.141 -0.1936  0.1341 -0.2250
24411W        W40885  14.424  15.810   1.270  0.2775 -0.1603 -0.4207
24412W        W40886  15.436  15.978   4.618  0.1209 -0.3088 -0.1199
24413W        W40887  16.147   0.053  15.623 -0.1339 -0.0314 -0.0653
24414W        W40888  14.345   3.940   4.529  0.0772  0.0032  0.0533
24415W        W40889   6.459   6.993   4.574 -0.1694 -0.2123 -0.0437
24416W        W40890  13.660   9.327  15.180  0.3002  0.0505  0.0659
24417W        W40891  15.709   4.480   2.783  0.1456  0.2107 -0.1962
24418W        W40892   7.220   6.926  14.737 -0.0338  0.1473  0.2209
24419W        W40893   5.292  17.966   0.477 -0.2511 -0.0090 -0.1295
24420W        W40894  13.002   9.425   3.414  0.1815 -0.3643  0.3595
24421W        W40895   4.130  16.180   3.247 -0.0288 -0.0876  0.1067
24422W        W40896   5.857  17.629  11.573  0.1719 -0.0548 -0.2676
24423W        W40897  16.759   9.366  11.240 -0.0163 -0.2022 -0.3414
24424W        W40898  16.971   3.149   0.801 -0.1699  0.1932 -0.0781
24425W        W40899  10.073   9.970  14.331 -0.0532 -0.0659 -0.1956
24426W        W40900  11.639   4.335  12.404 -0.1221 -0.0871 -0.1220
24427W        W40901   5.325   3.119  13.875 -0.2385  0.0842  0.1603
24428W        W40902   3.782   7.539   5.110 -0.1964  0.1290 -0.0397
24429W        W40903  16.630   3.126  15.774  0.0482  0.3739 -0.1871
24430W        W40904  13.917  10.341  13.473 -0.2693  0.1811 -0.0749
24431W        W40905  15.301  13.719   5.501 -0.4584  0.0705 -0.3142
24432W        W40906   6.856   1.113   5.770 -0.1369 -0.1287  0.1058
24433W        W40907   7.771   0.890   2.408  0.1466  0.2226  0.0634
24434W        W40908  12.559   4.089   1.430 -0.0313 -0.2580 -0.1034
24435W        W40909  17.711  16.674   5.608 -0.2100  0.1105  0.1132
24436W        W40910  12.456  17.425   2.320  0.2314 -0.2590 -0.0628
24437W        W40911  15.983   0.976  11.476  0.1587 -0.1110  0.0158
24438W        W40912  12.289   7.754   0.483  0.1951  0.5182  0.0204
24439W        W40913   3.461  14.154   2.445 -0.1559 -0.0098  0.0412
24440W        W40914   5.196   0.593   0.616 -0.3967  0.1150  0.0213
24441W        W40915   8.177  11.447  12.746  0.2194  0.2082 -0.0412
24442W        W40916   8.271  17.510   0.565  0.2729 -0.1724 -0.0395
24443W        W40917  10.525  17.706  12.395  0.0358  0.1938  0.0684
24444W        W40918  10.368   6.646  12.110 -0.1354 -0.2142 -0.1149
24445W        W40919   8.901   2.814   2.222 -0.1599 -0.0802 -0.1366
24446W        W40920   5.719   0.292  14.783  0.2400 -0.1138  0.0622
24447W        W40921   4.718   1.817   2.792 -0.1519 -0.2073  0.1682
24448W        W40922  15.631   7.455  13.406 -0.2993  0.1703  0.0980
24449W        W40923  12.610  14.579   1.346 -0.4626  0.0741  0.0347
24450W        W40924   8.666   6.429  11.581  0.3158 -0.1976  0.0475
24451W        W40925  16.461   1.948   2.412 -0.0629 -0.1948  0.1896
24452W        W40926   7.288   6.465   0.813 -0.2830  0.4571  0.2989
24453W        W40927  16.815  16.947   5.706 -0.0349 -0.0014 -0.0285
24454W        W40928   9.193   6.691   0.796 -0.0160 -0.2219  0.3520
24455W        W40929   2.669   9.522  15.891 -0.4717 -0.0484 -0.0505
24456W        W40930   5.181  18.268  11.868 -0.2709 -0.2728 -0.1569
24457W        W40931   1.432  10.778   1.481  0.2330  0.1134 -0.0351
24458W        W40932  10.331   7.634   5.650 -0.0498  0.0889  0.1279
24459W        W40933   5.657   6.290   3.442 -0.0959  0.1291  0.0513
24460W        W40934   3.431   3.038  14.950  0.1778  0.2063  0.1390
24461W        W40935  16.838  15.236  12.925  0.1039  0.1434 -0.0966
24462W        W40936   3.304  11.918  14.215  0.0881  0.1315 -0.1657
24463W        W40937  16.139  18.290   3.617 -0.3880  0.0810 -0.0189
24464W        W40938   2.409  15.299   2.364  0.1764 -0.2168  0.1123
24465W        W40939   2.400  14.793   3.986 -0.0342 -0.0051 -0.2286
24466W        W40940  16.316  10.401  10.644 -0.1419 -0.2251 -0.1626
24467W        W40941   5.237   9.637   0.449 -0.1472  0.3097 -0.3244
24468W        W40942   7.009  18.269  10.843  0.0403  0.2114  0.1036
24469W        W40943   6.711   1.738  12.489  0.0341 -0.1338 -0.0088
24470W        W40944   8.594   5.563   5.100 -0.0918  0.0263 -0.1353
24471W        W40945  10.644   1.596   4.692  0.2863 -0.0053 -0.0905
24472W        W40946   4.306   2.447  13.621 -0.3371 -0.0579 -0.2084
24473W        W40947   5.906  11.229   5.848  0.1401  0.1708  0.0373
24474W        W40948   9.362   3.214  15.712 -0.1030 -0.1614 -0.2672
24475W        W40949   1.660   3.043   0.560  0.0328 -0.0563  0.0949
24476W        W40950   7.600   0.401   9.973  0.0851 -0.0634  0.3410
24477W        W40951  17.699   2.311   3.846  0.2239  0.0427 -0.0723
24478W        W40952   1.494   5.352  15.161 -0.0273  0.0986 -0.1927
24479W        W40953  13.415  12.532   3.298  0.1733 -0.1279 -0.0749
24480W        W40954  13.728  15.203  11.784 -0.2080 -0.2915 -0.2120
24481W        W40955   7.213   0.360   1.869 -0.0810 -0.0423 -0.0197
24482W        W40956  18.099  14.330   1.755 -0.0103 -0.0282  0.0614
24483W        W40957   1.618  13.052  12.246 -0.0998  0.1977  0.1130
24484W        W40958  15.288  16.352  13.635 -0.0710  0.2280 -0.2106
24485W        W40959   2.925   3.045  15.637  0.1798 -0.0651 -0.0262
24486W        W40960  16.786   6.987   2.319  0.0253 -0.2548  0.1494
24487W        W40961   5.460   2.275   2.148 -0.1046  0.0088 -0.2097
24488W        W40962  13.059  10.831   5.305  0.3940  0.3647  0.0930
24489W        W40963   6.436   2.236  15.793 -0.2411  0.1036  0.0069
24490W        W40964   6.494   4.904  14.205 -0.1196  0.2266  0.1153
24491W        W40965  18.059  10.837  15.619 -0.1898  0.0870 -0.1712
24492W        W40966  12.144   4.031   3.399 -0.0588 -0.0070 -0.1725
24493W        W40967  14.004   9.190   3.906  0.1260 -0.0985  0.3159
24494W        W40968  13.459   9.320   3.194  0.1907 -0.2871  0.1313
24495W        W40969   4.746   5.546  13.167 -0.0283 -0.3742 -0.1589
24496W        W40970   1.957  14.854   5.121  0.1111 -0.0522 -0.1098
24497W        W40971  10.183   4.996  13.774 -0.2119 -0.3613  0.1422
24498W        W40972  16.810   4.457   5.340  0.0610  0.1871 -0.1244
24499W        W40973   8.184  15.804   1.787  0.0033  0.1945  0.0329
24500W        W40974   4.039  17.268   3.429 -0.0279 -0.0044 -0.1468
24501W        W40975   6.859   3.826  11.503 -0.3949  0.2162 -0.2088
24502W        W40976   2.641  16.813   3.439 -0.0647 -0.0206  0.0162
24503W        W40977  15.305  17.447  15.658 -0.0529  0.0953  0.0760
24504W        W40978  11.754   7.683   3.040  0.0500  0.1578  0.4354
24505W        W40979  17.808  18.358  11.353  0.2783  0.2625  0.1029
24506W        W40980  15.409   9.129  15.080  0.0382  0.2541  0.2821
24507W        W40981  14.105  10.335  11.865  0.1829 -0.0434  0.2960
24508W        W40982  10.463  17.540   2.165  0.0390  0.0854 -0.1537
24509W        W40983  13.047   5.035   2.102  0.1014 -0.1320  0.0895
24510W        W40984  17.810  18.127  12.840  0.3217 -0.0896  0.0609
24511W        W40985  13.572   1.020  14.812  0.1286 -0.0099  0.1143
24512W        W40986  11.799   2.141  15.464  0.0616 -0.0492  0.1940
24513W        W40987   6.571  15.783   1.947  0.1278 -0.1044  0.0982
24514W        W40988   1.170   8.007   2.601  0.2326  0.0474 -0.1923
24515W        W40989   3.476  14.472   3.343 -0.0799  0.3070  0.1624
24516W        W40990   1.731   8.398   3.487  0.0750 -0.0801 -0.1394
24517W        W40991  13.770  17.418  13.011  0.1586  0.1249 -0.1645
24518W        W40992   9.405  14.253   3.415  0.1016 -0.0204  0.2861
24519W        W40993   8.065   9.716  15.191 -0.0428  0.3337 -0.2032
24520W        W40994  13.443  15.986   0.372  0.0553  0.1038  0.1718
24521W        W40995  11.591  14.641   3.618  0.0136  0.0961 -0.0285
24522W        W40996  10.526   6.557   2.512  0.1451 -0.1767 -0.3459
24523W        W40997  13.558   0.291  12.648 -0.3581 -0.2055 -0.1015
24524W        W40998   7.704   8.196   2.894 -0.0701  0.0707  0.0006
24525W        W40999   9.697   6.469  11.150 -0.0036  0.0928  0.0593
24526W        W41000   7.963   0.214   4.922  0.1162 -0.0194  0.0622
24527W        W41001  10.933   3.265  12.037 -0.1112  0.0046 -0.0316
24528W        W41002   5.047  14.643   5.688 -0.1232  0.2698 -0.2355
24529W        W41003   9.841  13.433  14.448  0.0798  0.1654  0.0525
24530W        W41004  16.953  14.444   2.577 -0.0031 -0.1616 -0.0150
24531W        W41005  16.192   3.211   4.501  0.1667 -0.1220 -0.1808
24532W        W41006  17.633  16.816  12.640  0.2569  0.0551  0.0015
24533W        W41007   0.438   0.806   3.828 -0.0950  0.2145 -0.2050
24534W        W41008   6.056  13.669  15.151 -0.4328  0.0902 -0.2453
24535W        W41009   2.234   8.320   1.081  0.1614  0.1072 -0.1446
24536W        W41010   4.740   1.654  13.711 -0.3108 -0.0167 -0.2276
24537W        W41011  14.263  14.153  15.168  0.1702 -0.1039  0.0146
24538W        W41012  16.971  13.529   4.594  0.0307  0.1924 -0.0661
24539W        W41013  10.199  17.518  15.359 -0.3306  0.2086  0.3701
24540W        W41014  12.421  17.842  12.665  0.0997  0.2574  0.0449
24541W        W41015   6.388   9.846   3.525 -0.1821  0.4094  0.2652
24542W        W41016  15.833  12.603  13.451  0.1084 -0.2670  0.1581
24543W        W41017  16.317   8.875   5.756  0.0773  0.2802 -0.0482
24544W        W41018   8.675   4.515  11.233  0.0453 -0.1798  0.0953
24545W        W41019   1.494  15.836  12.152 -0.0173  0.3109  0.1353
24546W        W41020   3.939   5.528  11.324 -0.0346  0.0047 -0.0279
24547W        W41021   5.475  14.183   0.026 -0.0737  0.0065 -0.2048
24548W        W41022  18.251  16.371   3.774 -0.0896 -0.0924 -0.1792
24549W        W41023   6.936   4.076  15.704 -0.1378  0.3985 -0.2568
24550W        W41024  12.056   3.167  12.929  0.0284  0.0625  0.4726
24551W        W41025   9.213   2.959   5.780 -0.2340 -0.0360  0.3105
24552W        W41026   3.198   2.312  14.483 -0.0148  0.0652 -0.2212
24553W        W41027   9.685  18.035  11.919  0.1210 -0.2343  0.2709
24554W        W41028  16.178   0.877  12.813 -0.0024 -0.3755  0.2137
24555W        W41029   5.106   3.737   5.162  0.0047  0.2070  0.1421
24556W        W41030  17.382   1.826  13.616 -0.4106  0.2061 -0.0703
24557W        W41031   4.328   4.898  15.946 -0.1641 -0.0112 -0.0494
24558W        W41032   1.623  16.911   1.390  0.0669 -0.0141 -0.1727
24559W        W41033   5.905  12.856  11.547  0.2314  0.1289 -0.0931
24560W        W41034   0.879   4.409   5.122  0.1480  0.2495 -0.2957
24561W        W41035   1.615   6.285   4.606  0.1292  0.2107  0.1639
24562W        W41036  13.913   0.278  12.314 -0.2165 -0.2793 -0.0410
24563W        W41037  17.197  16.230  14.319  0.4150 -0.1551 -0.0829
24564W        W41038   2.512   8.195  12.114  0.1256  0.0226  0.2711
24565W        W41039  13.005   6.367   0.404  0.0426 -0.0559  0.1947
24566W        W41040   3.348  10.616   2.392 -0.1822 -0.1102  0.0045
24567W        W41041  13.871  11.338   1.012  0.0504  0.1620  0.0864
24568W        W41042  15.044  17.729   5.371 -0.2510 -0.3308 -0.1509
24569W        W41043   5.597  17.871  14.490 -0.0731 -0.1609  0.2125
24570W        W41044   9.376  16.895  13.808  0.1715 -0.0620 -0.2047
24571W        W41045  17.025   9.962   4.215  0.0374 -0.2642  0.1694
24572W        W41046   4.046   3.862   5.753 -0.0477  0.2800  0.1828
24573W        W41047  17.838  11.386   2.281  0.0055 -0.1513 -0.2248
24574W        W41048  14.381  14.603   3.855 -0.2283  0.0719  0.0406
24575W        W41049   3.453  15.240   2.926  0.3323 -0.0732 -0.1713
24576W        W41050   1.556  12.209   1.352  0.2775 -0.0725 -0.2280
24577W        W41051   9.183   4.152  11.896  0.0951 -0.3076  0.2538
24578W        W41052  13.959  12.253  13.611 -0.0427  0.1995 -0.0799
24579W        W41053   6.442   8.531  13.612 -0.1471 -0.2180 -0.0461
24580W        W41054   8.179   4.673   2.106  0.0383 -0.1172  0.0038
24581W        W41055   7.776   5.174  12.327 -0.0522  0.1161 -0.0706
24582W        W41056   5.453   6.065   1.496  0.1339 -0.0378 -0.2351
24583W        W41057  13.629   7.758   3.216  0.3171  0.1187 -0.2391
24584W        W41058  18.015  16.791   3.282 -0.1804 -0.1807 -0.1277
24585W        W41059  17.996  15.448  13.768 -0.0859  0.2724  0.3108
24586W        W41060  16.716   6.475  14.850  0.0473 -0.0619  0.0569
24587W        W41061  17.082  16.164   1.269 -0.1262  0.1629 -0.1793
24588W        W41062   5.715   8.174   9.866  0.3099 -0.2928 -0.0828
24589W        W41063   6.743  17.863   5.767  0.0053  0.3168 -0.0461
24590W        W41064   8.627  12.680  14.484 -0.0457  0.3818  0.0615
24591W        W41065  17.260  15.142   0.104  0.1770  0.0247  0.0905
24592W        W41066   7.500  14.313  12.008  0.2862 -0.0331 -0.3094
24593W        W41067   4.570   1.196   1.603 -0.1344 -0.0862 -0.2432
24594W        W41068   6.677   6.453   3.141  0.1255 -0.2507 -0.0397
24595W        W41069   3.532  10.292   0.875 -0.1756 -0.4467 -0.0171
24596W        W41070   4.626  15.206  13.592 -0.0758  0.0380 -0.0959
24597W        W41071   4.624   0.983  15.962 -0.2492 -0.0944 -0.1978
24598W        W41072  11.833   7.464  12.504 -0.1446  0.0201  0.3461
24599W        W41073  17.275  15.613   2.708 -0.2000 -0.3213 -0.4242
24600W        W41074  17.162  17.152   5.251 -0.0641  0.1388 -0.0508
24601W        W41075   3.802  16.166  11.666  0.1643  0.0992  0.0365
24602W        W41076  14.360  18.100   2.087  0.0281 -0.1074 -0.0250
24603W        W41077  12.194  15.604  14.242  0.0578 -0.1386  0.2229
24604W        W41078   4.065   8.016  14.421 -0.2316  0.1153 -0.0659
24605W        W41079   6.688  17.939   2.044 -0.3808  0.0174 -0.0949
24606W        W41080   9.610   3.599  14.738 -0.1921  0.3725  0.2189
24607W        W41081  10.213  16.905  13.757  0.0139  0.2120 -0.1184
24608W        W41082   5.290   6.131   4.894 -0.1726  0.2391 -0.4030
24609W        W41083   8.224   4.367  11.427  0.2030  0.3441 -0.0168
24610W        W41084  17.866   2.621  13.577  0.2139  0.0066 -0.1061
24611W        W41085   8.497   2.531   1.045 -0.2870 -0.0859 -0.0007
24612W        W41086  13.748  12.259   3.547  0.1396 -0.2392 -0.1329
24613W        W41087  15.089  11.759   5.212 -0.1985 -0.4099  0.1757
24614W        W41088  17.308   8.517  14.511  0.0547  0.0327 -0.2046
24615W        W41089   3.062   6.741   4.992 -0.2364 -0.0695 -0.1791
24616W        W41090   5.602   3.549   5.257 -0.0129  0.2735  0.0885
24617W        W41091  12.922  11.578   5.590 -0.1585  0.0547  0.3082
24618W        W41092  16.463  16.670   0.895 -0.0505  0.0425  0.0082
24619W        W41093   9.360   1.368   5.088 -0.0136  0.1520 -0.2009
24620W        W41094  13.409   3.051   0.115 -0.1117 -0.0098 -0.3312
24621W        W41095  14.640  14.129   0.575 -0.0538 -0.0475  0.1082
24622W        W41096  13.747   0.262  11.607  0.0585 -0.1037 -0.2328
24623W        W41097  14.744   1.218   0.480 -0.0967  0.0609  0.0088
24624W        W41098  16.338  12.012   1.473  0.1178 -0.1877  0.1429
24625W        W41099  18.350   2.801   4.024  0.1172 -0.1188 -0.0048
24626W        W41100   9.677   9.740  12.706 -0.1924  0.3749 -0.2061
24627W        W41101   3.612   2.939  12.152  0.1107  0.1523 -0.0409
24628W        W41102  15.864  11.348   3.601  0.0349 -0.3225  0.4473
24629W        W41103   1.857  10.892  11.721  0.0188  0.1929 -0.1988
24630W        W41104  11.447   5.481   4.974  0.1063  0.0036  0.1049
24631W        W41105   0.170  12.423   4.871 -0.2097 -0.1326 -0.1776
24632W        W41106   0.575   7.889  10.691  0.1566  0.2196 -0.0832
24633W        W41107  13.050  13.698  13.422  0.0620  0.0254 -0.0300
24634W        W41108  18.220   9.120  10.451 -0.3768  0.0348  0.0461
24635W        W41109  11.209   8.166  12.069  0.0627 -0.0749  0.0582
24636W        W41110   0.656  16.801  12.485 -0.2575  0.1401 -0.2576
24637W        W41111   8.538   9.013  15.330  0.1963 -0.1537 -0.4044
24638W        W41112   2.123  18.046  15.218  0.1516 -0.0773  0.0232
24639W        W41113   6.320  14.494  14.528  0.1873 -0.1078 -0.1634
24640W        W41114   0.493  16.984  12.048  0.1056  0.2562  0.1342
24641W        W41115   6.649  14.296  14.113  0.1507  0.0007 -0.0469
24642W        W41116   5.859  10.994   0.783 -0.0152 -0.1254  0.1377
24643W        W41117   0.048   0.940   1.734 -0.3143 -0.3537  0.0945
24644W        W41118   0.505  15.657  13.837 -0.0563 -0.1269 -0.2269
24645W        W41119   1.701  14.242  11.273  0.0632 -0.2457  0.0329
24646W        W41120   7.728   3.820   0.287 -0.1130  0.1534 -0.1608
24647W        W41121   7.811   5.267  11.775  0.2620  0.0367  0.0921
24648W        W41122  17.106  15.650  13.124  0.1306  0.1313 -0.1630
24649W        W41123   1.663   0.616  13.382 -0.1937  0.0968  0.0105
24650W        W41124  10.418  14.748  14.436 -0.1708  0.0634 -0.0961
24651W        W41125  18.185   7.347   4.152  0.1757  0.1348 -0.0556
24652W        W41126   3.148  12.913   5.166 -0.0680 -0.1576 -0.3736
24653W        W41127   9.587   9.006   1.668 -0.1280  0.4184 -0.2318
24654W        W41128   4.514   4.606  12.618 -0.1136 -0.0366  0.3453
24655W        W41129   2.914   0.996   5.984  0.1960 -0.0016 -0.2111
24656W        W41130  12.587  11.556   1.846 -0.0931  0.1981  0.3679
24657W        W41131  16.615  13.480   3.616 -0.0565 -0.1785  0.2858
24658W        W41132  10.300   4.113  13.110  0.1257  0.1911 -0.1654
24659W        W41133   6.376  10.528   4.281  0.0901  0.1317 -0.1756
24660W        W41134  15.634   2.884   5.323  0.0239 -0.0313  0.3003
24661W        W41135  13.699  17.722   0.794 -0.2256 -0.1529  0.0726
24662W        W41136   8.220  11.981  12.533  0.0661 -0.5058  0.0243
24663W        W41137  16.245   9.195  11.813  0.2092  0.2962  0.0096
24664W        W41138   0.599   2.524  12.782 -0.0763 -0.0525  0.0141
24665W        W41139  14.534  11.679  13.737  0.3124 -0.2133  0.0169
24666W        W41140   7.117   5.522   4.297  0.4872 -0.3573  0.2698
24667W        W41141   1.267  17.759   0.157  0.0443 -0.1706 -0.2417
24668W        W41142  10.665   0.215   5.359 -0.0182  0.0009 -0.0071
24669W        W41143  11.468   1.966  11.836  0.3323  0.0434  0.2362
24670W        W41144   5.926  12.741  13.374  0.0882 -0.2431  0.1285
24671W        W41145   4.759  17.431  14.683 -0.0178 -0.1260 -0.1361
24672W        W41146   0.968  17.549   1.655  0.0076  0.0038  0.1349
24673W        W41147  13.711   8.082  15.260 -0.1823 -0.1696  0.0158
24674W        W41148  14.004   7.427   0.634  0.0566  0.0222  0.2503
24675W        W41149  16.450   2.727   3.013 -0.1393 -0.3069  0.0683
24676W        W41150  16.124   0.527  11.674 -0.4868  0.2483  0.3352
24677W        W41151   0.984  11.884  15.543 -0.2165 -0.1882 -0.0998
24678W        W41152   9.712  16.212   2.592 -0.1109 -0.0778  0.0320
24679W        W41153   1.474   5.822  14.336 -0.0234 -0.1442  0.0514
24680W        W41154   6.664   8.362  14.103  0.1633  0.1463  0.2177
24681W        W41155   0.420   7.071  11.272 -0.0214 -0.2612 -0.0203
24682W        W41156   3.928   5.508   1.087 -0.0634  0.2245 -0.0604
24683W        W41157   3.049   8.573   0.719  0.1321 -0.2308 -0.2294
24684W        W41158  17.761  17.626  12.206  0.0423  0.1517  0.0672
24685W        W41159  10.730   1.671  13.780 -0.0810 -0.0180  0.0347
24686W        W41160   1.381   3.898  15.481 -0.1951  0.1842  0.1462
24687W        W41161  17.005   4.055  10.807 -0.1291  0.0206  0.3161
24688W        W41162   4.404  15.836  14.896 -0.0322 -0.0488 -0.1789
24689W        W41163   8.480   1.549   0.845  0.0008 -0.0820 -0.2167
24690W        W41164  16.570  16.830   0.063 -0.2426  0.1685 -0.0387
24691W        W41165   8.951  15.086  11.214 -0.0027 -0.0794 -0.0200
24692W        W41166   0.545  11.019   1.725 -0.4299 -0.0021  0.0089
24693W        W41167  11.484   0.811  14.460  0.1835  0.1784 -0.0598
24694W        W41168   5.831  14.403   1.785  0.0056 -0.0422  0.0120
24695W        W41169   0.227  12.345   1.831  0.1050  0.0542 -0.1772
24696W        W41170   7.672   2.586   3.728 -0.0884  0.0046  0.0841
24697W        W41171  15.051  17.616  13.582  0.0192 -0.3176  0.0054
24698W        W41172   7.546  16.096  12.506 -0.1530  0.1536  0.0122
24699W        W41173   4.097  13.110   3.238 -0.0408 -0.1759 -0.2489
24700W        W41174  12.068  17.657  15.225 -0.1559  0.2673  0.1442
24701W        W41175   3.263   4.325   1.440  0.2905 -0.0798 -0.1783
24702W        W41176   0.801   6.599   2.426  0.2101  0.1123 -0.1493
24703W        W41177   9.737  11.208  14.326 -0.0045  0.0040 -0.0509
24704W        W41178   3.129   7.412   3.263  0.1268 -0.0247 -0.0497
24705W        W41179  16.157  12.980   2.413 -0.1229  0.1311 -0.0215
24706W        W41180   3.162   3.481  13.801  0.0697  0.4180  0.1416
24707W        W41181  18.253   5.007  11.714 -0.3026  0.1117  0.1319
24708W        W41182   3.369  10.256  15.121 -0.0131 -0.0849 -0.1120
24709W        W41183   3.598   7.352   1.320 -0.0946 -0.1769 -0.0218
24710W        W41184   6.530   8.092  13.400  0.0756 -0.1110  0.0052
24711W        W41185   8.172  17.235   2.173  0.0990  0.2122  0.1699
24712W        W41186  17.876   1.125   4.703  0.0576 -0.4957  0.0276
24713W        W41187  16.644   4.452   3.647 -0.0107 -0.0849 -0.0050
24714W        W41188   6.918  17.528  15.051 -0.0070  0.1091 -0.0377
24715W        W41189  17.629   6.442   2.045 -0.0410  0.2047  0.1207
24716W        W41190  17.505  16.413   4.196 -0.0739 -0.0413 -0.2176
24717W        W41191  16.098  16.028  10.978 -0.4492  0.1295 -0.1324
24718W        W41192   7.332   5.294  15.072  0.1138  0.3285 -0.0124
24719W        W41193   0.689   8.204   0.556 -0.0548 -0.1413 -0.0756
24720W        W41194  10.893  13.151   2.242  0.0880 -0.2944  0.0266
24721W        W41195  16.876   0.228   0.570 -0.0167 -0.0089  0.2305
24722W        W41196   6.841  14.806   2.447  0.1350  0.0165 -0.0693
24723W        W41197  13.896  15.826  13.957  0.2022  0.0611 -0.0311
24724W        W41198  14.356  15.034   0.720 -0.2654 -0.3151  0.2983
24725W        W41199   9.355   4.407   1.539 -0.1132  0.1586  0.0809
24726W        W41200  12.124  15.799   1.408 -0.4495 -0.1818 -0.0197
24727W        W41201  14.337  15.934  12.321 -0.3636 -0.1645 -0.0737
24728W        W41202  14.389   7.092  11.680 -0.0868 -0.2825 -0.1121
24729W        W41203  15.635   2.321   0.242 -0.1795  0.1302 -0.1114
24730W        W41204   4.028  10.781   1.091 -0.2066  0.2146  0.1236
24731W        W41205  16.788   7.658   0.443  0.1531 -0.1139 -0.1606
24732W        W41206   0.500   2.510  11.825 -0.0875 -0.0369  0.4275
24733W        W41207  17.365   4.197   1.535 -0.1524  0.2277 -0.1750
24734W        W41208  15.212  15.901  14.876  0.1562  0.1975 -0.0614
24735W        W41209  15.343  17.637  13.074 -0.1963 -0.3786 -0.0148
24736W        W41210  16.600   3.982   1.186 -0.2209 -0.1621  0.1568
24737W        W41211  11.135   4.207  13.334 -0.0132 -0.0304  0.0458
24738W        W41212   3.503  14.620   2.363  0.2178 -0.1825 -0.1066
24739W        W41213   5.387   2.480   2.686  0.1371  0.0343  0.1745
24740W        W41214  10.372   4.580   4.691 -0.1849 -0.1325 -0.0147
24741W        W41215  10.763  15.083  11.825  0.0938  0.0223  0.3006
24742W        W41216   4.046  16.659  13.417 -0.0848 -0.4536 -0.2795
24743W        W41217   1.659   8.813  14.023  0.2461 -0.1213 -0.0830
24744W        W41218  13.848   4.957   1.806  0.1752  0.2658  0.1602
24745W        W41219  16.292   4.558  15.721 -0.1842 -0.2159 -0.1807
24746W        W41220  16.750   6.786  14.495  0.5178  0.1298  0.1897
24747W        W41221   9.001  12.247   2.838 -0.0534  0.0540  0.1188
24748W        W41222   2.746  11.004  15.619 -0.1791  0.1220 -0.0779
24749W        W41223   7.865  14.761   3.161  0.2857  0.2262 -0.0670
24750W        W41224   7.660   8.901   2.133  0.0261 -0.2275 -0.0379
24751W        W41225   2.204  10.252   5.449 -0.1102  0.2497 -0.1704
24752W        W41226   7.703  12.886  11.559  0.1720  0.0487  0.1738
24753W        W41227  13.075   3.211  14.138 -0.0120 -0.0194 -0.0202
24754W        W41228  17.134  18.456  14.139  0.0799 -0.0738  0.2425
24755W        W41229  16.655   4.464   2.835  0.0958  0.1104  0.1462
24756W        W41230  16.568  14.059   1.336 -0.0159  0.0560 -0.0767
24757W        W41231  10.725  12.434   3.797 -0.1311 -0.0226  0.0674
24758W        W41232   6.379   7.152  15.432  0.0619  0.0370  0.3756
24759W        W41233   0.066   2.547   1.460 -0.0102  0.0614  0.2127
24760W        W41234   8.510   6.156  12.513 -0.0735 -0.0602 -0.1321
24761W        W41235  12.364  16.854  15.826 -0.3276  0.2978  0.0188
24762W        W41236   6.307   0.088   4.799 -0.2025 -0.0807 -0.1572
24763W        W41237   3.604   9.153   3.249  0.0471  0.0370  0.1180
24764W        W41238  13.062   1.449  13.457  0.3066  0.0254  0.3748
24765W        W41239  13.247  12.510  13.131 -0.2805 -0.0149  0.1797
24766W        W41240  18.179  14.935   3.376 -0.2693 -0.0584  0.0636
24767W        W41241  17.020   7.948   2.424  0.1334  0.1211 -0.2014
24768W        W41242   0.248  10.528   4.741  0.0820 -0.0621  0.3562
24769W        W41243   3.030  16.905   5.800 -0.1045  0.0514 -0.2200
24770W        W41244   7.142  12.600   0.070 -0.0886 -0.1495 -0.1417
24771W        W41245   4.561  10.450  13.042  0.0974 -0.2326 -0.1966
24772W        W41246  17.120  11.041   1.680  0.2846 -0.0056 -0.1429
24773W        W41247   1.162  13.872   2.485  0.2243  0.1233  0.0415
24774W        W41248   9.091   2.767   4.696 -0.0985  0.2612 -0.0162
24775W        W41249  14.676   1.000   3.203  0.1511  0.2162 -0.0223
24776W        W41250   8.274  10.680   2.458  0.0548 -0.1247  0.1230
24777W        W41251  14.921  14.941  14.936 -0.1553  0.0082 -0.2471
24778W        W41252   6.320   1.808  14.405 -0.3095  0.0890 -0.1537
24779W        W41253   6.281  10.902   1.019 -0.0538  0.1829 -0.0502
24780W        W41254  13.287   0.977   3.511 -0.1982  0.0454 -0.0895
24781W        W41255  13.079  17.570  13.440 -0.4660 -0.1474 -0.0961
24782W        W41256  12.227   1.328  15.027  0.0200 -0.2228 -0.0479
24783W        W41257  15.608   2.879  14.049 -0.2024 -0.3769 -0.1259
24784W        W41258   0.172  11.580  12.741  0.2476 -0.1531 -0.2856
24785W        W41259   4.109   7.024   0.584 -0.0894 -0.0834 -0.1737
24786W        W41260  11.885  15.477  14.524  0.2424  0.1648  0.2946
24787W        W41261   9.116   5.344   5.356  0.0279  0.2070  0.0752
24788W        W41262  16.789  11.107   2.978 -0.2319 -0.2964 -0.2742
24789W        W41263   1.395   9.818   1.462 -0.0738 -0.1282  0.1844
24790W        W41264   5.271  16.337   2.498  0.1304 -0.1873 -0.1834
24791W        W41265  11.272   3.331   3.963  0.1090  0.1791 -0.0306
24792W        W41266  10.999  18.344   4.565  0.1773  0.1203 -0.0588
24793W        W41267   9.273  16.854   2.928  0.1873  0.0095 -0.2571
24794W        W41268   4.471   6.596   0.548 -0.4569  0.1186  0.2475
24795W        W41269  18.021   4.056  11.274 -0.1590  0.1633  0.0143
24796W        W41270  17.490   6.737   3.004  0.0450 -0.0201 -0.0902
24797W        W41271   4.676  17.673  15.922 -0.1177 -0.0073  0.0314
24798W        W41272  16.748   8.412  11.495  0.2697 -0.0212  0.0820
24799W        W41273   9.172   8.472   4.710  0.1243 -0.0325  0.1297
24800W        W41274   4.096   0.731  12.550  0.0840 -0.0842  0.0795
24801W        W41275  15.527   2.399  13.921 -0.3267  0.2327  0.2263
24802W        W41276  12.542   8.618   0.192  0.0259 -0.0402  0.1659
24803W        W41277  17.990  14.950   0.540 -0.1466  0.2438  0.0886
24804W        W41278   7.008   0.511  15.739  0.0280  0.3017 -0.1042
24805W        W41279   0.695   2.933   4.035 -0.1572 -0.3905  0.1242
24806W        W41280  12.666   2.604  13.478  0.1150  0.0812 -0.1688
24807W        W41281   0.561  10.301   3.695  0.3836 -0.0186 -0.0167
24808W        W41282   0.264  16.762   2.809  0.0341  0.2882 -0.3903
24809W        W41283   3.059   7.190  13.250  0.0489  0.0112 -0.1467
24810W        W41284  18.338   8.983   3.218 -0.1312  0.1068  0.0409
24811W        W41285   6.154   7.501   5.375  0.2538 -0.0930  0.1072
24812W        W41286   0.569   8.129  11.182 -0.1924 -0.0611 -0.0381
24813W        W41287  12.059   0.076  15.288 -0.0764  0.3507 -0.2542
24814W        W41288  14.647  18.252  15.678 -0.0591 -0.1829 -0.0418
24815W        W41289   8.529  14.791  13.738  0.2292 -0.1102 -0.1715
24816W        W41290   3.942  13.447  14.825  0.3519 -0.0678  0.2989
24817W        W41291   9.127   9.924  13.891 -0.3630  0.0849  0.1165
24818W        W41292  11.675   1.083   4.529  0.0407  0.1847 -0.0752
24819W        W41293  14.138  12.395   0.653  0.5297 -0.1264 -0.3588
24820W        W41294  13.316   8.782  14.077  0.0979 -0.2226 -0.0358
24821W        W41295   9.227  16.057   5.774 -0.0820 -0.0929 -0.0446
24822W        W41296  18.135   8.424   0.098 -0.2245 -0.1950 -0.1234
24823W        W41297   8.823  15.130   1.398 -0.1668  0.0442  0.0349
24824W        W41298   8.322  18.170  12.155 -0.0048 -0.0020  0.0154
24825W        W41299   1.432   6.286  15.083 -0.1511 -0.0549 -0.2449
24826W        W41300  10.569  13.722  12.154  0.0894 -0.0315  0.1415
24827W        W41301  12.747   5.852   3.581 -0.1065 -0.0119  0.2006
24828W        W41302  17.653  13.499   4.326 -0.0555 -0.2714 -0.4188
24829W        W41303   0.470  17.062   0.108 -0.0089  0.0843 -0.1474
24830W        W41304  12.913  17.803   4.287  0.1541 -0.1165  0.0003
24831W        W41305  17.072  12.218   0.797 -0.3772 -0.0660  0.2295
24832W        W41306   0.577   1.465  10.048  0.2445  0.2644 -0.1489
24833W        W41307  13.303   3.135  11.486  0.3299 -0.1344  0.0632
24834W        W41308  12.977  18.084  12.831  0.1066 -0.0088  0.0318
24835W        W41309   8.700  15.174   4.122  0.2202  0.1694 -0.0456
24836W        W41310  10.587   2.079  13.503 -0.0933 -0.1203 -0.1097
24837W        W41311  10.928   5.635   4.934  0.0730  0.0315  0.0690
24838W        W41312  11.993  16.894   1.809 -0.3146  0.1656 -0.0864
24839W        W41313   4.849   6.521   2.690 -0.0748  0.1451  0.0104
24840W        W41314   4.667   5.900  13.843 -0.1320  0.1509 -0.0223
24841W        W41315   5.581  15.634   4.908 -0.3969 -0.1569  0.0462
24842W        W41316  12.769  15.918  11.348 -0.3648 -0.0446  0.1497
24843W        W41317  17.722   3.122   1.125 -0.0504 -0.0735  0.2207
24844W        W41318   5.237   7.087  15.646  0.0712  0.1643  0.2161
24845W        W41319  10.687   4.776   1.255 -0.1044 -0.0871  0.4507
24846W        W41320   7.449   8.991   3.127 -0.0305 -0.0241 -0.0143
24847W        W41321  18.335  10.271   0.838  0.0596  0.2057 -0.0223
24848W        W41322  14.772   6.519   1.360 -0.0096  0.0385  0.0753
24849W        W41323  16.786   6.445  15.451 -0.3045  0.2121 -0.0560
24850W        W41324  15.141   0.096   1.229 -0.2259 -0.0183 -0.1721
24851W        W41325   4.713  11.613   3.400 -0.0613 -0.0456  0.0382
24852W        W41326  12.934  10.012   0.332 -0.0338 -0.0552 -0.0838
24853W        W41327  14.319  15.850   3.371 -0.1364 -0.0328  0.0204
24854W        W41328   8.614  17.401  11.507 -0.1388 -0.0981  0.0317
24855W        W41329   8.462   7.452  14.112 -0.1249 -0.0774  0.1953
24856W        W41330   6.324   4.910   5.024  0.1717 -0.0464  0.0511
24857W        W41331  13.819   1.913  13.653 -0.2833 -0.0077 -0.1281
24858W        W41332   7.751   6.316  13.038 -0.0704 -0.1468  0.0331
24859W        W41333   0.169   7.627   0.511  0.0094  0.2045 -0.0844
24860W        W41334   2.633   6.374   1.519 -0.3160 -0.2342 -0.0383
24861W        W41335  15.167   6.352  15.909  0.0088  0.2337  0.2284
24862W        W41336  17.035  10.858   5.313 -0.1450 -0.3554 -0.1675
24863W        W41337  12.987  12.940  15.272  0.2733  0.1953 -0.1224
24864W        W41338  14.009  12.581   4.829  0.1750  0.0347  0.1418
24865W        W41339  10.613   9.170   2.066 -0.0447  0.0732 -0.0935
24866W        W41340   2.176   6.123   1.604  0.2725 -0.1005 -0.0603
24867W        W41341   3.112  11.320  14.719  0.1268 -0.2272 -0.3124
24868W        W41342  14.284  16.252   0.711 -0.0017  0.0823  0.1321
24869W        W41343  12.529   2.053   0.029 -0.1777 -0.3412 -0.1693
24870W        W41344  17.619   4.841  13.915  0.1466 -0.1477  0.0066
24871W        W41345   6.382   8.343   3.466  0.1272 -0.0539 -0.2468
24872W        W41346   4.271   2.756   4.294  0.0452 -0.0519 -0.1034
24873W        W41347   5.283   9.708  15.112  0.0668 -0.0583 -0.2856
24874W        W41348  12.693   0.183  14.016 -0.0896 -0.0426  0.2151
24875W        W41349   1.183  13.216   0.397 -0.0751  0.1346  0.2463
24876W        W41350   3.722   6.517  10.297  0.1135  0.0727  0.0067
24877W        W41351   0.573   3.329   1.172 -0.1956 -0.1344  0.0258
24878W        W41352   3.463   0.351   2.721  0.3478  0.1346 -0.0187
24879W        W41353   4.720   8.994   2.022 -0.0181  0.0677  0.2559
24880W        W41354  14.143   6.006   3.614 -0.0500 -0.3639  0.0547
24881W        W41355  11.110  13.893   3.809 -0.0266  0.0239  0.0415
24882W        W41356   6.841  11.409  13.721  0.2858 -0.3355  0.1767
24883W        W41357  12.145  13.203   0.356  0.1625 -0.3761 -0.0038
24884W        W41358  16.097  12.091  11.806 -0.1397  0.2041  0.4115
24885W        W41359   0.039  16.401  11.319  0.2531  0.1714  0.0359
24886W        W41360   4.367   2.616  11.431 -0.1094  0.0588 -0.2555
24887W        W41361  11.881  17.733  12.789  0.3871  0.0370 -0.0221
24888W        W41362   6.389   6.955  12.379  0.1070 -0.0277 -0.1672
24889W        W41363  11.199   7.693  11.882 -0.0048 -0.0731  0.2337
24890W        W41364   9.094  18.114   9.866 -0.2560 -0.0052  0.1227
24891W        W41365   8.213  15.789  15.944  0.0419  0.1604  0.2264
24892W        W41366   7.724  17.903   1.569  0.1552  0.0839  0.0916
24893W        W41367   7.837   6.989   4.318  0.0166  0.3496  0.1276
24894W        W41368  13.436  12.105  12.797 -0.1500  0.1534 -0.1445
24895W        W41369  16.359  11.284  14.998 -0.1350  0.0353  0.2164
24896W        W41370  11.795   8.901   4.866 -0.0575 -0.0968 -0.0837
24897W        W41371   5.387   5.639  11.982  0.2034  0.0275 -0.1449
24898W        W41372   1.731  16.269  13.714 -0.1429 -0.3210  0.1075
24899W        W41373   3.989  14.543  13.479 -0.4641  0.0934  0.0715
24900W        W41374   9.955  17.570   4.354  0.2556 -0.1360 -0.1247
24901W        W41375   1.323   4.176   4.745  0.1030 -0.2604  0.1058
24902W        W41376   1.137   1.962   4.277  0.0313  0.2874  0.0072
24903W        W41377   4.694   1.925  14.557 -0.0488 -0.0912 -0.1172
24904W        W41378  14.237   8.757  12.153 -0.1523 -0.3317 -0.3222
24905W        W41379   5.252   0.460  12.025  0.2495  0.0300  0.1773
24906W        W41380  13.427   3.003   1.634  0.3389  0.0472 -0.1587
24907W        W41381   2.978  18.275   0.460 -0.0033 -0.2213 -0.0811
24908W        W41382   5.839  16.474   3.802 -0.0200  0.3249 -0.0022
24909W        W41383   8.388   2.344  10.478 -0.1381 -0.0012 -0.2721
24910W        W41384   1.208  13.409   2.104  0.1953 -0.1538 -0.0385
24911W        W41385  10.741  18.115   3.739 -0.3285 -0.2460 -0.0581
24912W        W41386  16.422   7.354   0.589  0.1850 -0.2802 -0.1713
24913W        W41387   6.568   3.643  13.498 -0.3589  0.1474  0.1205
24914W        W41388  17.599  14.703   0.086  0.1760  0.3472 -0.3255
24915W        W41389   7.617   2.143  12.806 -0.4796  0.0118  0.1648
24916W        W41390  12.754   8.204  13.587 -0.2455  0.0393 -0.3526
24917W        W41391   0.850   0.356  13.390  0.1948 -0.0998  0.0806
24918W        W41392  18.192  11.132   4.434 -0.1105  0.1120 -0.0432
24919W        W41393  12.207   4.664   5.675  0.0969  0.2305 -0.0112
24920W        W41394  17.271  10.424   2.609  0.3267  0.2203  0.0294
24921W        W41395   9.462  17.879  10.681 -0.1236 -0.0346 -0.3301
24922W        W41396   2.583   2.682   4.348  0.0429  0.0069 -0.3976
24923W        W41397   1.398   7.193   3.509  0.1432 -0.0796 -0.0480
24924W        W41398   8.415  13.543  11.100 -0.0312  0.0607 -0.0651
24925W        W41399   7.918  10.576   4.823  0.1207 -0.0864 -0.1338
24926W        W41400   1.744   9.423  15.182 -0.2168 -0.0199 -0.2643
24927W        W41401   3.282  15.577   4.353  0.1445 -0.1733  0.0773
24928W        W41402  10.167   7.070  13.590  0.1522  0.2621 -0.0190
24929W        W41403   2.407  11.754   0.542 -0.3438 -0.1846  0.1123
24930W        W41404  17.440  17.893  11.401  0.0390 -0.1095  0.1592
24931W        W41405   1.449   1.969  11.140 -0.1232 -0.0781  0.1835
24932W        W41406  12.038   0.828   1.502  0.1908 -0.0369  0.0463
24933W        W41407   0.708   2.481   1.559  0.0087 -0.0016  0.2043
24934W        W41408   2.694  14.034  14.866  0.0072  0.2254  0.0065
24935W        W41409  15.587  11.509   1.313 -0.0770  0.3276  0.1147
24936W        W41410  17.427  15.004   2.028  0.1253 -0.1362 -0.0589
24937W        W41411  14.736   0.612  11.644  0.0349 -0.2052 -0.0839
24938W        W41412  10.660   6.344   1.692  0.1220 -0.0642 -0.1999
24939W        W41413   4.267  16.334   1.329  0.1222 -0.2210 -0.1047
24940W        W41414   8.738   6.631  15.549 -0.0182  0.1725 -0.1201
24941W        W41415  10.370   4.304   5.200  0.0044  0.2141  0.0414
24942W        W41416   2.175  12.629  15.805  0.0800 -0.2813 -0.1077
24943W        W41417   2.486   7.809  13.970  0.1115  0.0293  0.1401
24944W        W41418   8.212   2.579  13.366  0.0367  0.0925 -0.0844
24945W        W41419   0.087  12.490  14.858 -0.3493  0.0241 -0.2590
24946W        W41420  17.023  18.255  15.007 -0.0060  0.0921 -0.1015
24947W        W41421  11.819   1.976   2.890 -0.0524 -0.0918  0.1993
24948W        W41422  18.035   8.561  15.176  0.0061 -0.1306 -0.1351
24949W        W41423   2.773   9.937  12.330  0.0095  0.1481 -0.1594
24950W        W41424   9.281   3.142   2.032  0.1017 -0.2095 -0.3132
24951W        W41425   3.244  15.125  14.673  0.1539  0.3412 -0.0917
24952W        W41426   8.066   8.805  15.193 -0.0556  0.0845 -0.3882
24953W        W41427  13.919   4.530  15.812 -0.4180  0.3662  0.1966
24954W        W41428   9.156  16.299   5.272  0.0796  0.0884 -0.1840
24955W        W41429   4.889   2.304  12.785 -0.1189 -0.0019  0.0281
24956W        W41430   7.085   6.627   1.446 -0.0081 -0.0184 -0.0592
24957W        W41431  16.922   5.628   4.790  0.1348 -0.2728  0.5987
24958W        W41432   5.712  11.503   1.666  0.3975  0.1768 -0.0959
24959W        W41433   0.154   0.622  13.211 -0.4749  0.0129 -0.0819
24960W        W41434   6.489  17.484  13.060  0.1369  0.0642 -0.0664
24961W        W41435  16.986  13.018   4.701 -0.0906  0.1762  0.1404
24962W        W41436   1.850   9.314  13.807  0.3699  0.0928  0.0702
24963W        W41437   1.217  11.398  11.406 -0.0638 -0.2891 -0.3943
24964W        W41438   9.171   0.612  15.162 -0.0403  0.0034  0.1773
24965W        W41439  14.990  16.233  14.548 -0.1525 -0.2049 -0.1810
24966W        W41440   9.380  10.327  13.513  0.2772  0.2197  0.1564
24967W        W41441   5.850   2.931  13.607 -0.0326  0.0906 -0.0693
24968W        W41442  10.036  12.911   5.492  0.1197  0.0123  0.1835
24969W        W41443  10.171  14.631   2.311 -0.1986  0.1194 -0.4009
24970W        W41444  12.466   2.336   5.489 -0.1274 -0.2013 -0.0988
24971W        W41445  12.238  10.341   2.847  0.0135 -0.0224 -0.0748
24972W        W41446  13.285  11.294  11.475 -0.1078 -0.1014  0.0265
24973W        W41447   9.976   6.580  14.045  0.0465  0.1676  0.0273
24974W        W41448  17.649   6.851  14.696  0.1391 -0.0557 -0.2839
24975W        W41449   6.750  14.776  13.700 -0.2986 -0.2079  0.4031
24976W        W41450   7.127  10.432  12.531  0.3403  0.1409 -0.0166
24977W        W41451  15.525   9.961   5.381  0.0897 -0.0054 -0.1379
24978W        W41452   7.175  16.515  13.659  0.0092  0.1656 -0.3456
24979W        W41453   5.931   8.421   0.030  0.0023  0.1177 -0.1485
24980W        W41454   4.252   1.825   3.592 -0.1459  0.0708  0.2248
24981W        W41455  18.108  10.184  11.717  0.0110  0.2635  0.0061
24982W        W41456  16.162   7.889  12.025 -0.0438  0.0226  0.0649
24983W        W41457   9.897  15.864   3.856 -0.2061 -0.2860 -0.0590
24984W        W41458  11.112  14.467   2.665  0.1805  0.1678  0.1176
24985W        W41459   8.981  13.624   5.134 -0.1123 -0.1792  0.1035
24986W        W41460   2.302   1.312  15.818  0.1493  0.0182 -0.1890
24987W        W41461  11.632   5.545  14.234 -0.0197 -0.1199 -0.0914
24988W        W41462   8.355  13.634  15.273  0.3616 -0.2165 -0.0780
24989W        W41463  12.211   1.156  15.547 -0.1270 -0.2339 -0.1449
24990W        W41464  11.072   8.719   5.569 -0.0703  0.0725 -0.0598
24991W        W41465   0.162  14.839  11.842  0.1603 -0.1724 -0.1903
24992W        W41466   6.697   6.543  11.157 -0.1580  0.2242  0.1693
24993W        W41467   3.395   6.376   1.447 -0.0199  0.0855  0.0045
24994W        W41468  13.293   4.094  11.001  0.1685 -0.1358  0.1293
24995W        W41469  16.626   3.627   5.275 -0.0236  0.0391  0.2021
24996W        W41470  11.290   9.443   3.494 -0.3808  0.0465 -0.3377
24997W        W41471  12.172   9.789   3.711 -0.0926 -0.2946  0.0502
24998W        W41472  17.166   6.190  12.317  0.0166  0.0733 -0.2397
24999W        W41473  10.343   0.708  13.824 -0.1377 -0.0820 -0.0136
25000W        W41474   2.517   9.703   0.388  0.0290  0.1970 -0.2018
25001W        W41475  12.275   5.401   5.226 -0.2480 -0.1579  0.2820
25002W        W41476   6.897   5.872  11.374 -0.0140 -0.1909 -0.0335
25003W        W41477   7.052   1.218   4.299  0.0975  0.2232 -0.3185
25004W        W41478   7.168   4.015   1.141 -0.0205  0.0957  0.0355
25005W        W41479   5.403  12.925  11.572 -0.2191  0.1321 -0.3145
25006W        W41480  10.338   5.838  11.588 -0.0397  0.2518 -0.0036
25007W        W41481  17.523   6.308  13.446  0.0011  0.1466  0.1609
25008W        W41482   5.703   1.659   3.720 -0.3152 -0.0662 -0.0990
25009W        W41483  13.325  13.015   0.633 -0.3993  0.2017 -0.0572
25010W        W41484  15.367  16.698   1.258 -0.0179 -0.1956 -0.0543
25011W        W41485  17.932   0.401  13.931 -0.0992 -0.4304  0.0176
25012W        W41486  15.051  15.255  15.392 -0.1121  0.2346 -0.1047
25013W        W41487  11.643  13.035   1.434 -0.0810 -0.3723  0.3401
25014W        W41488   7.762   4.736  15.781  0.2083 -0.3369  0.1192
25015W        W41489   9.981  11.309   3.550  0.0674 -0.2859 -0.0780
25016W        W41490  11.418  10.729   4.492  0.3340  0.2051  0.2068
25017W        W41491   3.320  16.287   1.580  0.0651 -0.0708  0.1142
25018W        W41492  11.799   9.324  12.555  0.0695 -0.2876 -0.0012
25019W        W41493  14.420  11.087   3.265 -0.0281 -0.0774  0.1325
25020W        W41494  17.104   4.848   3.841  0.0665 -0.1719  0.2175
25021W        W41495  12.971   8.948   1.535 -0.0427 -0.2860 -0.1606
25022W        W41496   4.147  15.259   3.457 -0.0912 -0.1325  0.1500
25023W        W41497  13.572   0.270   1.369  0.2477 -0.1146  0.2155
25024W        W41498   9.018   1.252  10.525  0.0742 -0.1130 -0.0429
25025W        W41499   8.968   2.494   0.900 -0.1374 -0.0265  0.0505
25026W        W41500   9.770  18.018   2.542  0.0956  0.2904  0.0651
25027W        W41501   3.597  11.991   1.002 -0.1974  0.0889  0.1066
25028W        W41502  15.824   2.516   5.759 -0.1666  0.0528 -0.1346
25029W        W41503  12.725  16.723   1.233  0.0997 -0.0760  0.1967
25030W        W41504  12.392  14.355  14.945 -0.3279 -0.1456 -0.0714
25031W        W41505  15.997  10.674  11.850  0.0381  0.0903 -0.0325
25032W        W41506   7.115   9.850   5.842  0.4442 -0.0063  0.0987
25033W        W41507  16.066  14.958  13.311  0.1385 -0.0011 -0.1256
25034W        W41508  10.884   6.632  12.474  0.1533 -0.2500  0.2086
25035W        W41509   1.237   6.840  10.609  0.0669 -0.2404 -0.0944
25036W        W41510  13.997   1.610   4.582 -0.2167  0.2556  0.2301
25037W        W41511  12.764   2.132   5.092  0.0922  0.3154 -0.3345
25038W        W41512  13.147  10.158  14.733 -0.1005  0.2863  0.1548
25039W        W41513   0.725   1.868  14.322 -0.0392  0.0274 -0.0363
25040W        W41514   4.258  10.473   5.446 -0.1755 -0.3030  0.0785
25041W        W41515  11.976  13.761   4.691  0.0800  0.2985 -0.2541
25042W        W41516   3.750  16.058   3.878 -0.1733 -0.2434  0.1013
25043W        W41517  13.638   5.659  15.687  0.0079 -0.0307 -0.2076
25044W        W41518  12.949   0.231   1.273 -0.1497 -0.0652  0.0602
25045W        W41519   6.198   5.082  13.840 -0.0877 -0.2924  0.0595
25046W        W41520   0.703  16.033   3.248  0.1369  0.3924  0.1004
25047W        W41521   5.752  18.075  11.819  0.1458 -0.0018  0.2318
25048W        W41522   3.802  17.879   0.690 -0.1777  0.1069 -0.1127
25049W        W41523   1.839   8.836   1.363  0.4092  0.0918 -0.3927
25050W        W41524  13.827  11.999   1.622 -0.0587 -0.2265  0.3417
25051W        W41525   4.185   9.634  12.546  0.2482  0.0330 -0.1207
25052W        W41526   7.789   4.346   2.942  0.2062 -0.3356  0.0156
25053W        W41527   4.499   1.383   4.335 -0.1936  0.0316  0.2806
25054W        W41528   1.652   4.173  13.495 -0.0089 -0.1330  0.2752
25055W        W41529   8.054   0.689  13.006  0.2382 -0.0627  0.2663
25056W        W41530   6.336  10.920  10.878 -0.0220 -0.0064  0.3815
25057W        W41531   2.610   1.343   1.154  0.0706 -0.0562  0.0717
25058W        W41532   2.843  12.586   3.938 -0.1922  0.2207 -0.1154
25059W        W41533  11.179   3.553   2.995  0.0177  0.0484 -0.2364
25060W        W41534   0.856   4.247  11.791  0.1167  0.0230 -0.0292
25061W        W41535  13.948  14.459  12.317  0.0088 -0.1931  0.0255
25062W        W41536   8.851   9.175   0.169 -0.0342  0.2566  0.2165
25063W        W41537  11.002   4.533  14.276  0.2217 -0.1298  0.0845
25064W        W41538   5.592  12.626  13.781 -0.2057  0.0437 -0.1784
25065W        W41539  10.008   2.701  13.947  0.1856 -0.1086  0.1259
25066W        W41540   6.220   3.847  11.401 -0.1862 -0.0298  0.0393
25067W        W41541   7.070  15.713   1.220  0.1398 -0.0423  0.1726
25068W        W41542  17.089  15.223  13.444 -0.0906 -0.0428  0.1750
25069W        W41543  11.214  10.247  12.373 -0.2280 -0.2476  0.1590
25070W        W41544   3.512   1.226   0.582  0.0734  0.1051 -0.2149
25071W        W41545  13.934   2.510   2.664 -0.0535  0.1327  0.0259
25072W        W41546  16.044  13.952   4.911  0.1947  0.1144  0.0365
25073W        W41547   2.772   7.696   5.186  0.0450 -0.1372 -0.1769
25074W        W41548   6.924   4.678  15.359 -0.0940  0.0015 -0.1260
25075W        W41549  13.542   1.516   5.048  0.1584 -0.0126 -0.0248
25076W        W41550  17.803   0.946  11.317 -0.1887  0.2604  0.0388
25077W        W41551   7.068  16.327   3.454 -0.0279 -0.2858 -0.1296
25078W        W41552  12.859   8.186   2.823  0.1751  0.3193 -0.3660
25079W        W41553   7.597   8.664   3.801 -0.1059  0.2607 -0.0959
25080W        W41554  15.422  17.757   1.360  0.0025 -0.1952  0.0802
25081W        W41555   1.398   1.182   4.105  0.0450  0.1515 -0.0679
25082W        W41556   0.670   1.524  14.688  0.0803 -0.1537 -0.0245
25083W        W41557   3.914  12.845   4.812 -0.1009 -0.1816  0.1546
25084W        W41558  13.946  10.773   0.036  0.0364 -0.2536 -0.0027
25085W        W41559   5.631  15.286  12.560 -0.1158  0.1465 -0.2044
25086W        W41560   7.908   7.602   3.415  0.0400 -0.1634  0.0961
25087W        W41561   2.547  11.975   0.037  0.1335 -0.1174  0.1089
25088W        W41562  16.540   5.327   4.186  0.1023 -0.0111 -0.3337
25089W        W41563   8.039   4.505   0.601  0.2186  0.1112  0.3356
25090W        W41564   3.013  14.883  11.365 -0.1593 -0.0408  0.0518
25091W        W41565   9.362  10.415   3.336  0.2755 -0.1114  0.2331
25092W        W41566  10.293  16.278   1.110 -0.0033 -0.2822 -0.2456
25093W        W41567  15.575   5.761  12.244 -0.1044 -0.0921  0.0571
25094W        W41568  18.305  15.939  15.741  0.0104 -0.1205  0.1402
25095W        W41569   0.396  10.650  14.295 -0.0596  0.1372  0.0799
25096W        W41570  17.022   0.301   0.064 -0.0369 -0.1496  0.0331
25097W        W41571   7.873   6.551  13.519  0.1084  0.1474 -0.2163
25098W        W41572  11.288  16.353  12.278 -0.0765  0.1709 -0.0225
25099W        W41573   5.825   7.987  15.174  0.3849 -0.0505 -0.3445
25100W        W41574  15.703  15.117  13.737 -0.2524 -0.1282  0.2818
25101W        W41575  10.137  13.155  14.837  0.3871  0.0097 -0.1223
25102W        W41576  15.952   3.920  14.879 -0.2056  0.2112  0.0445
25103W        W41577   5.661  14.018  14.124 -0.0989 -0.5167 -0.1882
25104W        W41578  10.053  15.003   3.230 -0.0261  0.0558 -0.0514
25105W        W41579  11.852   6.723  11.611  0.2282  0.3427  0.0647
25106W        W41580   9.250  14.352  11.987 -0.1380 -0.1567  0.2372
25107W        W41581  12.777  18.113  12.327  0.1226 -0.0834 -0.1158
25108W        W41582   8.319  11.854   0.919 -0.0825  0.0424 -0.4517
25109W        W41583   8.783  11.591  13.454  0.0905 -0.2846  0.2227
25110W        W41584  16.057  12.204  13.645  0.1705  0.2324  0.3059
25111W        W41585   0.072   0.016   2.072 -0.0964 -0.3123 -0.1181
25112W        W41586   3.616  17.176   2.505  0.1706 -0.0643 -0.0158
25113W        W41587   6.168   2.209   0.276 -0.1112 -0.2581 -0.1901
25114W        W41588  16.492  12.671  14.713  0.2041 -0.0033 -0.7819
25115W        W41589  16.530  16.873  13.601 -0.2253  0.1896 -0.0778
25116W        W41590  17.171   4.549  15.816 -0.2267 -0.1817 -0.1220
25117W        W41591  14.920   0.161   3.808 -0.0878 -0.0605  0.1534
25118W        W41592   3.034  18.073   1.706 -0.0106 -0.2635 -0.1859
25119W        W41593  10.885  10.599   0.248  0.0091  0.1208  0.4531
25120W        W41594  15.426  17.204   5.105 -0.0353  0.0284  0.1670
25121W        W41595   0.408   4.828   2.494  0.0530  0.2966 -0.0122
25122W        W41596  13.664   1.244  12.677  0.1497 -0.1490 -0.1741
25123W        W41597   3.159   1.005   2.055 -0.0420 -0.0175 -0.1594
25124W        W41598  11.328   9.665   2.598  0.2472  0.0211 -0.1299
25125W        W41599   5.407   1.653  11.298  0.2268  0.0290 -0.2634
25126W        W41600   8.775  14.425  11.868 -0.0250 -0.0460 -0.2451
25127W        W41601   4.292   0.972  10.924  0.0058  0.2991 -0.3138
25128W        W41602   5.144   9.930   1.032 -0.0292  0.1691  0.0387
25129W        W41603   3.040   8.727  15.467 -0.1874  0.1438  0.0608
25130W        W41604   5.531  16.994  14.480 -0.0502 -0.2431  0.3186
25131W        W41605   8.713  16.578   3.068 -0.4102 -0.1684  0.1468
25132W        W41606  12.872   0.120   0.392 -0.4640  0.1755 -0.2053
25133W        W41607   7.084  12.225   0.939  0.0441 -0.1644 -0.1735
25134W        W41608   7.979  10.041  15.701 -0.0954  0.0115  0.3312
25135W        W41609   0.763  15.155   5.035 -0.2224  0.0644  0.2425
25136W        W41610  16.547   6.058   2.140 -0.2322  0.1325  0.1482
25137W        W41611   9.316   9.456   0.340 -0.0621  0.1930  0.4791
25138W        W41612   8.129  10.091  13.406  0.0236  0.0736 -0.3818
25139W        W41613  13.110  16.714   4.270 -0.0684  0.3542 -0.0902
25140W        W41614   5.527  16.131   0.425  0.2611  0.0011 -0.1346
25141W        W41615  17.031  18.267  12.382 -0.1483  0.2028  0.2415
25142W        W41616   5.524  12.284  12.235 -0.1690  0.0657 -0.0791
25143W        W41617   8.127  16.416  14.796  0.2994 -0.3176  0.0445
25144W        W41618   7.997   6.239   1.279 -0.0893  0.1250  0.0433
25145W        W41619   0.923   4.650  15.651  0.1910 -0.0318 -0.1712
25146W        W41620   2.011  15.390   2.763 -0.3570  0.0236  0.0479
25147W        W41621  18.462  18.465  14.394  0.0572  0.1303  0.4358
25148W        W41622   1.486   3.080  13.296  0.0537 -0.0889 -0.3851
25149W        W41623  12.360   6.138  12.827 -0.5343 -0.2980  0.2353
25150W        W41624   2.491  10.586  13.320  0.5187  0.1125  0.3473
25151W        W41625   3.625  12.083   6.087  0.2991 -0.0360  0.2859
25152W        W41626   3.114   1.605  11.463 -0.4628  0.1080 -0.0908
25153W        W41627  14.134  16.647  12.919  0.0599  0.1940  0.2254
25154W        W41628   2.953   6.672  13.980  0.0668  0.1507  0.1881
25155W        W41629   8.075  14.435   2.266  0.0114 -0.1906 -0.1540
25156W        W41630   5.811  11.499  12.711 -0.2441  0.0068 -0.0037
25157W        W41631   0.705   7.703  13.315 -0.1572 -0.0552 -0.1502
25158W        W41632   4.943  17.079   4.017 -0.2761 -0.1027  0.0945
25159W        W41633   3.084  10.587   4.101 -0.0114  0.0941  0.0203
25160W        W41634   4.407   8.794  11.391  0.0406 -0.1501 -0.1866
25161W        W41635   0.888  16.955   3.327 -0.0299 -0.0700  0.1711
25162W        W41636  12.593  17.560  15.345 -0.0404 -0.0819  0.0405
25163W        W41637   7.987   9.022  15.742 -0.1722  0.0089  0.0494
25164W        W41638   4.679   3.760  14.717  0.2469 -0.1760 -0.0198
25165W        W41639   4.160  13.882   3.674  0.1544  0.0259 -0.2346
25166W        W41640   8.038  14.890   0.649 -0.0006 -0.1806 -0.2033
25167W        W41641  16.124   5.134  11.778  0.2497  0.0234 -0.1703
25168W        W41642   1.641   1.741   0.933  0.0207 -0.0275 -0.1486
25169W        W41643  17.046   0.908   5.252 -0.1232 -0.3539 -0.0168
25170W        W41644  13.478  17.299  12.583  0.1558  0.2753 -0.1031
25171W        W41645   9.367   1.883   3.925  0.0269  0.0320  0.1518
25172W        W41646   8.618   0.388   1.875 -0.1253 -0.1184 -0.2473
25173W        W41647   1.163  15.219   4.786  0.0296  0.0688 -0.1018
25174W        W41648  13.492  16.387  12.412  0.1066 -0.1566  0.0262
25175W        W41649   4.882  13.617   4.679 -0.0593  0.2833 -0.0506
25176W        W41650   2.592   2.702   3.779 -0.1463  0.0026 -0.1368
25177W        W41651   8.349   2.741   5.114 -0.1641 -0.1567 -0.1047
25178W        W41652  13.691  14.602   3.400 -0.2280 -0.3124 -0.1707
25179W        W41653   7.292  16.471  12.874 -0.0831  0.0574 -0.0736
25180W        W41654  12.426   9.454   5.380  0.0631 -0.0438  0.0684
25181W        W41655  18.116  13.154  11.685 -0.0655  0.1675  0.0166
25182W        W41656  14.392  13.931  15.672 -0.1976 -0.2048 -0.1734
25183W        W41657  13.781  10.479   5.252  0.2107 -0.0852 -0.1612
25184W        W41658  17.801   2.118   4.361 -0.0713 -0.3370 -0.0111
25185W        W41659   7.669   7.741  13.710  0.1946  0.0797 -0.0261
25186W        W41660   4.761  10.967   5.560 -0.1731 -0.1958 -0.0252
25187W        W41661  14.098   3.039   2.996 -0.3725  0.2150  0.0746
25188W        W41662  11.513  17.672  13.284  0.2448  0.2805 -0.1469
25189W        W41663  12.659   2.854   5.651 -0.3435  0.2149 -0.0223
25190W        W41664   0.494  18.250   2.563 -0.1306 -0.4527 -0.0090
25191W        W41665  11.463   1.318  13.705 -0.0855  0.0817 -0.3517
25192W        W41666  13.590   9.733  15.472  0.0279 -0.4286 -0.2510
25193W        W41667  15.627   3.171   3.515 -0.1589  0.0951  0.1186
25194W        W41668   5.211  10.224  15.197  0.0018  0.0349 -0.1640
25195W        W41669   4.426   1.174   0.872 -0.1740  0.1611 -0.1180
25196W        W41670  17.326  10.714   2.196 -0.1750 -0.1452 -0.3009
25197W        W41671  13.796   9.895  11.749 -0.1978  0.1705 -0.0431
25198W        W41672   3.085   3.645   1.344 -0.3021  0.0254 -0.0194
25199W        W41673  18.122  13.375   2.082 -0.0446  0.1609  0.2205
25200W        W41674   0.762  15.581   6.019  0.3190 -0.0127 -0.3412
25201W        W41675   7.508   8.371   2.017 -0.0996 -0.0042  0.1255
25202W        W41676  14.091   5.822   2.772  0.0354  0.0420 -0.0700
25203W        W41677   0.322  16.401  12.648 -0.1841  0.1175 -0.0189
25204W        W41678   2.223  15.574  11.082 -0.2327  0.1356 -0.0704
25205W        W41679  15.041  12.647   0.174  0.0878 -0.0498 -0.1492
25206W        W41680  16.348   0.540   1.157 -0.1809  0.2198 -0.0192
25207W        W41681   4.409  10.778   2.597  0.1843 -0.0101 -0.2984
25208W        W41682  13.162   8.209   4.037 -0.2539 -0.0289  0.1879
25209W        W41683   1.080   9.963  12.258 -0.2720 -0.3645 -0.0955
25210W        W41684   3.447  17.583  12.229  0.0050  0.2692 -0.0790
25211W        W41685  17.939   8.479  13.136 -0.0406  0.1364 -0.2920
25212W        W41686  14.893   2.299   0.915  0.1651 -0.2273  0.0377
25213W        W41687  10.770   7.701  13.988  0.0494  0.1017  0.1312
25214W        W41688   2.785   0.106   3.989  0.1182 -0.0297  0.1822
25215W        W41689   9.482  10.435  10.446 -0.1907  0.0968  0.0100
25216W        W41690   4.443   3.944  12.485 -0.2390 -0.2568 -0.0526
25217W        W41691  12.706   6.087  14.076 -0.2366  0.0643 -0.1394
25218W        W41692   5.156   2.703  12.904 -0.1210 -0.1393 -0.1101
25219W        W41693   3.702  17.429   2.903  0.1208  0.0205  0.0320
25220W        W41694  14.133   3.850   3.030  0.0741  0.0211  0.0276
25221W        W41695   5.058  14.516   2.917 -0.2748  0.2329 -0.1092
25222W        W41696  15.940   9.094   1.522  0.0351  0.1422 -0.1499
25223W        W41697   6.704   1.333  13.726  0.2453  0.2066 -0.0772
25224W        W41698  12.987  12.655   4.479 -0.3362  0.1020  0.2200
25225W        W41699  10.626  10.048   1.507  0.2636  0.0719 -0.1177
25226W        W41700  14.818  15.711  13.807  0.0691 -0.1321 -0.0520
25227W        W41701   2.320   3.579  12.554  0.2447 -0.1669 -0.0791
25228W        W41702  10.827   1.391   1.929  0.1169 -0.1411 -0.0187
25229W        W41703   8.550  15.921  15.024 -0.1087 -0.2701 -0.1800
25230W        W41704  13.645  17.141   2.891  0.1051 -0.2386 -0.4578
25231W        W41705  17.469  10.268   0.489  0.1957  0.0251  0.0912
25232W        W41706  10.227   2.930   1.858  0.3571 -0.0339  0.1022
25233W        W41707  14.977   7.096  14.296  0.0541 -0.0166 -0.0462
25234W        W41708   2.061   0.793  13.071 -0.1475 -0.0988 -0.0153
25235W        W41709  17.790   3.347  15.744  0.1331  0.0069  0.2690
25236W        W41710   0.188  12.312  13.388 -0.2092 -0.0393 -0.1566
25237W        W41711   3.459   9.470   0.667  0.0404 -0.3006 -0.0226
25238W        W41712  15.952  17.044   2.809 -0.0439  0.1713  0.2336
25239W        W41713  18.175   2.019  15.775 -0.2786 -0.1113 -0.1498
25240W        W41714  11.789   5.126  14.427 -0.0189 -0.4455 -0.0327
25241W        W41715   0.849  16.350   0.588 -0.0801 -0.1729 -0.2196
25242W        W41716  14.936   7.619  14.617 -0.2353 -0.4813 -0.2814
25243W        W41717  14.673  12.528  14.834  0.0446  0.1375 -0.1218
25244W        W41718   7.499   2.014   4.716  0.0518 -0.0847  0.0552
25245W        W41719   1.114  10.002  11.752 -0.6648 -0.0410  0.1323
25246W        W41720   9.617   1.816   4.360  0.0187  0.3006 -0.1790
25247W        W41721  10.388   4.536  15.631 -0.3310 -0.1641 -0.1215
25248W        W41722   8.009  12.663   2.379 -0.0003 -0.0322  0.0269
25249W        W41723  12.105   5.381  15.520  0.0839 -0.3768  0.4402
25250W        W41724  17.736  10.841   4.808 -0.1734 -0.0064  0.0361
25251W        W41725  14.263   3.951   3.917  0.1085  0.0374 -0.1329
25252W        W41726  12.391   2.779   3.922  0.3941 -0.0357 -0.1140
25253W        W41727  13.728   2.001   2.299 -0.1723 -0.0745  0.0023
25254W        W41728  15.788   8.828  11.208  0.1160  0.2208 -0.1280
25255W        W41729  16.843   9.184   3.715 -0.2692  0.2006 -0.0094
25256W        W41730   6.385   9.897  11.661 -0.2855  0.3469  0.0423
25257W        W41731   6.131   4.287  15.394 -0.0903 -0.0784 -0.0739
25258W        W41732  17.510  17.219  13.371 -0.2522  0.0698 -0.0462
25259W        W41733  16.037   4.733  11.372 -0.0289  0.1180  0.0821
25260W        W41734   0.031  15.533  13.772  0.0018  0.2374 -0.1181
25261W        W41735  13.750   3.360  13.393  0.0468  0.0560 -0.2011
25262W        W41736   9.444  17.145  15.284 -0.1006  0.2284  0.1066
25263W        W41737   6.112  17.550   0.650 -0.2271 -0.1683 -0.0959
25264W        W41738   3.646   3.969   5.124 -0.0157  0.1309  0.1345
25265W        W41739   2.822  13.915  14.030 -0.0057 -0.0481 -0.0317
25266W        W41740   8.199  13.358   0.066 -0.0999 -0.4598 -0.0191
25267W        W41741  17.451  13.787  13.055 -0.1005 -0.2299 -0.1119
25268W        W41742   6.703   9.819   0.085  0.1309 -0.2535  0.0546
25269W        W41743   2.688   9.887  14.700 -0.0792 -0.1243 -0.0500
25270W        W41744   2.214   7.386  13.871 -0.0513  0.1623 -0.2036
25271W        W41745   3.966   7.067   1.070  0.2508 -0.1157 -0.0784
25272W        W41746   9.826   9.804  12.188 -0.2904  0.1678 -0.4415
25273W        W41747  11.448   7.727   2.594 -0.0478  0.4721  0.2404
25274W        W41748   0.689  10.258  12.438  0.0209 -0.1054  0.0421
25275W        W41749  14.045   7.794   0.295  0.1178  0.0931  0.0086
25276W        W41750   4.706   7.710  13.386  0.0961  0.1051  0.0337
25277W        W41751   7.250  10.590  13.032 -0.0325  0.2540  0.0805
25278W        W41752  14.902   0.534   4.511 -0.1568  0.2813 -0.1099
25279W        W41753   1.798   1.423  13.205  0.0788 -0.0352  0.0571
25280W        W41754  13.423  10.728   1.649 -0.0581 -0.0981  0.1333
25281W        W41755   8.799  11.826   2.570 -0.1230 -0.1532 -0.1469
25282W        W41756  17.070   0.281  12.503  0.1714 -0.1260 -0.0383
25283W        W41757  12.786   1.785   4.389 -0.2241  0.1805  0.1873
25284W        W41758  10.292   3.410   1.730 -0.0108  0.4152 -0.1823
25285W        W41759  11.609  10.640   3.546 -0.1658  0.1015 -0.2078
25286W        W41760   6.701  13.876  11.979 -0.2109 -0.2166 -0.0920
25287W        W41761  17.286   4.007   0.266 -0.2185  0.4141  0.2989
25288W        W41762   6.900   7.823  14.391 -0.0711  0.2013 -0.1383
25289W        W41763  15.930  13.650  12.131 -0.1097 -0.3696 -0.1291
25290W        W41764   4.326  13.563   2.874  0.0544  0.1768 -0.1094
25291W        W41765  13.994   8.744   4.730  0.0928  0.2336 -0.1008
25292W        W41766   1.741   0.313  14.795 -0.1408  0.0568 -0.1013
25293W        W41767   6.791  13.443   3.136 -0.0575 -0.1504  0.0950
25294W        W41768   5.592  17.085  12.746  0.1652  0.0070  0.2785
25295W        W41769   2.580   8.372  13.162  0.1192  0.1155 -0.0674
25296W        W41770  11.134   8.364   2.598 -0.0632  0.0005  0.0393
25297W        W41771   3.106   4.957   4.898  0.1732 -0.1477  0.6452
25298W        W41772   3.091   7.557   2.074  0.0579  0.0805  0.2995
25299W        W41773  16.524   2.812   6.063  0.3163 -0.0270  0.0313
25300W        W41774   1.401   7.229   1.861  0.2543 -0.1745 -0.3504
25301W        W41775  12.154   9.504   1.019 -0.3706 -0.1066  0.2328
25302W        W41776   8.035   6.090  12.314 -0.1159  0.3697  0.1283
25303W        W41777  13.425   3.571  11.316 -0.7320 -0.2176 -0.0849
25304W        W41778  14.782   4.047  12.736 -0.0723  0.0531  0.0756
25305W        W41779   6.703   2.643   0.019  0.0828  0.0714  0.1358
25306W        W41780   6.781   9.357  12.707  0.2862 -0.0502  0.4512
25307W        W41781  15.216  15.016   5.360  0.0413  0.1406  0.2161
25308W        W41782  10.731   2.515  13.141  0.1267  0.1524 -0.1315
25309W        W41783   7.096   5.775  13.213  0.0899  0.1428 -0.1727
25310W        W41784  18.139   2.725   1.106  0.5275 -0.1701  0.0960
25311W        W41785   7.012   0.724  14.929  0.0134 -0.0477 -0.2036
25312W        W41786  13.078   3.800   2.821  0.1757 -0.1543  0.0879
25313W        W41787  10.458  15.372  13.978 -0.1657 -0.1612  0.1468
25314W        W41788   2.763  10.567   3.218  0.0351 -0.0100 -0.2961
25315W        W41789   1.356   4.017   0.663  0.0176  0.1171  0.0039
25316W        W41790   3.133   5.988   4.196  0.2549  0.1637  0.2873
25317W        W41791   2.605   6.404  12.358  0.0432 -0.2715 -0.7114
25318W        W41792  17.653  10.284   5.529 -0.0274  0.0542 -0.0107
25319W        W41793   4.810   7.024  11.029  0.0640  0.0526  0.1074
25320W        W41794   4.033  10.478  12.978  0.1575 -0.0782  0.0206
25321W        W41795  17.638   2.801   2.269 -0.1170 -0.0278  0.0092
25322W        W41796   4.928   1.714  11.137 -0.2193  0.1386 -0.0097
25323W        W41797   8.238   6.915  14.831 -0.1211 -0.1518  0.2485
25324W        W41798   0.664  11.512   2.422 -0.0106  0.0807 -0.1605
25325W        W41799   2.150  15.449  11.572 -0.0808 -0.1669 -0.2177
25326W        W41800  18.031   0.570   5.879  0.0238  0.3012 -0.0002
25327W        W41801   6.143  12.613   2.280  0.0991 -0.1838 -0.3384
25328W        W41802  14.497  16.578  13.816 -0.1747  0.1426 -0.3054
25329W        W41803   4.063  12.170   1.078  0.1467 -0.2402  0.1376
25330W        W41804  17.590   8.055   4.157 -0.1762  0.0133 -0.3708
25331W        W41805  11.544   2.498  15.654  0.0468  0.3240  0.0506
25332W        W41806   2.529  14.861  14.376 -0.2830  0.2025 -0.0017
25333W        W41807  12.069  15.557  11.949 -0.0132  0.1172  0.0867
25334W        W41808   2.697   3.189   3.843 -0.1630  0.3519  0.0429
25335W        W41809   0.240  12.869   0.455 -0.0722 -0.0040  0.0322
25336W        W41810  14.499  13.501   5.567 -0.0676 -0.1264 -0.0292
25337W        W41811  14.137  12.369   5.322  0.1886 -0.1731  0.0769
25338W        W41812  10.271  16.678  10.719  0.0335  0.1916  0.0290
25339W        W41813   7.388   1.773   2.150  0.2977  0.3431  0.0578
25340W        W41814  11.438   7.915   5.141 -0.0366  0.1517  0.1904
25341W        W41815   9.985  11.611  13.307 -0.0345  0.2781  0.0004
25342W        W41816   2.663   2.205   4.208  0.1496 -0.2991  0.1614
25343W        W41817   4.274   3.568   0.968  0.0199 -0.1995 -0.1270
25344W        W41818  10.461  12.671   1.478 -0.2401  0.2627 -0.0805
25345W        W41819   5.193  17.433  14.447 -0.1722  0.0341 -0.3045
25346W        W41820  12.900  14.483  14.013  0.2547 -0.1528 -0.4112
25347W        W41821  10.626   1.216  12.391 -0.2057 -0.1771 -0.1717
25348W        W41822   3.554   7.256   2.195 -0.2785 -0.1268  0.0229
25349W        W41823   4.231  14.768   5.185 -0.1461 -0.0112  0.2650
25350W        W41824   4.704  13.832   4.242  0.0141  0.1149 -0.2444
25351W        W41825   2.878  14.552   0.643 -0.1837 -0.5377  0.2181
25352W        W41826   6.930  10.566  13.894 -0.2283  0.1463 -0.0941
25353W        W41827   6.590  15.087  11.021 -0.0827  0.0947 -0.0508
25354W        W41828   9.945  15.374  13.716 -0.1425  0.0711  0.0145
25355W        W41829  13.233  12.505   0.601  0.1762 -0.0299 -0.3609
25356W        W41830  13.138   2.461  13.239 -0.0521 -0.1245  0.0598
25357W        W41831  17.503   5.304  12.785 -0.0807  0.0102  0.2811
25358W        W41832   9.844  10.918   1.980 -0.0070  0.2359  0.1040
25359W        W41833   3.323   5.141  12.481 -0.0983  0.1711 -0.2231
25360W        W41834   1.135   0.245  15.071 -0.2423  0.0416 -0.0355
25361W        W41835  10.778  13.043  15.035  0.2973  0.1779  0.0146
25362W        W41836  11.183   9.465   0.850  0.1624  0.0984  0.0965
25363W        W41837  10.984   9.550  11.780  0.1879 -0.2854 -0.1144
25364W        W41838  18.169   7.685   1.354  0.0848  0.4781 -0.4853
25365W        W41839  14.308   1.824   3.381 -0.3316  0.1884  0.2425
25366W        W41840   4.638   9.250  13.747 -0.0169  0.1130 -0.1470
25367W        W41841  10.843   9.630   4.865 -0.3723 -0.0832 -0.0639
25368W        W41842  12.014   5.133   5.583 -0.0069  0.2480 -0.1090
25369W        W41843   6.368   0.840  10.781 -0.0713 -0.2141  0.2216
25370W        W41844  12.036   8.536   1.570 -0.0539  0.2762  0.0686
25371W        W41845   1.256  15.682  13.306  0.1255  0.0075 -0.0331
25372W        W41846   7.561  16.171   3.531  0.0817 -0.3095  0.0543
25373W        W41847   8.719   8.267  13.065  0.2809  0.1327  0.0891
25374W        W41848  14.581  15.534   3.632  0.2144  0.3360  0.2066
25375W        W41849  14.458  12.624  13.696 -0.0371 -0.3973 -0.1073
25376W        W41850  17.284  12.049  12.426 -0.2193  0.0674 -0.1258
25377W        W41851  15.924  17.486  13.977 -0.1145  0.2113  0.2375
25378W        W41852   9.273  14.262  13.814 -0.0812 -0.0840 -0.0955
25379W        W41853   1.534   7.512   4.429 -0.3104  0.2586  0.2385
25380W        W41854  18.039   0.039  12.700 -0.1072  0.1094 -0.0590
25381W        W41855   8.930   6.442  13.295  0.3226 -0.2585 -0.1735
25382W        W41856  11.504   6.700  13.041  0.0576 -0.0236  0.0882
25383W        W41857   5.728  10.263   3.794 -0.2366  0.0805  0.2252
25384W        W41858  15.013   7.808  15.535 -0.2572  0.3527 -0.0497
25385W        W41859   2.698   4.967   0.324 -0.1104  0.2116 -0.0600
25386W        W41860  10.953  16.778   3.828 -0.0042  0.0603  0.0616
25387W        W41861   7.964  15.704  12.958  0.0200  0.0743  0.0616
25388W        W41862  10.416   5.396   0.235  0.0363  0.0081  0.1058
25389W        W41863  12.481  12.907  13.529  0.3245  0.2083 -0.1234
25390W        W41864   4.004  15.780  11.431 -0.0350  0.3082  0.2541
25391W        W41865   0.550  16.136   1.332  0.0384 -0.1260  0.0345
25392W        W41866   9.685   1.443   5.889 -0.1469  0.0451  0.1918
25393W        W41867  10.492  17.904  14.062 -0.1114 -0.1794 -0.0717
25394W        W41868  14.165   0.597  12.799  0.1939  0.0484  0.1914
25395W        W41869  17.530  12.879  12.618  0.0565 -0.4054  0.1393
25396W        W41870   5.569   3.483  15.543  0.0381  0.1495 -0.0466
25397W        W41871   0.008  14.919   2.517  0.1613  0.1903  0.0651
25398W        W41872   0.407   3.485   1.610 -0.0705  0.2706 -0.0713
25399W        W41873   9.380  15.542  10.725 -0.0126 -0.0518 -0.0478
25400W        W41874   1.657   6.864   4.778  0.1596 -0.0810 -0.0133
25401W        W41875   8.905  14.433   3.352 -0.0354  0.0485  0.0167
25402W        W41876  10.458   3.015   4.389 -0.0231  0.1201  0.3327
25403W        W41877   5.463   1.517  12.921 -0.2497 -0.3330 -0.0732
25404W        W41878   2.077   4.897   2.109 -0.0091  0.2211 -0.0267
25405W        W41879   6.769   4.471  12.300 -0.1015  0.1727  0.3680
25406W        W41880  10.067   5.978   0.985 -0.0222  0.0920 -0.0797
25407W        W41881   6.596   6.050  14.983  0.0535 -0.1794 -0.0440
25408W        W41882  17.090  16.159   4.134 -0.2476 -0.1920  0.0642
25409W        W41883   4.131  15.194   2.342 -0.1364 -0.0131 -0.0171
25410W        W41884   2.940   5.608  14.984 -0.0355  0.1216 -0.1319
25411W        W41885  14.557  13.958  14.815  0.2481 -0.1312  0.0490
25412W        W41886   6.113  12.279  12.181  0.0233 -0.3129  0.0224
25413W        W41887  15.303   2.287   1.447  0.1428  0.0758 -0.2203
25414W        W41888  12.447  14.842   4.477 -0.2410  0.0359 -0.0973
25415W        W41889   5.441  12.266  12.952  0.3099  0.2489 -0.1350
25416W        W41890  16.555   9.162  10.838  0.2193  0.1598 -0.1661
25417W        W41891   1.433  12.190  14.461 -0.2660  0.3067 -0.0511
25418W        W41892  14.432  16.271   2.032  0.1089 -0.1942 -0.0193
25419W        W41893  12.350   1.985  11.288 -0.0133  0.0266 -0.1701
25420W        W41894   0.933   3.610  12.595  0.2590 -0.1870 -0.0183
25421W        W41895   1.151   1.542   1.251 -0.1065  0.3526 -0.2528
25422W        W41896  15.230  16.310  12.149 -0.3536  0.3046 -0.1634
25423W        W41897   5.611   5.762   4.574 -0.0527 -0.2269  0.1776
25424W        W41898  12.315   5.339   2.618 -0.4116 -0.1330  0.3704
25425W        W41899  17.914   6.051   2.297 -0.2910 -0.1321 -0.0801
25426W        W41900  13.757   0.919   3.693  0.2008 -0.0074 -0.3294
25427W        W41901   4.872  16.990   3.458  0.2758  0.1032  0.0113
25428W        W41902   5.808   4.440  11.055  0.1087 -0.0676  0.0580
25429W        W41903   2.492   8.712  10.692  0.1307 -0.7394 -0.2463
25430W        W41904   9.306   5.538   3.940  0.0859 -0.1643 -0.3763
25431W        W41905  18.198   3.091  12.157 -0.1320  0.2983  0.2390
25432W        W41906   2.832  17.517  13.395 -0.1221  0.0896 -0.2077
25433W        W41907  16.151   3.735   2.688  0.0655  0.0175  0.0225
25434W        W41908  17.471  12.152   2.127  0.0197 -0.5234 -0.1865
25435W        W41909  12.128   9.038   2.740  0.1679 -0.1025  0.1691
25436W        W41910  12.834  10.090   1.243  0.0236 -0.0455  0.1806
25437W        W41911   1.052   0.115  11.565  0.0317  0.0839  0.0210
25438W        W41912  15.887   9.052   6.040 -0.2292  0.1834 -0.2703
25439W        W41913  11.059  17.976  11.270  0.0579 -0.1404 -0.2198
25440W        W41914  16.183  17.485   5.113 -0.4525  0.0958  0.0672
25441W        W41915  15.457   0.141  11.285 -0.0613 -0.1501  0.6180
25442W        W41916   5.179  14.427  11.517  0.1029 -0.0458 -0.1673
25443W        W41917   2.126  16.485   2.273 -0.0691  0.0849  0.0621
25444W        W41918   4.477  14.808   2.350 -0.1964 -0.1090  0.2352
25445W        W41919   8.475   4.051  10.592 -0.0625 -0.2868 -0.1560
25446W        W41920  12.957  10.034   4.048 -0.0383  0.1518 -0.0319
25447W        W41921   5.169  10.457   0.666 -0.0280  0.1176 -0.2171
25448W        W41922  14.877   3.660  13.192  0.5271 -0.1526 -0.0640
25449W        W41923  11.927   1.907  10.951 -0.1551 -0.0848  0.1254
25450W        W41924   8.365   0.990   0.286 -0.0766 -0.4810  0.0112
25451W        W41925  17.209  13.632   3.743 -0.2790  0.0410 -0.1354
25452W        W41926   2.418   3.911  14.292  0.0903  0.0233 -0.2058
25453W        W41927   6.342  11.717   2.357 -0.0750 -0.1816  0.5984
25454W        W41928   8.325   5.358   4.691  0.1114 -0.3216 -0.0793
25455W        W41929   0.693   0.383  14.182  0.3552 -0.0536  0.0326
25456W        W41930  11.529   8.941  15.270  0.0537  0.4122 -0.1271
25457W        W41931   8.310  17.084   3.042 -0.0187  0.0514 -0.2796
25458W        W41932  15.010  17.839   2.785  0.1294 -0.0988 -0.1035
25459W        W41933   7.714  18.400   4.186 -0.0201 -0.0749  0.2891
25460W        W41934  10.169   2.054  11.121 -0.0387 -0.1053 -0.0158
25461W        W41935   9.804   9.054  14.800  0.1771 -0.1289  0.1932
25462W        W41936   2.003   7.923   5.243 -0.1913  0.0497 -0.0607
25463W        W41937   2.569  17.334   0.293 -0.2255  0.1014  0.3231
25464W        W41938   5.305  16.062   2.128  0.3084  0.4121  0.2612
25465W        W41939   5.254  15.007   0.092  0.2549 -0.1689  0.0303
25466W        W41940   3.493  11.234  12.490 -0.0843 -0.1508  0.1709
25467W        W41941   5.000   1.859  13.305 -0.0859  0.1010  0.1335
25468W        W41942  17.207  11.395  15.708 -0.2095  0.2259 -0.2816
25469W        W41943  15.635  13.434  14.888 -0.0167  0.3479  0.1268
25470W        W41944   5.971   3.918   2.536  0.1485 -0.2258  0.1183
25471W        W41945   2.950  10.207  14.441  0.2808 -0.2061 -0.1836
25472W        W41946   4.766  12.201   4.722 -0.0537  0.1889  0.0409
25473W        W41947  11.390   2.311   4.787  0.0606 -0.0476  0.1032
25474W        W41948  17.984   6.365   1.610  0.0223  0.1065 -0.0615
25475W        W41949   8.750  11.765   3.087 -0.0512  0.0959  0.1661
25476W        W41950  16.904  14.797  15.950  0.0058 -0.0825 -0.3070
25477W        W41951   6.919   0.027  15.850 -0.1117  0.0319 -0.1838
25478W        W41952   4.901   0.777  14.723 -0.2195  0.0527  0.2130
25479W        W41953   7.728  10.058  11.779  0.1823  0.0884  0.0564
25480W        W41954  13.515   4.964   3.797  0.1075 -0.1916  0.0001
25481W        W41955  13.840   9.372  14.302 -0.0431  0.0604  0.0999
25482W        W41956   5.598  18.226  12.735 -0.2644 -0.2989 -0.0065
25483W        W41957   5.728   0.252   1.141 -0.0459  0.2096 -0.1676
25484W        W41958   5.001   2.643  13.735 -0.2032 -0.2869  0.0309
25485W        W41959   8.353  16.915   0.483 -0.2959 -0.0973  0.1873
25486W        W41960   2.367  13.270  13.405  0.1119 -0.2173  0.0274
25487W        W41961  17.202   2.368  12.337 -0.1490 -0.0402 -0.1327
25488W        W41962  10.754  12.911  11.950 -0.0930 -0.2747  0.0100
25489W        W41963   0.576   4.935  14.300 -0.2481  0.1372 -0.0450
25490W        W41964  10.069   5.179  14.834 -0.2038 -0.2110 -0.1377
25491W        W41965  11.668  16.227  14.147 -0.1972  0.1744  0.0906
25492W        W41966  11.613   2.265  10.845 -0.0292  0.1350 -0.1128
25493W        W41967   7.531  18.284  10.941  0.0504 -0.1495 -0.1598
25494W        W41968   1.267   6.014   1.916  0.0896 -0.2386  0.0517
25495W        W41969   9.913   6.277   0.414 -0.0992  0.1337  0.0466
25496W        W41970   6.210   4.732   3.680 -0.0007 -0.1725  0.2514
25497W        W41971  15.977   2.635  15.458  0.0342  0.2293 -0.1609
25498W        W41972  13.081   9.203  13.230 -0.0441 -0.6857 -0.1107
25499W        W41973   5.710   4.049  13.051  0.0156 -0.0219 -0.2917
25500W        W41974   5.327   0.310   4.866 -0.2107  0.1745 -0.0569
25501W        W41975   7.556   3.849   4.840  0.2204 -0.1844  0.0159
25502W        W41976  17.092   8.521   2.513 -0.5232  0.0690 -0.1589
25503W        W41977   2.304  16.569  13.084  0.1617 -0.1124 -0.1114
25504W        W41978   5.737  15.822   1.964 -0.0817 -0.3942 -0.1456
25505W        W41979   4.463  11.365   4.353 -0.0160 -0.1659  0.0022
25506W        W41980  10.233  14.879  14.001  0.0062 -0.0579 -0.2189
25507W        W41981  12.026   5.195   3.114 -0.0468 -0.1709  0.1845
25508W        W41982  17.851   9.129  12.816  0.2816 -0.1499 -0.0825
25509W        W41983  13.021  18.413   3.094  0.0358  0.1636 -0.1965
25510W        W41984  13.564  16.746  13.618  0.3128  0.2038 -0.0064
25511W        W41985  17.856   2.774  11.800  0.1462  0.0983 -0.1508
25512W        W41986  16.498  15.913   5.461 -0.0720  0.1070  0.2094
25513W        W41987   6.140   2.646   3.270  0.1267  0.0407 -0.0268
25514W        W41988  12.711   3.031  13.709  0.3460  0.1835  0.1333
25515W        W41989   0.732  14.663  15.907 -0.1072 -0.2295 -0.3198
25516W        W41990   1.857   1.867  11.896  0.0360 -0.0893 -0.1137
25517W        W41991  14.956  11.359   0.974  0.0473  0.0035 -0.0034
25518W        W41992  15.589   1.631  11.842 -0.4179 -0.2598  0.0398
25519W        W41993   7.706  13.144  13.587  0.0313  0.2862  0.3493
25520W        W41994   6.718  12.114  15.243 -0.2044  0.4837 -0.0527
25521W        W41995   2.043   3.243   4.924  0.1005 -0.1601  0.0290
25522W        W41996   9.773  16.224   4.532 -0.2220 -0.1283 -0.0387
25523W        W41997  13.629  15.767   4.091 -0.2038  0.0402 -0.2192
25524W        W41998   0.476   8.404   3.821  0.1279 -0.1041 -0.2749
25525W        W41999   3.820   5.469   3.781  0.0135  0.1305 -0.0984
25526W        W42000   9.764   7.565   0.238 -0.3427  0.0567  0.0524
25527W        W42001   1.590   5.246   1.491  0.2651  0.2133 -0.1549
25528W        W42002  10.607  10.558   1.528  0.0485 -0.3873 -0.5228
25529W        W42003   9.007  11.422  12.524  0.1760 -0.0635 -0.0046
25530W        W42004   2.687   5.925  15.760  0.3390 -0.0687  0.2407
25531W        W42005  17.471  11.721   2.480  0.2908 -0.1110  0.0578
25532W        W42006  17.226  10.872   4.847 -0.0910 -0.2128 -0.1874
25533W        W42007   8.884   7.500  14.360  0.0438 -0.1454  0.0370
25534W        W42008   9.633   4.463   5.922  0.3771 -0.2518  0.0463
25535W        W42009  12.155  14.531   5.937  0.0376 -0.1207  0.0899
25536W        W42010   7.334  16.211   1.479 -0.1426  0.1832 -0.1344
25537W        W42011   1.315   2.722   0.472  0.3094  0.0796  0.0067
25538W        W42012   2.276   2.410   4.629 -0.0675  0.1198  0.0510
25539W        W42013   0.760   0.427   9.726  0.1936 -0.0126 -0.0326
25540W        W42014   3.566   8.688  11.892 -0.2765 -0.3405 -0.1241
25541W        W42015   5.331  13.804   1.476  0.1944  0.1458 -0.3173
25542W        W42016  14.532   2.215   3.269 -0.2424 -0.0061 -0.0834
25543W        W42017  10.005   6.383  14.707 -0.2226  0.1353  0.2668
25544W        W42018   6.450  10.211  13.248 -0.2598 -0.2410 -0.1157
25545W        W42019   0.358   7.039   5.638 -0.0474  0.0140 -0.2200
25546W        W42020   9.629  15.383   0.881  0.3727 -0.0324  0.2207
25547W        W42021  16.509  13.969   0.201 -0.0916 -0.3909  0.1591
25548W        W42022  18.444  18.451   0.216  0.0361 -0.1535  0.1884
25549W        W42023  13.156   1.400   4.627 -0.2402 -0.1856  0.2421
25550W        W42024   8.425   6.244  11.996  0.2160  0.2405 -0.0625
25551W        W42025   4.282  13.821  15.328 -0.2253  0.1821  0.1403
25552W        W42026   1.161   9.033   3.572 -0.0278 -0.1261  0.0254
25553W        W42027   3.487   5.410   1.322 -0.3997  0.1212 -0.3214
25554W        W42028  10.137  16.254  11.008  0.0631 -0.0200  0.0191
25555W        W42029   2.554   6.528  10.819  0.0385 -0.0489  0.1200
25556W        W42030   8.533  17.615  10.570 -0.1058  0.3627 -0.0080
25557W        W42031  13.545  11.950  13.621 -0.1327  0.0587  0.0216
25558W        W42032   0.466   4.682   0.067 -0.4812  0.1553 -0.0023
25559W        W42033  13.628   2.742   4.102 -0.0635 -0.2398 -0.3174
25560W        W42034   3.725  18.464  11.877  0.1346  0.1918 -0.1746
25561W        W42035   3.803   8.041   1.184 -0.0530 -0.0644  0.0434
25562W        W42036   0.370   3.217   4.847 -0.0862 -0.0475  0.3203
25563W        W42037   6.015  11.743   2.023 -0.0608  0.3618 -0.0309
25564W        W42038   8.727  10.135   2.718  0.0573  0.2404 -0.0450
25565W        W42039  10.227   4.541   2.343 -0.4579  0.1510 -0.0459
25566W        W42040  16.372   6.405   4.153  0.3352  0.2068 -0.0064
25567W        W42041  12.936  11.802   2.902 -0.0374 -0.0752  0.2429
25568W        W42042   9.272   5.712  15.449  0.0010 -0.0550  0.0538
25569W        W42043  14.257  17.576   3.287  0.0561  0.0068 -0.1407
25570W        W42044   2.421   5.896  14.353  0.0436 -0.0614  0.1679
25571W        W42045   1.060  15.121   3.522 -0.0287 -0.0847  0.0095
25572W        W42046  11.170   5.345   3.334  0.1528 -0.1134  0.4433
25573W        W42047   2.509   8.479   2.468  0.1477  0.2932  0.0717
25574W        W42048  10.678  10.105  12.275 -0.2434  0.0287  0.1672
25575W        W42049  10.751  10.604  12.291  0.0311 -0.4560 -0.2654
25576W        W42050  11.645   4.246   3.369 -0.0743 -0.0833  0.1614
25577W        W42051   4.028  10.779   2.908  0.2276 -0.2932  0.1161
25578W        W42052   2.972   3.100   0.251 -0.1931 -0.0157 -0.0991
25579W        W42053  15.163  15.182  12.940 -0.1017 -0.2390 -0.2475
25580W        W42054   1.249  13.087   3.072  0.0196 -0.1731  0.1214
25581W        W42055   2.969   9.541   5.372  0.1188  0.0492 -0.1116
25582W        W42056  14.256   3.452   4.295 -0.2334  0.0172 -0.0704
25583W        W42057   7.309   1.577   4.502  0.3261 -0.0295  0.1936
25584W        W42058   5.610   1.943  13.296  0.0551  0.1578  0.0471
25585W        W42059   0.547  16.681  15.098  0.0590  0.3362 -0.1234
25586W        W42060   9.640   4.342  11.978  0.3927 -0.0883  0.1768
25587W        W42061  12.625  10.373   3.205  0.0207  0.2518 -0.2211
25588W        W42062   3.159  13.706  12.607 -0.3723 -0.0751  0.2937
25589W        W42063  16.323   6.889  14.145  0.0460 -0.1642  0.1181
25590W        W42064  16.755   3.143  11.316  0.0977 -0.2250 -0.1141
25591W        W42065  13.508  17.410   1.131  0.0939 -0.0471  0.0834
25592W        W42066   9.760   7.484  15.632  0.0126 -0.1757  0.3899
25593W        W42067   0.797   0.685  15.030  0.1964  0.1116 -0.2927
25594W        W42068  11.818   2.416  14.092  0.1492 -0.1714 -0.0640
25595W        W42069  17.079   4.856  14.819  0.0310  0.2639  0.1614
25596W        W42070  12.499   5.187  13.570 -0.2027 -0.0195 -0.3168
25597W        W42071   0.241   7.324   4.171 -0.0620  0.0414 -0.1631
25598W        W42072   0.013   5.285   4.064 -0.0412  0.0425  0.0706
25599W        W42073   2.162  13.271  14.365  0.1611 -0.0811  0.1516
25600W        W42074   2.571   0.742  12.268  0.3408 -0.3257 -0.2821
25601W        W42075  15.560   7.757  15.371  0.0053  0.2236 -0.1531
25602W        W42076  15.136  17.123  13.222 -0.0343 -0.1362  0.0202
25603W        W42077   9.584  10.777  14.182 -0.0806  0.1044 -0.1813
25604W        W42078   6.822  15.553  12.082 -0.1554  0.1483  0.1383
25605W        W42079  17.544   5.325  12.218  0.1133 -0.0690 -0.1197
25606W        W42080  10.767   0.207  10.655 -0.1660 -0.2005 -0.1313
25607W        W42081  12.260  12.525   2.831 -0.2164 -0.2078 -0.2197
25608W        W42082   0.491  14.173   1.907  0.1154  0.0864  0.0118
25609W        W42083  16.906  16.658  13.829  0.1753  0.0627  0.0458
25610W        W42084   3.982   7.162   5.673  0.5983  0.0152  0.2405
25611W        W42085  16.607  15.402  11.384  0.3022 -0.3059  0.2445
25612W        W42086   0.115  17.397  10.931 -0.1432  0.0937  0.2614
25613W        W42087  13.348   7.591   1.837 -0.0799  0.0122 -0.2279
25614W        W42088   8.894  14.122  11.511 -0.1913  0.1848  0.1770
25615W        W42089   2.859   5.272  13.276  0.2735 -0.1665  0.0972
25616W        W42090  11.114  13.220  13.901 -0.1048 -0.1985  0.1433
25617W        W42091  13.914   7.646  15.567  0.0281 -0.1406 -0.0406
25618W        W42092  15.836   6.597  13.960 -0.2145  0.2456  0.1403
25619W        W42093   0.758  17.826   2.421  0.0400  0.0578  0.0866
25620W        W42094  10.810  17.141   1.032 -0.0248  0.0130  0.1798
25621W        W42095   8.818   8.011  15.608 -0.2752 -0.2022 -0.0096
25622W        W42096  11.599   1.071   3.424  0.2584  0.2022  0.1465
25623W        W42097   5.538   7.204  14.531  0.0412  0.0142 -0.0043
25624W        W42098  13.599   9.580   1.800 -0.2864  0.0060  0.0325
25625W        W42099   8.738   4.197  15.567 -0.0597 -0.0509 -0.0032
25626W        W42100   2.331   0.084  12.028 -0.0535  0.0603  0.1189
25627W        W42101   1.092  17.881   2.041 -0.0723 -0.1684  0.0234
25628W        W42102   7.341  17.018   3.045  0.2486  0.1107 -0.2430
25629W        W42103   2.279  15.098  13.364  0.3220 -0.3682 -0.2112
25630W        W42104  14.745   7.186  15.328 -0.0307  0.0667  0.1867
25631W        W42105   2.707   3.513  14.034  0.2371 -0.0971 -0.3767
25632W        W42106   9.762  12.390  13.199  0.1844 -0.4486 -0.1650
25633W        W42107   8.914   1.174  12.784 -0.0785 -0.3666 -0.0595
25634W        W42108  10.565  16.163  11.447  0.1924 -0.3476 -0.1434
25635W        W42109   0.196  13.040  11.661 -0.0115 -0.2785  0.0521
25636W        W42110  17.675   6.769  14.077  0.3718  0.0733 -0.1269
25637W        W42111   6.241  10.898  11.721 -0.1392 -0.3929  0.0015
25638W        W42112  18.375  15.891   3.597  0.0486  0.1330  0.0514
25639W        W42113  10.685   2.448   3.590  0.0475 -0.2618 -0.0077
25640W        W42114   1.702  11.736   0.954 -0.0591  0.2824 -0.3867
25641W        W42115   5.607  16.684   3.332 -0.2078  0.2923  0.0269
25642W        W42116  16.939   3.054   3.118 -0.0175 -0.0398  0.2199
25643W        W42117  17.053   7.105   3.940 -0.1071  0.0325 -0.2037
25644W        W42118   5.578  15.351  11.648  0.0877  0.0786  0.1199
25645W        W42119   6.497  15.128   0.751  0.1878 -0.2863  0.0402
25646W        W42120   3.529   1.002  11.189  0.2599 -0.0910  0.0517
25647W        W42121   2.387   9.303   0.860  0.4460 -0.2471  0.1481
25648W        W42122  14.107  10.060   6.027 -0.1154 -0.0177  0.2502
25649W        W42123  12.103   2.872   0.933  0.0867 -0.0806 -0.0340
25650W        W42124  14.249   0.112   3.589 -0.2326 -0.1412  0.0708
25651W        W42125  14.439  13.023   0.060  0.1592 -0.2547 -0.0405
25652W        W42126  10.454   9.872  11.183 -0.1699  0.0273  0.1752
25653W        W42127  16.459  10.301   4.897  0.2822 -0.0056  0.0438
25654W        W42128  12.732  15.010   1.630  0.0084 -0.0802  0.1780
25655W        W42129   7.668   8.574   0.033 -0.0917 -0.1998  0.1750
25656W        W42130   5.190   7.432   4.754 -0.1312 -0.1281 -0.1292
25657W        W42131   9.455   2.655   2.232  0.1613  0.2431 -0.0521
25658W        W42132   2.602  11.828   4.836  0.3676 -0.2017 -0.0775
25659W        W42133   6.198  12.909   1.912  0.3360  0.0439  0.1029
25660W        W42134  10.657   9.471  10.901  0.4430 -0.0120  0.1260
25661W        W42135   2.605  14.588  11.274 -0.1060 -0.2769 -0.0663
25662W        W42136  10.798  10.320   3.603  0.0448  0.1575 -0.1005
25663W        W42137  16.454  11.899   0.986 -0.2006 -0.0556 -0.0409
25664W        W42138  13.273  11.540  12.102 -0.0965 -0.2785 -0.2243
25665W        W42139   7.382  12.295   3.639 -0.2216 -0.1317  0.2082
25666W        W42140  17.113  10.078  13.617 -0.1825 -0.2042  0.1292
25667W        W42141  14.703   4.512  13.075 -0.3940 -0.2500 -0.3406
25668W        W42142   7.537  13.621  15.500 -0.1807 -0.1808 -0.2132
25669W        W42143   1.686   4.261  15.342 -0.4077  0.1117  0.1415
25670W        W42144  14.727   9.292   2.724 -0.1196  0.1099  0.0358
25671W        W42145   8.010   7.566   4.899 -0.2128 -0.2143 -0.2759
25672W        W42146   4.944  16.857   2.338 -0.1311 -0.2896 -0.0228
25673W        W42147   1.239   7.479   0.297 -0.1163  0.0872  0.0455
25674W        W42148  10.021  17.471  12.274  0.3336  0.0819 -0.2412
25675W        W42149   4.679  10.228   5.453  0.0237 -0.0243  0.1616
25676W        W42150  13.760   4.000  11.297 -0.0288  0.3486 -0.2132
25677W        W42151   1.172   4.846  12.936 -0.1917  0.0683 -0.0222
25678W        W42152  12.297   8.129   2.837  0.0395 -0.5039  0.5536
25679W        W42153   5.791   8.989  14.304 -0.1264 -0.0440 -0.0188
25680W        W42154  17.811  16.102  12.578  0.0436 -0.0044  0.0656
25681W        W42155  14.887   9.401   4.294  0.2050 -0.2308  0.1077
25682W        W42156  12.033   2.571   5.496  0.1250  0.0494 -0.0960
25683W        W42157   5.988   0.023  12.146 -0.0408  0.1955  0.0786
25684W        W42158   1.890  15.084  11.832  0.1067  0.0440 -0.1648
25685W        W42159   1.065   0.994  12.018  0.0655 -0.2850  0.0008
25686W        W42160  17.675   6.738   4.919  0.3884  0.3902 -0.1688
25687W        W42161  12.964  16.897   3.301  0.1282  0.0630 -0.3830
25688W        W42162   3.081  18.256  13.704 -0.0912  0.0849 -0.2514
25689W        W42163   6.140   1.753   2.677 -0.1870  0.3164  0.2420
25690W        W42164   1.494   8.439   0.039 -0.3178 -0.1042  0.0263
25691W        W42165   6.795  13.516   2.282 -0.0193 -0.2998  0.3516
25692W        W42166   1.737   8.092  12.880  0.0682  0.1458 -0.1347
25693W        W42167   3.552   8.933   4.892  0.0170  0.0827  0.0791
25694W        W42168   0.854  18.154   5.857 -0.1138 -0.1331  0.3760
25695W        W42169  10.502  10.677   0.648 -0.1032 -0.0275 -0.1603
25696W        W42170  12.029  16.902   3.435  0.1444 -0.0379 -0.2311
25697W        W42171   1.230   4.872   3.422 -0.1586 -0.2097 -0.0161
25698W        W42172   7.768  18.035   1.032  0.0502  0.1710 -0.1457
25699W        W42173  10.875   1.257   1.205 -0.2753 -0.2638 -0.1551
25700W        W42174   7.406  11.194   2.965 -0.2160 -0.1037  0.0540
25701W        W42175   4.149   7.390  12.568  0.1428 -0.0319 -0.1557
25702W        W42176   3.112   2.996   0.698  0.1079 -0.0626 -0.1561
25703W        W42177   9.898  16.225  13.532 -0.2767 -0.2797  0.4207
25704W        W42178   6.491  12.973   4.648 -0.1025 -0.1398 -0.6232
25705W        W42179   3.536  11.477  15.573 -0.1746  0.0061 -0.0539
25706W        W42180   7.223   8.060  12.686 -0.2310 -0.0588  0.1402
25707W        W42181   2.825   8.608   1.142 -0.1010  0.1077 -0.0566
25708W        W42182  10.171  16.669   1.461 -0.2739 -0.0237 -0.1673
25709W        W42183  12.096   1.519  12.919 -0.1146 -0.2848 -0.0085
25710W        W42184  16.170   6.453  12.177 -0.1651  0.1045 -0.0180
25711W        W42185   7.460   3.525  14.743  0.0723  0.0481  0.0739
25712W        W42186  15.580   4.651  11.637 -0.1984 -0.1471  0.1235
25713W        W42187  13.062   1.714  15.226  0.2234  0.1536  0.1244
25714W        W42188   2.121   0.472   5.929  0.2886  0.3679 -0.0915
25715W        W42189  15.234   5.301  15.701  0.0875  0.1394 -0.1180
25716W        W42190   6.928  16.148   5.237 -0.0662  0.2459  0.0510
25717W        W42191   9.250  13.835   3.043 -0.4559  0.0672 -0.3486
25718W        W42192  17.911  14.868  11.401 -0.2080 -0.1070  0.0152
25719W        W42193  11.276  13.662   0.886  0.2384 -0.0252 -0.1878
25720W        W42194   5.680  14.114   5.029 -0.0349 -0.0268  0.0064
25721W        W42195   1.917  15.081  14.556  0.1001 -0.1434  0.0979
25722W        W42196   8.001   3.159   3.352  0.0205  0.2386 -0.0810
25723W        W42197  12.673  17.018   3.957  0.1792  0.2623 -0.1412
25724W        W42198   9.207  17.882   0.586 -0.1159 -0.0143 -0.0018
25725W        W42199  14.693  10.952   2.279 -0.1896 -0.0580  0.1684
25726W        W42200   4.284   8.818  10.555  0.0560  0.0771 -0.0006
25727W        W42201  15.269  14.883  15.829  0.0915  0.0545 -0.0187
25728W        W42202   3.532  14.283   3.814  0.0905  0.1610 -0.0314
25729W        W42203  12.342  10.089  12.708 -0.1110 -0.2432  0.0667
25730W        W42204  10.694   8.559   2.767  0.0118  0.2003 -0.1304
25731W        W42205   9.577   7.032  14.347  0.0594  0.1656 -0.4679
25732W        W42206   3.060  15.702  14.646  0.1420 -0.1614 -0.2445
25733W        W42207   3.998   0.599  14.444  0.1574  0.1195  0.0400
25734W        W42208   5.904  17.069   3.144 -0.1183 -0.2126  0.1678
25735W        W42209   0.955   3.319   5.296  0.1375  0.1319 -0.1355
25736W        W42210  16.917  18.146   3.018  0.0475  0.0295  0.0140
25737W        W42211   8.501   8.703  12.691 -0.1651  0.1075  0.0779
25738W        W42212  13.704   9.098   2.115  0.1792 -0.1816 -0.0922
25739W        W42213  12.677   2.123   3.063  0.0184 -0.0789 -0.0483
25740W        W42214  13.676   6.163  15.612 -0.3144  0.1971 -0.0934
25741W        W42215   3.107  17.531   1.004  0.0526  0.0110 -0.0294
25742W        W42216   6.283  12.400   0.787  0.0277  0.1770 -0.1413
25743W        W42217   6.049   7.058   0.084 -0.2941 -0.0245  0.0315
25744W        W42218   2.671  10.598  14.637 -0.2369  0.1300 -0.0422
25745W        W42219  16.652  13.840   2.473  0.1145  0.0854 -0.2667
25746W        W42220   3.505   4.446   0.935 -0.0264  0.1708  0.0176
25747W        W42221  10.531   7.216  11.439  0.0083  0.0032 -0.0050
25748W        W42222   4.772  13.107   0.890 -0.1546 -0.1797  0.1339
25749W        W42223  10.690   4.281  10.852  0.0711  0.4360  0.0622
25750W        W42224  11.184  15.133   1.644  0.0633 -0.1791  0.0752
25751W        W42225   3.838  14.594   1.578  0.2766  0.2538  0.2980
25752W        W42226  16.640  14.670   2.114 -0.0693 -0.1367  0.0077
25753W        W42227  13.760  16.041  12.924  0.0644 -0.2906 -0.0389
25754W        W42228   1.012  13.827  11.278  0.0455  0.1051 -0.3936
25755W        W42229  11.075  16.269  13.326 -0.1394 -0.0100  0.2679
25756W        W42230  18.036   9.311  10.897  0.1601 -0.0045  0.1512
25757W        W42231   9.479  10.876  15.194  0.0467 -0.1529  0.0856
25758W        W42232  14.989  11.872   0.759 -0.0405 -0.2846  0.0456
25759W        W42233  17.517  16.578  14.654 -0.1836 -0.1025  0.2272
25760W        W42234  18.043  17.077  15.805 -0.0040  0.4435 -0.3134
25761W        W42235   0.113  15.617   2.785 -0.3126 -0.1146 -0.0936
25762W        W42236   8.949  17.211   1.377  0.0383 -0.1515 -0.2841
25763W        W42237  10.953   3.367  15.480  0.0441 -0.0382  0.0065
25764W        W42238  15.382   0.694  12.209 -0.1555  0.1777  0.1284
25765W        W42239   0.251  14.686  13.130  0.0840  0.0085  0.0479
25766W        W42240   4.853  10.632   2.388  0.0867  0.1169 -0.1418
25767W        W42241  13.344   7.618  15.740  0.1897  0.2984 -0.2779
25768W        W42242  15.476  12.804  15.871 -0.0103  0.0828  0.1769
25769W        W42243   9.592   6.517   4.918 -0.3164 -0.1635 -0.0640
25770W        W42244   7.577   9.589   1.875  0.0553 -0.0080  0.1371
25771W        W42245   8.635  13.914   4.825 -0.3240  0.4197 -0.0104
25772W        W42246  14.853  12.230  13.449  0.0396  0.1738 -0.0580
25773W        W42247   1.339   5.089   1.904  0.2442 -0.1107 -0.0857
25774W        W42248  11.748  17.248   5.041 -0.1516  0.3012  0.0410
25775W        W42249   6.096   7.962   5.120  0.2534 -0.0999 -0.2210
25776W        W42250  12.497  16.841  14.077  0.0548  0.2749 -0.3047
25777W        W42251  13.660   5.679  13.533  0.2573  0.0945  0.0740
25778W        W42252   5.687   6.229   4.685 -0.0588 -0.2236  0.5140
25779W        W42253  15.110  15.835   0.161  0.0748 -0.0246 -0.0285
25780W        W42254   3.477   1.813   1.109 -0.3086 -0.0374  0.2639
25781W        W42255  11.964  13.010   6.334  0.1542  0.2177 -0.0593
25782W        W42256   0.364  15.848   0.556 -0.2310  0.1481  0.1004
25783W        W42257   6.549   7.367   1.884  0.2009 -0.0204 -0.1033
25784W        W42258   2.302   1.885   0.173 -0.3521 -0.1213  0.3292
25785W        W42259  17.755  13.381  11.352  0.0294  0.1449  0.2693
25786W        W42260   5.253   9.565   4.849 -0.0296  0.0193 -0.1194
25787W        W42261   9.737  17.471   0.144 -0.1052  0.0743 -0.0767
25788W        W42262   3.282  17.580  15.330 -0.1721  0.0852 -0.2204
25789W        W42263   2.826   7.215  12.818 -0.0022 -0.2415  0.1144
25790W        W42264   1.408   0.653   1.813 -0.0188  0.2107 -0.0723
25791W        W42265   2.540  13.650   0.845  0.0640  0.2303 -0.2676
25792W        W42266  13.094   7.347  12.567 -0.0258 -0.0667 -0.3855
25793W        W42267   8.235  15.300   0.301 -0.0970  0.0062  0.0112
25794W        W42268  16.311  17.291   1.461 -0.1619 -0.3374  0.0378
25795W        W42269   3.747  16.573   1.614 -0.2010 -0.3328 -0.0087
25796W        W42270   2.788   0.249   0.239  0.2662  0.0058 -0.1437
25797W        W42271   2.404  17.087   5.236  0.2580  0.2583  0.2358
25798W        W42272  15.599  18.190   2.081  0.0013  0.2095 -0.0126
25799W        W42273   2.258   2.337   0.387  0.1890 -0.2624  0.0704
25800W        W42274  15.326   7.895  11.806  0.1752  0.1840  0.1414
25801W        W42275  10.063   0.267   1.917  0.2175  0.2370 -0.3588
25802W        W42276   2.787  13.474  13.087 -0.0011 -0.3789  0.1200
25803W        W42277   1.371   4.811   5.292  0.0185 -0.1559  0.1305
25804W        W42278  17.136  10.155  11.693 -0.0250  0.1565 -0.0809
25805W        W42279  10.696  13.390   2.714 -0.2181  0.0874  0.1895
25806W        W42280  16.212  12.401   1.187  0.1025 -0.3002  0.2004
25807W        W42281   7.340  10.907  15.389  0.1147  0.2189 -0.0305
25808W        W42282   7.689   8.725  12.362 -0.0142 -0.2063 -0.0272
25809W        W42283   0.511  13.854   0.272 -0.1937 -0.0238  0.0491
25810W        W42284  15.726   9.764   0.932 -0.2108 -0.2968  0.1139
25811W        W42285   0.310  15.014   1.593  0.1922 -0.0717  0.1658
25812W        W42286   2.276  14.006   3.563  0.0772  0.2764 -0.0098
25813W        W42287   5.216   3.539   5.578  0.0353 -0.0713 -0.1965
25814W        W42288  10.298   8.628   3.675  0.0381 -0.0740 -0.0619
25815W        W42289   0.151   6.759   5.203 -0.0018 -0.1083 -0.1722
25816W        W42290   7.060   6.000   5.124 -0.1467  0.0944  0.0851
25817W        W42291  15.163  11.109   4.090 -0.0228  0.3334  0.0398
25818W        W42292   6.301   5.546  15.107 -0.0430  0.0302  0.1388
25819W        W42293  10.112   0.751   1.427 -0.1658 -0.0336  0.1700
25820W        W42294   4.941  14.631   2.140 -0.0794 -0.2710 -0.2232
25821W        W42295  17.652   8.316   1.529 -0.2725 -0.0833  0.5191
25822W        W42296   8.552   9.640  12.611  0.0834  0.3160 -0.1592
25823W        W42297  14.066   7.275  11.080 -0.0078 -0.2655  0.2449
25824W        W42298   2.236   4.259  14.636 -0.0100  0.1014  0.1588
25825W        W42299  10.194   2.468   3.474  0.2814 -0.0172  0.3037
25826W        W42300  11.609  14.984   3.957 -0.2168 -0.0544 -0.0414
25827W        W42301  13.085  17.445   1.406  0.0747 -0.0005  0.0872
25828W        W42302  10.496   6.188  12.824 -0.0198  0.0399 -0.0522
25829W        W42303   3.898   3.658   1.834 -0.2134  0.0770  0.2390
25830W        W42304  13.989   2.048  11.979 -0.2805  0.2673 -0.3495
25831W        W42305   8.730   4.030  14.669  0.0855 -0.2754  0.3116
25832W        W42306  17.391   9.679   3.907 -0.1134  0.1862  0.0318
25833W        W42307   7.400  15.167   4.810 -0.1814  0.2304 -0.1668
25834W        W42308   4.117   7.505   1.177  0.0754 -0.2193  0.0462
25835W        W42309   8.168   8.886   3.839 -0.0648  0.0896 -0.0320
25836W        W42310   8.823   1.239   0.713 -0.2766  0.3675  0.0376
25837W        W42311  10.357  12.866   2.054  0.0611  0.0227 -0.0267
25838W        W42312   9.062  10.925   2.562  0.3428  0.0417  0.1459
25839W        W42313  11.734  14.879   2.179 -0.1475  0.0451 -0.2421
25840W        W42314  11.357   6.731  11.699  0.2614  0.0709 -0.0768
25841W        W42315   5.995   0.807  13.140 -0.2561 -0.0141  0.2422
25842W        W42316  17.577   2.443   0.486 -0.0937 -0.0156 -0.1302
25843W        W42317  13.374  15.818  13.189  0.2057 -0.2289  0.0203
25844W        W42318  11.084   7.584  14.427  0.0320  0.0962 -0.0309
25845W        W42319   0.619  11.041   0.813  0.0297 -0.3098 -0.2089
25846W        W42320  18.039   7.819   4.083  0.0720 -0.0089  0.4271
25847W        W42321   5.724  13.649  13.641  0.1141 -0.1113 -0.3466
25848W        W42322   2.036   1.407  12.753 -0.0435 -0.0800 -0.0195
25849W        W42323  18.112  16.037   5.459 -0.2750  0.0936 -0.0228
25850W        W42324   0.620   6.439  13.774 -0.1401  0.0273  0.0382
25851W        W42325   8.470   1.357  15.772 -0.0599 -0.0417 -0.1055
25852W        W42326  17.121   8.166   2.889  0.0762  0.1533  0.1060
25853W        W42327  15.431  15.428  15.857 -0.0225  0.4352  0.0779
25854W        W42328  13.092   6.578   0.946 -0.0197 -0.2011 -0.0730
25855W        W42329   1.939   2.787   0.989 -0.5091  0.1859 -0.0668
25856W        W42330  18.218  11.928   3.231  0.0024  0.0455  0.1583
25857W        W42331  16.806  13.124  11.331 -0.1164  0.0601 -0.3896
25858W        W42332   8.076  16.916  14.569 -0.1076  0.2424 -0.1089
25859W        W42333   1.765  10.377  11.750  0.0806 -0.0779 -0.0058
25860W        W42334   1.808  17.711  12.526  0.0705 -0.2589 -0.1785
25861W        W42335  12.828   5.054  15.513  0.1863 -0.0053  0.2402
25862W        W42336   1.769  14.482  15.947 -0.2378  0.1697 -0.0281
25863W        W42337   9.265  18.451   1.327  0.1199 -0.2181 -0.0491
25864W        W42338   2.628  13.078  13.831  0.1649 -0.1436 -0.0222
25865W        W42339  11.231   2.091   3.988  0.1306  0.3071 -0.2297
25866W        W42340  10.713   4.663   0.004  0.2393 -0.3790  0.1853
25867W        W42341  11.250  12.349  13.654 -0.3013 -0.1667 -0.1129
25868W        W42342  14.341   4.932   2.097 -0.2016  0.3762 -0.2444
25869W        W42343   2.895  12.670  11.048  0.1140  0.1911  0.2054
25870W        W42344   9.879   7.628   1.188  0.1134  0.0445 -0.1465
25871W        W42345  12.913  16.291   1.676 -0.1577 -0.1120  0.3007
25872W        W42346   1.212  15.392  14.286 -0.0692 -0.0519  0.2844
25873W        W42347  14.479   5.825   3.198  0.1320  0.0419 -0.1222
25874W        W42348   0.523  17.603   0.181  0.0608  0.0526  0.0541
25875W        W42349  14.710   3.845   4.899 -0.3503  0.0894 -0.3986
25876W        W42350  10.429   2.638  11.037 -0.1524  0.0162 -0.0136
25877W        W42351  18.006   7.356  12.157 -0.0141 -0.0761 -0.1018
25878W        W42352  13.046  12.591   4.929  0.2762 -0.2147 -0.1220
25879W        W42353  13.367   3.396   3.061 -0.2259  0.1105  0.0108
25880W        W42354  15.830   6.688   3.443 -0.0525 -0.2638 -0.0978
25881W        W42355  14.368   1.942   1.113  0.1433  0.1739 -0.4260
25882W        W42356  11.140   2.644   1.710  0.1127 -0.1331 -0.0470
25883W        W42357   4.117  17.477   0.294  0.2382 -0.0150 -0.0534
25884W        W42358  16.224   7.584   3.564 -0.2669 -0.0196 -0.0665
25885W        W42359  17.175  17.898   0.320 -0.0885 -0.0824 -0.1861
25886W        W42360   8.208   6.646  14.376 -0.0820  0.1677 -0.0079
25887W        W42361   8.476   2.838  15.746  0.2088  0.0599  0.0701
25888W        W42362   9.106   2.990  10.958 -0.2248  0.3485  0.2001
25889W        W42363   1.881   7.220  12.841 -0.1137 -0.0327  0.1830
25890W        W42364   8.040  14.819  13.969  0.0180 -0.1621 -0.0873
25891W        W42365  15.597  16.284   0.150  0.2784 -0.0933  0.2623
25892W        W42366  13.883   1.621   3.018 -0.2053  0.1010 -0.0138
25893W        W42367  15.916  11.007  15.511  0.2063 -0.0279  0.0466
25894W        W42368   6.063  17.428   3.484 -0.0625 -0.1157  0.0751
25895W        W42369  17.404   1.779   3.014 -0.1603  0.1268  0.0270
25896W        W42370  13.767  14.820   2.856  0.0415  0.2287  0.1222
25897W        W42371   2.209   2.491   1.321  0.1088  0.1882  0.1544
25898W        W42372  11.397  15.937   0.342 -0.1903 -0.2170 -0.0929
25899W        W42373   8.222   2.112  13.327  0.1563  0.2541 -0.0740
25900W        W42374  13.471  12.536  12.428  0.1976  0.1058 -0.1209
25901W        W42375   1.194  16.606  12.449  0.0884 -0.1264 -0.1690
25902W        W42376  13.329   5.180   1.750 -0.1336 -0.1229  0.0466
25903W        W42377   1.882  12.573   4.850  0.2676  0.1594 -0.1918
25904W        W42378  13.878   4.103   2.537 -0.4576 -0.3528  0.0830
25905W        W42379   0.491   6.352   1.641  0.0907 -0.0867  0.0795
25906W        W42380  15.662   5.595   0.971 -0.2152  0.0314 -0.3418
25907W        W42381   9.996   9.266  12.134 -0.2055 -0.0293  0.1945
25908W        W42382  16.906   6.674   0.318 -0.1290 -0.0827 -0.0339
25909W        W42383  15.221  13.985  15.767  0.1369  0.3084 -0.1024
25910W        W42384   5.722  17.060   5.015  0.1275 -0.1386  0.2682
25911W        W42385  15.362  18.318  11.762  0.2319 -0.3468 -0.2472
25912W        W42386   1.446   1.855  14.272  0.0158 -0.1703 -0.3214
25913W        W42387  11.660  14.732   0.798 -0.1175 -0.1124 -0.1623
25914W        W42388  12.959   8.040   4.491 -0.1442 -0.0699 -0.1984
25915W        W42389  18.270   2.481   2.830  0.1679  0.1198 -0.1716
25916W        W42390   6.928  15.370   3.488 -0.3539  0.0769  0.1001
25917W        W42391   3.321  13.633   2.717 -0.0146 -0.0240 -0.1341
25918W        W42392  11.901   1.059  14.477 -0.0712 -0.0060  0.2884
25919W        W42393  14.098  14.999  14.870  0.0664  0.0508  0.2235
25920W        W42394  15.395  14.642  14.852  0.1596  0.1281  0.0565
25921W        W42395   8.900  13.360   3.415  0.3072 -0.0530 -0.0681
25922W        W42396  10.135  16.259   5.816  0.0100 -0.0379  0.0030
25923W        W42397   0.751   2.944  12.609 -0.1502 -0.3127  0.2070
25924W        W42398  11.330   6.528   5.918 -0.0215  0.5740 -0.1223
25925W        W42399   1.961  15.681   5.385  0.2028 -0.0126 -0.1588
25926W        W42400  11.636  13.044   4.426 -0.0766 -0.1240 -0.0106
25927W        W42401  11.399   3.443   3.463  0.2967 -0.1026 -0.0896
25928W        W42402  14.918  17.374   0.601  0.1358 -0.0593  0.0630
25929W        W42403   0.250  12.554   5.361  0.0434  0.1858 -0.0253
25930W        W42404   7.334   7.374   0.511 -0.2236  0.1531  0.0330
25931W        W42405   4.162  13.108  15.145 -0.1764  0.0032 -0.2817
25932W        W42406  16.704   7.482  12.765 -0.0410 -0.0669  0.2885
25933W        W42407   9.619   5.810   1.681  0.1624  0.0085  0.0343
25934W        W42408  18.007   1.494   1.437  0.0698 -0.3162 -0.0600
25935W        W42409   2.710   3.601  15.116 -0.2361  0.0022  0.2623
25936W        W42410   0.544  14.012   3.202 -0.3108 -0.1442  0.0212
25937W        W42411  16.998   4.031   2.881 -0.0970  0.0902  0.1296
25938W        W42412   2.705   5.070   3.252  0.1823  0.0052  0.0989
25939W        W42413  17.160  11.758  15.364  0.1457  0.0994 -0.0366
25940W        W42414   4.603  11.639   0.352 -0.0507  0.0453  0.2954
25941W        W42415  14.605  14.313   5.405 -0.3005 -0.2382 -0.0391
25942W        W42416   9.560  18.106   5.505  0.3256  0.2026  0.1476
25943W        W42417   8.542   1.222  10.534 -0.2511 -0.0545 -0.1023
25944W        W42418  14.578   2.429   4.118  0.2002  0.0375  0.0019
25945W        W42419   1.450  18.176   3.472 -0.0403  0.0159 -0.1241
25946W        W42420   5.023  10.442   1.113  0.4179  0.2461 -0.1245
25947W        W42421  12.540  17.545   4.013  0.1935  0.0787 -0.0566
25948W        W42422   8.059  11.838  15.836 -0.2257  0.2825 -0.0107
25949W        W42423   6.969  15.621   5.091  0.1557 -0.1067  0.0147
25950W        W42424   1.352   8.615  13.686 -0.0594 -0.1126  0.3880
25951W        W42425  10.083  12.702   1.102 -0.2818 -0.1260 -0.0483
25952W        W42426  15.973  13.789   0.544  0.1573  0.0114  0.3097
25953W        W42427  14.554   6.828   1.686 -0.1466 -0.2625 -0.0432
25954W        W42428  11.465   8.580   3.423  0.0905 -0.0105  0.1850
25955W        W42429   4.587   2.988  14.595  0.0810  0.0244  0.0449
25956W        W42430   7.706   7.800   1.283 -0.2133 -0.1995  0.1018
25957W        W42431   2.824  10.828   1.191  0.0369  0.1677  0.2680
25958W        W42432   5.044  17.795  12.959 -0.0738 -0.0297 -0.0562
25959W        W42433  15.808  13.296   1.705 -0.1346 -0.1221 -0.2405
25960W        W42434   0.493   4.378   0.458 -0.2498  0.0234 -0.0526
25961W        W42435  17.374   5.788  12.024  0.1119 -0.3161  0.0260
25962W        W42436   5.940  10.066  13.930 -0.0048  0.1411  0.2021
25963W        W42437   7.018   7.696   4.795 -0.2290  0.1337  0.1186
25964W        W42438   5.082   4.428  15.696 -0.2247  0.2832  0.2658
25965W        W42439  10.165   9.510  15.666 -0.1938  0.4887 -0.0226
25966W        W42440  17.348   4.661   3.438 -0.0029  0.1605  0.1592
25967W        W42441   7.020  10.908  12.373  0.0057  0.0733 -0.0629
25968W        W42442   8.762   7.908  14.725 -0.1829 -0.3663  0.0958
25969W        W42443   9.328  13.369  12.029  0.0326  0.3561 -0.1768
25970W        W42444   7.657   3.449   4.022  0.1201  0.2455  0.0388
25971W        W42445   7.839  12.815   1.066  0.2699  0.1139  0.0233
25972W        W42446  13.095   8.287   2.430  0.0251  0.0171 -0.2722
25973W        W42447   8.134   5.820   0.412 -0.2815 -0.2530  0.2306
25974W        W42448   3.292   2.596  11.917  0.1796  0.2669 -0.1339
25975W        W42449   4.926   6.559  10.954  0.1298  0.2991 -0.1546
25976W        W42450   2.088  12.927   1.936  0.0856  0.0839 -0.0699
25977W        W42451  13.052   6.003   2.887 -0.0712  0.3375  0.0843
25978W        W42452   9.116   2.613   3.144 -0.2500  0.2535 -0.2462
25979W        W42453  16.334   9.476  12.719  0.0336  0.1486  0.1112
25980W        W42454  15.609  10.617   1.729 -0.2359 -0.1198 -0.2071
25981W        W42455   5.415  11.142   1.353  0.0501 -0.0340  0.0681
25982W        W42456  10.727   5.954   5.269  0.0343 -0.2103  0.1747
25983W        W42457  16.134  10.507  13.944  0.0478 -0.1381  0.1677
25984W        W42458  14.864  13.965   0.966 -0.4122 -0.3123 -0.3370
25985W        W42459   8.661  16.161  11.574  0.0388  0.0916 -0.2384
25986W        W42460   6.730  16.044   0.874  0.0493  0.3335  0.0866
25987W        W42461  13.096   7.410   1.403 -0.3339 -0.0645  0.2383
25988W        W42462  13.804   3.207   4.306  0.0780  0.2477 -0.0066
25989W        W42463  14.616   3.699   0.150 -0.1490  0.1327  0.1118
25990W        W42464   7.128   8.057  13.969 -0.0297 -0.2075  0.2735
25991W        W42465   5.544  10.387  14.762 -0.5226  0.0347 -0.2889
25992W        W42466   4.185  16.062   4.057 -0.1643 -0.0380  0.0026
25993W        W42467  11.193  18.045   0.274  0.1105  0.1067 -0.0590
25994W        W42468   9.005   3.362   2.950 -0.1467  0.0480  0.0837
25995W        W42469  17.270   3.702   2.514  0.0886  0.2494  0.0502
25996W        W42470   7.743   8.136   4.649  0.1162  0.0194 -0.2153
25997W        W42471  10.234   6.586   1.596 -0.1284  0.2380 -0.1690
25998W        W42472  18.199   0.600  12.027  0.0307  0.0005  0.0697
25999W        W42473  12.536   2.772  12.699 -0.1716 -0.2768 -0.1294
26000W        W42474  15.889   2.829   3.966  0.0041  0.3608 -0.1592
26001W        W42475  11.987  12.781  14.272 -0.3415  0.0234 -0.1524
26002W        W42476   1.295   2.719   2.862 -0.1092 -0.2125  0.1863
26003W        W42477   9.759  14.882   4.931  0.0769  0.2126 -0.2789
26004W        W42478   2.264  10.544   3.127  0.2120  0.3430  0.0693
26005W        W42479   3.888   5.077  13.422 -0.0850 -0.3933 -0.1277
26006W        W42480  15.223   9.588  12.708 -0.1679  0.0120  0.0431
26007W        W42481   2.744   1.329   3.263 -0.3015  0.1967  0.4393
26008W        W42482  17.274   8.076   4.637  0.1053  0.1740 -0.0288
26009W        W42483   4.103  13.125   2.740 -0.0686  0.3330  0.1930
26010W        W42484  13.780  13.689  13.225 -0.5820  0.0504  0.1238
26011W        W42485  18.376  14.562   3.650 -0.0151  0.0643 -0.1981
26012W        W42486   7.270   5.935   0.791 -0.4390  0.2399 -0.0573
26013W        W42487  12.780   1.992  13.351  0.0543 -0.1002 -0.0739
26014W        W42488   8.891   8.017   4.629  0.1411 -0.0354 -0.0408
26015W        W42489   7.786  13.649   0.928 -0.0355 -0.0507 -0.0957
26016W        W42490   3.286  14.956  12.910  0.3165  0.0603 -0.0009
26017W        W42491  14.611  17.576  11.825 -0.0836  0.2106  0.2020
26018W        W42492   5.581  17.638  12.113 -0.3363  0.3341  0.3246
26019W        W42493   1.929   2.879  14.102  0.0421 -0.4480  0.3238
26020W        W42494   9.146  16.296  14.855 -0.1839  0.0167  0.1864
26021W        W42495  11.640   1.701  15.744 -0.1659  0.0417 -0.0905
26022W        W42496   2.291   7.527   0.575 -0.0762  0.0877 -0.3528
26023W        W42497  15.944   9.586  13.195  0.1973  0.0950 -0.1779
26024W        W42498   3.558  12.096   4.087 -0.1694 -0.0849 -0.1952
26025W        W42499   6.209   4.109  10.974  0.1566 -0.0856 -0.0167
26026W        W42500   2.640   1.396  12.938 -0.2973  0.1095 -0.1285
26027W        W42501   7.120  14.157  14.271 -0.0999 -0.1757 -0.0253
26028W        W42502   0.413   8.673   1.935 -0.1843  0.0488  0.1265
26029W        W42503   5.561  10.250   1.104 -0.2083  0.2949  0.1023
26030W        W42504  14.733   8.106   4.897 -0.0092  0.1448 -0.1541
26031W        W42505   4.398   5.155   0.762 -0.1436  0.0854 -0.0772
26032W        W42506  10.528  10.974   0.186  0.0434  0.0745 -0.1155
26033W        W42507  14.022   4.950  12.279  0.2559  0.5815  0.1075
26034W        W42508  17.229   9.323   1.892  0.3585 -0.0863 -0.0126
26035W        W42509  18.058   0.116  10.891  0.0783 -0.0387 -0.1116
26036W        W42510   5.138  11.376   9.776 -0.5142  0.2383 -0.0111
26037W        W42511   6.953  13.665  12.325  0.2453  0.1169 -0.2040
26038W        W42512  13.183  12.316   5.350  0.0714  0.2206 -0.0243
26039W        W42513   0.517   5.642   2.400 -0.0745 -0.0607 -0.2557
26040W        W42514  14.772  12.178   4.327  0.2756 -0.1680  0.0830
26041W        W42515  14.666   7.619   4.873 -0.0696  0.1400  0.0332
26042W        W42516   8.313  13.447   5.834  0.2894 -0.2071 -0.0154
26043W        W42517   1.377  10.243  14.983  0.2621  0.0976  0.1831
26044W        W42518  10.914   5.967   1.981  0.1661  0.0347  0.2143
26045W        W42519  17.362  10.281  15.549  0.4244  0.1444 -0.4797
26046W        W42520   4.134   5.586   2.631 -0.2374 -0.2414  0.3690
26047W        W42521  16.786   0.941  13.024  0.1786 -0.0361  0.0333
26048W        W42522  10.090   4.668   2.872  0.3165 -0.0480 -0.4036
26049W        W42523  14.640   3.239  15.862 -0.0898 -0.2726  0.1432
26050W        W42524   0.557  11.709   5.164  0.1697 -0.1836  0.0516
26051W        W42525   2.382   1.409   0.684  0.0272  0.2423  0.1519
26052W        W42526   9.261  15.144   3.857 -0.1979 -0.5130 -0.1007
26053W        W42527  13.585  17.275  13.600 -0.5132 -0.2891 -0.3118
26054W        W42528   7.276  14.872  12.947  0.2595  0.0451  0.0553
26055W        W42529  17.424  17.503  14.740  0.2364  0.1905  0.3358
26056W        W42530  13.597  11.125   1.343 -0.2753 -0.0230 -0.0963
26057W        W42531   8.578   4.039  11.731 -0.0332 -0.1098  0.2515
26058W        W42532   8.148   1.703   4.096 -0.0746  0.1071 -0.0808
26059W        W42533   7.688   6.891  12.092  0.2902 -0.1522 -0.2858
26060W        W42534   0.031   6.555  12.169 -0.1280  0.2343  0.0125
26061W        W42535   1.557   8.705  12.143 -0.0078  0.0056 -0.0697
26062W        W42536  12.743   4.540  11.863 -0.1378  0.1171 -0.2068
26063W        W42537   1.803  12.131   0.719 -0.0472 -0.0419 -0.1338
26064W        W42538  11.034   2.601   9.645  0.0029 -0.3158 -0.0140
26065W        W42539   3.552  14.256  14.295  0.1376 -0.1222 -0.1247
26066W        W42540  14.101  16.721   3.620 -0.1028  0.0620 -0.1506
26067W        W42541   3.688   3.499   4.111  0.2306  0.2498  0.1752
26068W        W42542  14.465   7.568   3.649 -0.2545 -0.2380  0.3435
26069W        W42543  14.569   0.196  10.603 -0.1214 -0.1641 -0.3022
26070W        W42544   0.834   0.769   3.537 -0.0822  0.0835  0.1591
26071W        W42545  16.388  15.139   0.470 -0.0659 -0.1684  0.1678
26072W        W42546   6.212  16.721  13.721 -0.1283  0.1613 -0.0960
26073W        W42547   7.319   1.173  12.882 -0.1662  0.0793  0.0622
26074W        W42548  14.868   5.125   0.618 -0.0805 -0.3299 -0.0918
26075W        W42549  10.229  10.242  15.020  0.1603  0.0850  0.3421
26076W        W42550   9.023  16.491   5.998 -0.4626  0.1685 -0.0359
26077W        W42551   1.499  10.088   4.898  0.2414  0.1981 -0.1289
26078W        W42552  10.833  12.261   5.726  0.0969 -0.2309  0.2916
26079W        W42553  12.800  15.227  10.890 -0.1552  0.1964 -0.0386
26080W        W42554   7.496   9.640  12.020 -0.1385  0.1979 -0.2259
26081W        W42555  15.052  17.584  12.294 -0.1793 -0.2548 -0.1105
26082W        W42556  15.186   0.061   5.639  0.3160  0.3104 -0.2338
26083W        W42557   5.017   7.179   0.894  0.1741 -0.1439 -0.1738
26084W        W42558  14.924   9.033   3.896  0.1438 -0.2020  0.1521
26085W        W42559   7.603   2.496   2.845 -0.0467  0.1657  0.5239
26086W        W42560   4.972   7.482   1.918 -0.0960  0.3030 -0.0599
26087W        W42561  13.250   2.117   3.060  0.0486  0.0406 -0.2987
26088W        W42562   6.019  16.572   1.977  0.2562  0.0297 -0.0782
26089W        W42563   6.399  11.466  12.832  0.1349  0.0451  0.3039
26090W        W42564  14.702  10.951  14.875 -0.2301  0.1157  0.0907
26091W        W42565   8.692   5.183   2.563  0.1526  0.3822  0.0131
26092W        W42566  11.493   3.371  15.650 -0.1289  0.2077 -0.1350
26093W        W42567   3.753   5.716  11.902  0.1408  0.0375  0.2344
26094W        W42568   4.939   4.965   2.849  0.0955 -0.3769  0.1037
26095W        W42569  15.874  11.293   1.747  0.1301 -0.2520  0.2251
26096W        W42570  13.001   3.941   4.331  0.0547  0.3969  0.3764
26097W        W42571   9.048  12.071  15.699  0.1240 -0.2122 -0.1751
26098W        W42572  16.717  13.472   2.126  0.2088  0.0389  0.0706
26099W        W42573   8.405  17.724   2.249  0.0329 -0.1406 -0.1899
26100W        W42574   3.511   5.430  15.095  0.2732 -0.0208 -0.0883
26101W        W42575  16.403   7.967   5.352 -0.0185 -0.1486 -0.0127
26102W        W42576   9.531   6.573   0.394  0.0861  0.0979 -0.1422
26103W        W42577  12.877  15.555   5.113 -0.0653  0.1422 -0.3617
26104W        W42578   7.677   0.995   5.104 -0.0785  0.0602  0.0005
26105W        W42579   9.591   3.500   2.155 -0.0052 -0.4412 -0.1935
26106W        W42580  13.327   4.692  13.893  0.0316  0.5837  0.1194
26107W        W42581   5.216   9.828   4.449 -0.1126  0.1890  0.2326
26108W        W42582   3.118   6.184   2.288 -0.0454  0.0865 -0.2302
26109W        W42583  12.548   0.199   4.924  0.1434 -0.4521 -0.0976
26110W        W42584   8.117  12.768  11.074 -0.0346 -0.0633 -0.0173
26111W        W42585   4.096  10.760   3.892  0.1734 -0.0743 -0.2471
26112W        W42586   4.580   6.276  11.311  0.0843  0.0787 -0.2343
26113W        W42587   6.185   6.988  11.839  0.1611 -0.0524 -0.3289
26114W        W42588  16.130  16.540   0.050 -0.2500 -0.1527  0.5265
26115W        W42589  13.657  16.323  11.924  0.2491  0.3625 -0.3647
26116W        W42590  17.849  15.649  11.283 -0.1847 -0.1591  0.2384
26117W        W42591   6.759  17.312   3.975  0.0412  0.1041  0.1894
26118W        W42592   1.574  11.319   1.766 -0.0343 -0.0135  0.2249
26119W        W42593  10.732   2.117   4.003  0.0325 -0.1007  0.2627
26120W        W42594   9.154  11.772   0.113 -0.0979 -0.0356 -0.0735
26121W        W42595   7.359  16.368  12.004 -0.0517 -0.1274 -0.1412
26122W        W42596  10.494  16.094   0.673 -0.2303 -0.2595  0.3327
26123W        W42597   3.170   0.837  13.024 -0.2188  0.4592 -0.2780
26124W        W42598  10.893   2.145   0.433  0.0410  0.1559 -0.2820
26125W        W42599  14.884   6.214  10.975  0.1395  0.1359  0.0602
26126W        W42600   7.766  13.793  12.785 -0.0410 -0.2297 -0.0826
26127W        W42601   8.999   7.375  12.479 -0.0720  0.0378  0.4658
26128W        W42602  10.820   5.425   2.972 -0.2333 -0.1739  0.0654
26129W        W42603   4.672  12.989   1.380  0.0265 -0.1869  0.2430
26130W        W42604   4.200   9.059  15.071  0.1355  0.2430  0.1499
26131W        W42605   7.737  11.787   4.231  0.1873  0.2036  0.0551
26132W        W42606   1.764   0.497   0.798 -0.1548  0.3196  0.0371
26133W        W42607  11.943   7.363  11.975 -0.3561  0.2107 -0.2087
26134W        W42608  13.966  17.783   1.233  0.1976 -0.3204  0.0384
26135W        W42609   3.979  16.813  12.377  0.3458  0.0419 -0.2291
26136W        W42610   2.931   4.027   2.469 -0.1920  0.0979 -0.0125
26137W        W42611  14.928  15.439  13.327  0.2348  0.0944 -0.0530
26138W        W42612   1.259   8.587   3.375 -0.0180 -0.0441 -0.0519
26139W        W42613   4.697   5.549   4.857  0.0353  0.1256 -0.0278
26140W        W42614  11.333  10.163   2.807 -0.0704 -0.1200  0.1851
26141W        W42615   9.411   8.981   2.123  0.4565 -0.1459 -0.0784
26142W        W42616   6.840  11.815   4.045  0.1708 -0.2178  0.0723
26143W        W42617  11.616   4.583  15.462 -0.0509  0.0475 -0.1134
26144W        W42618  11.589  16.324  11.905  0.0512 -0.0034 -0.0934
26145W        W42619  11.043  15.898  12.592 -0.1588 -0.0120 -0.0111
26146W        W42620   5.171   4.263   4.152  0.0343  0.1742  0.0439
26147W        W42621   9.755   7.085  13.887  0.0364  0.3267 -0.3173
26148W        W42622   6.641   7.922   0.626 -0.0188  0.1090 -0.1913
26149W        W42623   9.188   2.829  14.168 -0.1414 -0.2201  0.1532
26150W        W42624  14.265   0.090  10.987 -0.1032  0.0313 -0.1589
26151W        W42625  16.984   9.223  13.721 -0.2109  0.0549  0.1873
26152W        W42626   7.865   0.043   5.398  0.0756 -0.0346  0.1453
26153W        W42627  17.875   8.410   5.472 -0.2073  0.1556  0.0695
26154W        W42628   6.356  12.975  13.422 -0.0656  0.4062  0.0304
26155W        W42629  18.206   2.366   4.108 -0.0434 -0.2886  0.0593
26156W        W42630   9.242  10.491  12.267 -0.1737  0.1842  0.0216
26157W        W42631   6.511  17.118  15.888 -0.3087  0.1021  0.1423
26158W        W42632  12.662   2.486   4.196 -0.1508 -0.0564 -0.1104
26159W        W42633  17.042   8.919  14.189 -0.0316 -0.0952 -0.1119
26160W        W42634   2.534  13.591  10.199 -0.2762  0.1792 -0.4153
26161W        W42635  12.017   6.713   1.557 -0.0426 -0.1264  0.1053
26162W        W42636   4.612  12.795   2.686  0.3859  0.0046  0.1714
26163W        W42637  17.118  14.719  13.643 -0.2080  0.0027  0.2544
26164W        W42638  18.120  16.680  11.520  0.1009  0.2345 -0.1684
26165W        W42639   8.601  10.382  12.060 -0.1915  0.0417 -0.1699
26166W        W42640   3.014   4.452  15.501 -0.2540  0.0532  0.1381
26167W        W42641   4.905  16.254   1.294  0.0361 -0.3194  0.1392
26168W        W42642   5.871   8.200   3.500  0.0595  0.0942 -0.2051
26169W        W42643   1.633   9.396  13.040 -0.0406 -0.1683  0.0970
26170W        W42644   9.888   6.750   0.711  0.2287 -0.0881  0.1356
26171W        W42645  13.804   6.506   0.150 -0.0147 -0.1106 -0.2887
26172W        W42646  11.052  13.557   4.663  0.1389  0.1166 -0.1307
26173W        W42647  13.044  11.687   1.936 -0.3217  0.0053  0.1101
26174W        W42648  15.309   8.374   1.532  0.0310  0.0554 -0.0282
26175W        W42649   0.486  10.483   2.750  0.0655 -0.1193 -0.4330
26176W        W42650  10.344   0.549  12.927 -0.2099 -0.1200  0.4749
26177W        W42651   9.302   7.562  11.466  0.1084 -0.1105 -0.0515
26178W        W42652  14.858  17.353  15.375  0.1003 -0.0689  0.0454
26179W        W42653   0.299   3.200  12.514 -0.2116 -0.1475 -0.1996
26180W        W42654  12.165  17.001  11.607 -0.3101  0.4518  0.0013
26181W        W42655  17.604   9.638  14.750  0.2172 -0.1480 -0.1846
26182W        W42656   2.918  10.895   2.434 -0.2161  0.1139 -0.0545
26183W        W42657   1.959  17.693   1.460 -0.1292 -0.1653  0.2548
26184W        W42658  15.161   6.998   0.059  0.2977 -0.4163 -0.0897
26185W        W42659   8.174  10.381  11.709 -0.0964 -0.0050  0.2424
26186W        W42660  10.095   5.673   1.387 -0.0593  0.0231  0.2582
26187W        W42661   4.963  10.191   6.110 -0.0668  0.1677  0.1717
26188W        W42662   4.954   4.780   4.433 -0.0936 -0.2230 -0.0433
26189W        W42663   0.679   9.779  12.572  0.0985 -0.0729 -0.1750
26190W        W42664   1.468   7.997  14.227 -0.2794 -0.0073 -0.0966
26191W        W42665  10.490  13.565   3.656  0.2484  0.0885 -0.1322
26192W        W42666   3.912  12.809  13.142 -0.2406  0.0517  0.3105
26193W        W42667   0.039  10.908   2.842  0.1802  0.0353 -0.1110
26194W        W42668  15.511  17.358   4.319 -0.1515 -0.0342 -0.3804
26195W        W42669   9.461  13.663   4.639 -0.3183 -0.0295 -0.3061
26196W        W42670   2.225   7.588   5.564  0.0352  0.1222  0.2285
26197W        W42671  17.295   1.133  14.157 -0.0653 -0.0756  0.1469
26198W        W42672   5.236   1.380   2.562 -0.0816  0.0263 -0.2832
26199W        W42673   7.450  11.535   2.013 -0.1074 -0.0467 -0.2501
26200W        W42674  14.555  11.225  12.149  0.2945 -0.0267 -0.1836
26201W        W42675   2.001   9.798  15.483 -0.4273  0.0740  0.0599
26202W        W42676  17.316  16.141  15.816  0.0808 -0.2518  0.0360
26203W        W42677   1.706  10.904  10.450  0.3679  0.3637 -0.1156
26204W        W42678  11.116  11.510   5.044  0.4580  0.0333  0.1317
26205W        W42679  17.962   4.303   4.942  0.2722 -0.1545 -0.2279
26206W        W42680  15.414  16.882   0.687  0.2596  0.4213 -0.0860
26207W        W42681   2.062   7.019   5.631  0.0058  0.0171  0.0683
26208W        W42682  10.136   3.100  12.243 -0.0949  0.3305 -0.0754
26209W        W42683  16.413   5.205   1.809 -0.3278 -0.2174  0.1819
26210W        W42684  17.442   5.320   0.075 -0.0928  0.0053  0.1682
26211W        W42685   3.478   4.885   2.175  0.0875  0.0298 -0.0055
26212W        W42686   3.396   3.924   2.795 -0.0425 -0.1365 -0.0961
26213W        W42687   2.562  15.300   2.859 -0.1113 -0.1908  0.1720
26214W        W42688  14.121   0.971   4.531  0.0632  0.0019  0.1759
26215W        W42689   7.889  15.302  13.954  0.1970 -0.0008  0.0502
26216W        W42690   6.812  11.027  14.056 -0.0454 -0.1800  0.1179
26217W        W42691   7.717  13.291   1.442 -0.1406 -0.2511  0.0103
26218W        W42692   5.579   4.335   3.887 -0.0157 -0.0516  0.1505
26219W        W42693   1.080   4.599   3.911  0.0517  0.1363 -0.3901
26220W        W42694  12.031  18.060   2.767  0.1801  0.4554 -0.1650
26221W        W42695  10.802   0.845  12.872 -0.0747  0.0357 -0.0118
26222W        W42696   7.379   4.902  11.746  0.1960 -0.2772  0.2322
26223W        W42697  14.164   2.971   5.134  0.1395 -0.3139 -0.0655
26224W        W42698   8.996   1.604  13.079 -0.5514  0.2129  0.0113
26225W        W42699  15.270   5.265  13.561 -0.1122  0.0693  0.0639
26226W        W42700   6.178  16.436   4.694 -0.0321  0.2258  0.2600
26227W        W42701  14.859  16.249   3.912 -0.2541  0.2413 -0.2357
26228W        W42702  15.758  15.590  13.844  0.4327  0.0465 -0.1620
26229W        W42703  18.037  11.380   3.183  0.1116  0.1041 -0.1514
26230W        W42704   9.083  14.826   0.062 -0.1081 -0.2034  0.2376
26231W        W42705  13.072  10.605   0.043  0.3941  0.0893  0.0862
26232W        W42706  11.139  15.470   0.676  0.0510 -0.0143  0.2054
26233W        W42707   7.426   2.153   2.493 -0.1990  0.2979  0.0561
26234W        W42708  13.697  11.873   5.302 -0.2997 -0.0122  0.1552
26235W        W42709   6.930  12.278   3.914  0.0799  0.0753 -0.1940
26236W        W42710   3.416   6.374   4.162 -0.0026  0.0311  0.1050
26237W        W42711   0.133   8.143  11.413 -0.0216  0.1337  0.3614
26238W        W42712   4.377  10.263  14.319  0.1419 -0.1469  0.0150
26239W        W42713   6.247   3.086   0.593  0.0297 -0.1172  0.0266
26240W        W42714  15.096  17.496  11.794 -0.3641  0.2155  0.1824
26241W        W42715  17.136   6.907   2.676 -0.1003  0.0394 -0.1471
26242W        W42716   3.536   0.591   4.201 -0.0549 -0.0367  0.0256
26243W        W42717  10.570   3.082  11.505 -0.0058 -0.1787 -0.0999
26244W        W42718   3.834  18.144  11.425 -0.0977  0.3473 -0.0057
26245W        W42719   1.624  12.255   5.819  0.0577  0.3692 -0.0269
26246W        W42720  10.349  11.119  15.429  0.2742  0.0362 -0.1203
26247W        W42721  12.767   9.912  15.533  0.1494  0.0105  0.1212
26248W        W42722  17.612  13.496  12.287 -0.0651 -0.2038  0.2337
26249W        W42723   8.713  11.325  12.052 -0.0714  0.0126  0.5202
26250W        W42724  14.952  12.401  14.371  0.2508 -0.0351  0.0354
26251W        W42725  14.671   7.122  15.783  0.1154 -0.4148 -0.1135
26252W        W42726   0.205  17.732  14.883 -0.2930 -0.0800  0.2524
26253W        W42727  13.060   6.578   4.989  0.0380  0.1467 -0.2134
26254W        W42728   6.428  13.710  10.632  0.0541 -0.0083 -0.1985
26255W        W42729  15.041  12.086   3.929 -0.0188  0.1551 -0.1534
26256W        W42730   7.599  16.705   0.342 -0.0266 -0.2980 -0.3870
26257W        W42731  10.217  16.171  10.545 -0.1445  0.1102 -0.0611
26258W        W42732   3.195   4.919  13.732  0.1936 -0.0381 -0.0922
26259W        W42733  14.228   2.584   3.085 -0.1164 -0.0634 -0.4440
26260W        W42734   6.214   4.733  12.570  0.1963 -0.0683 -0.1472
26261W        W42735  17.923  10.146  11.274 -0.0666 -0.2547  0.0199
26262W        W42736  10.840  12.687  12.508  0.0123 -0.1617 -0.0741
26263W        W42737  16.458   5.877  14.245 -0.0905  0.1894 -0.1674
26264W        W42738   7.881   2.791  15.745  0.0489  0.2844 -0.2187
26265W        W42739  12.050   9.167   5.597  0.1165  0.0303 -0.1219
26266W        W42740   9.636   4.412  14.315  0.0819 -0.0763  0.2524
26267W        W42741   9.652   1.233  15.795 -0.0008 -0.2248  0.0095
26268W        W42742   9.012  16.870  10.476 -0.1672 -0.0670  0.1314
26269W        W42743  12.046   8.967   0.378 -0.0579  0.2065 -0.1508
26270W        W42744   9.125  15.120   0.787  0.0086  0.0841 -0.0177
26271W        W42745  12.570   6.938  15.231 -0.4191 -0.1252 -0.1014
26272W        W42746   5.431  14.919  13.109 -0.1017 -0.0343  0.1350
26273W        W42747   8.904  11.788   5.524  0.0916 -0.1974  0.2528
26274W        W42748  15.872  13.072   6.098  0.2831 -0.2215  0.4435
26275W        W42749   8.538   9.602  11.615 -0.1938  0.4408  0.1142
26276W        W42750  10.775  13.728   1.099  0.0584 -0.2178  0.0531
26277W        W42751   8.092   7.005   0.279  0.0623 -0.0552  0.0309
26278W        W42752   3.857  10.113  14.270 -0.4590 -0.1023  0.0555
26279W        W42753   4.900  10.373  15.607  0.1970 -0.2265  0.2017
26280W        W42754   8.437   1.935  11.570  0.0060  0.1188  0.5163
26281W        W42755   7.373  11.621   3.257  0.0542 -0.0473 -0.1690
26282W        W42756   0.090   2.635  14.158 -0.2217  0.2957  0.0296
26283W        W42757   2.046   9.026  10.870 -0.0740 -0.0274  0.3255
26284W        W42758  17.286  15.047  11.654  0.0737 -0.3186  0.0448
26285W        W42759  10.488  12.572  12.180  0.0877 -0.1538 -0.1280
26286W        W42760   5.260  13.731  12.855 -0.1645  0.1247  0.1035
26287W        W42761   2.657   1.356  11.653 -0.3448  0.2362 -0.0906
26288W        W42762  10.691  10.323  14.780 -0.0153  0.2411  0.3161
26289W        W42763  10.730  13.026   1.241  0.0573  0.0102 -0.1539
26290W        W42764   5.851   0.916  15.867 -0.1675 -0.0472  0.2472
26291W        W42765  15.869   3.671  12.351 -0.0794  0.1309 -0.0856
26292W        W42766   3.976   1.389   3.120 -0.2034 -0.0054 -0.2738
26293W        W42767   4.213   1.431  15.896 -0.0206  0.2561  0.3937
26294W        W42768   8.084   1.328  10.670  0.0812 -0.1125  0.0891
26295W        W42769   0.039  15.662  14.447 -0.1209 -0.1519 -0.1054
26296W        W42770  10.150   3.553  12.435  0.0196  0.0490 -0.0777
26297W        W42771   3.305   2.822  14.377 -0.2293 -0.1613  0.1017
26298W        W42772   4.576   2.468   4.062 -0.0473  0.1470  0.1736
26299W        W42773   0.296  18.220  15.361 -0.0319  0.0356 -0.0845
26300W        W42774   5.475   8.176   1.365 -0.1283 -0.3894 -0.1533
26301W        W42775  18.414   4.208   3.475 -0.0899 -0.0929 -0.1833
26302W        W42776   6.381  14.723   4.175  0.0128  0.1689 -0.1939
26303W        W42777   1.155   5.869  12.994  0.2516 -0.0471  0.1006
26304W        W42778  12.936   5.608   3.223  0.1399  0.1017  0.0407
26305W        W42779   4.928   5.588  15.640  0.2747 -0.2471 -0.0689
26306W        W42780   4.211  12.494   0.727  0.0410  0.0668  0.2810
26307W        W42781  15.543  13.548   0.660  0.2737  0.3095 -0.0980
26308W        W42782   8.040  17.330   2.636 -0.1307  0.2484 -0.0973
26309W        W42783  14.672   1.308  15.014 -0.0599  0.0194  0.2655
26310W        W42784   6.281   1.455  15.283  0.1564  0.2090 -0.1669
26311W        W42785  14.263  11.821  10.806 -0.2478  0.5340  0.2390
26312W        W42786   5.690  15.223   4.295 -0.0734  0.0574 -0.0069
26313W        W42787   9.955  18.442  15.405  0.0324  0.2356  0.3544
26314W        W42788   3.468  10.400  13.269  0.0331  0.2444  0.0416
26315W        W42789   7.025   9.228  15.935 -0.0443 -0.0350 -0.0825
26316W        W42790   7.985  16.519   4.036 -0.0094  0.1577 -0.1894
26317W        W42791  11.349   1.694  14.648  0.0767  0.1620  0.3569
26318W        W42792   8.972   0.334  14.370 -0.0084 -0.3129  0.0458
26319W        W42793  16.376  15.244  11.867  0.0803  0.2237  0.1107
26320W        W42794   8.045   2.066  11.267  0.1876 -0.3495 -0.3159
26321W        W42795  13.975   5.250  13.474 -0.0662 -0.2228 -0.3064
26322W        W42796   2.082   3.284  13.310  0.0534  0.0676 -0.0760
26323W        W42797  11.953  10.241   5.023 -0.0421 -0.0546 -0.2810
26324W        W42798  15.505  17.051   5.605  0.2216  0.0261  0.0552
26325W        W42799  17.037   4.428  11.136 -0.1619 -0.3754 -0.2627
26326W        W42800  17.129  12.128   4.797 -0.1079  0.0358  0.2224
26327W        W42801   2.139  12.359  13.181  0.1508 -0.2717 -0.3660
26328W        W42802  17.100   3.364   4.674  0.0293 -0.1372  0.2759
26329W        W42803  12.556   3.630  15.548 -0.0209 -0.2918  0.0114
26330W        W42804   4.766   6.562  12.353  0.2605  0.1685  0.0158
26331W        W42805  10.592   1.546   9.387 -0.2476  0.0259  0.0900
26332W        W42806   0.884  14.666  12.232  0.0064  0.0840  0.1768
26333W        W42807  14.076   6.387  14.013  0.3850  0.2204 -0.1148
26334W        W42808  13.572   7.262  15.476 -0.0378 -0.1890 -0.1799
26335W        W42809   2.651   8.247   1.474  0.1239 -0.3801  0.1271
26336W        W42810  16.622   0.551   0.254 -0.0524 -0.2124 -0.1441
26337W        W42811   2.613  11.891  12.038  0.0943 -0.0098  0.1424
26338W        W42812  12.629   7.836   3.215  0.1786  0.2564  0.2395
26339W        W42813  17.963   3.993  10.328 -0.0227 -0.0838 -0.0540
26340W        W42814   8.186  16.618   2.958  0.4608  0.2607 -0.3981
26341W        W42815   3.206   3.781  12.904 -0.1377  0.0666  0.2172
26342W        W42816   7.264   3.339  15.249  0.1730  0.3510 -0.0434
26343W        W42817  12.872  12.149   3.290  0.0759 -0.1181 -0.1970
26344W        W42818  14.320  13.010  11.478  0.1091  0.1361  0.0093
26345W        W42819   6.478  13.690   0.681 -0.0765  0.3706 -0.0247
26346W        W42820  13.074  15.108   0.128  0.1483  0.0083 -0.0062
26347W        W42821  12.019  13.627   3.849 -0.1334  0.1189  0.3723
26348W        W42822  11.926   6.119   3.067  0.2738  0.3114 -0.0079
26349W        W42823   1.067   3.927  12.231  0.0008 -0.2547 -0.1857
26350W        W42824   7.179  10.146   0.467  0.1114  0.0029  0.1706
26351W        W42825   1.815   3.749   0.657  0.2289 -0.0290  0.2455
26352W        W42826   3.898  16.388   5.251 -0.1583 -0.1722 -0.0878
26353W        W42827  14.873  17.264   5.229 -0.0026 -0.1138  0.2946
26354W        W42828  10.581  16.195  14.528 -0.0085 -0.4697 -0.2551
26355W        W42829  10.414  17.823   5.185 -0.1939  0.2598 -0.1618
26356W        W42830   7.574  12.821   0.344 -0.0251 -0.0703  0.0026
26357W        W42831   1.091   2.793  10.618  0.1260  0.2388 -0.0783
26358W        W42832   0.387   1.100  12.051 -0.1115 -0.0405 -0.0262
26359W        W42833   6.792   1.800   4.469  0.0525  0.0610  0.1760
26360W        W42834  15.467   2.660   1.782  0.1564 -0.0006  0.0752
26361W        W42835  10.369  15.768   4.920  0.2735 -0.2158  0.1003
26362W        W42836  13.561  10.875   3.690 -0.3575 -0.0376  0.0585
26363W        W42837  15.608   3.123  12.975 -0.1266  0.0579 -0.1267
26364W        W42838   4.376  17.459   4.464  0.0171  0.1218 -0.1186
26365W        W42839   1.156   7.378  11.449  0.1431  0.0744 -0.1520
26366W        W42840   7.829   3.490  11.646 -0.0340 -0.0087 -0.2173
26367W        W42841   7.768   7.048   4.843  0.2851  0.1936 -0.0073
26368W        W42842  11.399   3.900  14.821 -0.0653 -0.0305  0.0366
26369W        W42843  18.161  13.265   3.962 -0.1788  0.0345  0.0670
26370W        W42844  12.143  15.937  15.667 -0.1004  0.1175  0.2846
26371W        W42845  13.060  11.105  13.360  0.2464  0.1399 -0.3538
26372W        W42846  12.894  16.258  15.252 -0.0046  0.2430  0.1806
26373W        W42847   3.049   7.659   0.186  0.0016 -0.3365 -0.0853
26374W        W42848  10.772  11.053   3.293  0.1141 -0.1477 -0.0258
26375W        W42849   3.141   5.022   1.595  0.0356  0.0465  0.0256
26376W        W42850   7.550  16.731   5.978 -0.0324 -0.3175  0.1933
26377W        W42851  15.193   1.054  14.370 -0.0072  0.0610  0.0846
26378W        W42852  10.949  15.935   1.718 -0.0326 -0.0005  0.3714
26379W        W42853  11.553  11.528  14.119 -0.0452  0.0043  0.0227
26380W        W42854   5.422   7.421  15.228  0.0774  0.2012  0.0120
26381W        W42855   5.946  15.913   2.941 -0.0983  0.1203 -0.0966
26382W        W42856  12.633   0.421   0.857 -0.0211  0.0291 -0.2265
26383W        W42857   9.455   0.470   4.949 -0.2272 -0.0630 -0.0599
26384W        W42858   1.691   0.371   2.631 -0.0292  0.0236  0.2531
26385W        W42859  17.134  13.828   2.707 -0.0241 -0.0229 -0.0848
26386W        W42860   8.890  10.670  11.799 -0.4500  0.1602  0.2012
26387W        W42861  15.068  11.531  15.605 -0.0566  0.0928  0.2845
26388W        W42862  12.698  10.917  11.558 -0.1438 -0.0681 -0.2071
26389W        W42863   2.802  15.378  11.805  0.1309 -0.1611  0.1966
26390W        W42864  13.916   2.450   2.099  0.2731 -0.0879 -0.1773
26391W        W42865   9.276  17.629  13.999  0.1060 -0.2119  0.2355
26392W        W42866   4.403  15.161   3.951 -0.4130 -0.4350 -0.0086
26393W        W42867   3.390   1.064  14.950  0.0734  0.3095 -0.1075
26394W        W42868  18.273  16.211  12.787 -0.0252 -0.0360 -0.3417
26395W        W42869  11.020   2.044  13.250  0.0796  0.1062 -0.2247
26396W        W42870  13.024  11.699   0.950  0.0787  0.1021 -0.0587
26397W        W42871  14.361  18.030   3.503  0.1321 -0.1175 -0.2385
26398W        W42872  10.861   4.077   3.073  0.1756  0.0728  0.1811
26399W        W42873   1.551   1.829  15.721 -0.4800  0.1057 -0.0643
26400W        W42874  13.872   8.714  13.565  0.1573 -0.0922 -0.1988
26401W        W42875   9.647  11.333   0.113  0.1084 -0.1135  0.1686
26402W        W42876  11.235  13.053  14.821 -0.1617 -0.1815  0.5498
26403W        W42877   3.557   1.967  11.548 -0.1259 -0.1482  0.0224
26404W        W42878  16.950  18.145   6.026 -0.0138  0.0827  0.2109
26405W        W42879  10.147   2.392   2.688 -0.0920  0.0379  0.1451
26406W        W42880   3.197  11.287  12.039 -0.1619  0.1397  0.0023
26407W        W42881  15.997   9.248  10.838  0.1398 -0.1019  0.1139
26408W        W42882   3.995  12.180  15.920  0.1758 -0.1012 -0.0673
26409W        W42883   2.129   5.250  15.869  0.3454  0.2562  0.1544
26410W        W42884  12.623  16.553   4.077  0.0012  0.1598 -0.1277
26411W        W42885   9.064  13.407  12.471  0.0308 -0.0445  0.1000
26412W        W42886   9.435  11.283   2.620 -0.3183  0.3499  0.1710
26413W        W42887  11.789   8.555  11.897  0.0030 -0.0462  0.1817
26414W        W42888   5.849  12.395  11.740  0.0748  0.6031  0.0892
26415W        W42889   0.397   2.266   1.132 -0.1180  0.1239 -0.0009
26416W        W42890   9.333   4.679   3.643  0.1147 -0.1166 -0.0178
26417W        W42891  10.865   5.977  15.467  0.1485 -0.3026 -0.1575
26418W        W42892   3.131   1.327   0.180  0.0584  0.3342  0.0914
26419W        W42893  10.083   2.777   0.275  0.0391  0.2196 -0.1475
26420W        W42894   4.616   0.135   0.071 -0.0999 -0.0224  0.1720
26421W        W42895   4.516   7.577  10.670  0.0650 -0.2153  0.0064
26422W        W42896  18.240  12.751  15.483  0.1486  0.0388  0.1112
26423W        W42897   7.351  18.013   4.082  0.2986 -0.1520 -0.3693
26424W        W42898  11.129   5.594  12.631  0.0268  0.3409 -0.0702
26425W        W42899   0.813   2.064  13.657 -0.2230  0.0203 -0.0026
26426W        W42900   8.272  10.148   5.610  0.0832  0.1541 -0.3025
26427W        W42901  16.831   1.193  11.742 -0.0311  0.3742 -0.1119
26428W        W42902  14.413   5.671  11.310 -0.3373 -0.2646 -0.2148
26429W        W42903   8.441   0.494   2.996 -0.0448 -0.2787 -0.0180
26430W        W42904  16.895  12.532   2.643 -0.2916  0.1282 -0.2128
26431W        W42905  12.404   8.274  14.636 -0.1644  0.1949 -0.1273
26432W        W42906   8.742   6.259  15.125  0.3860  0.0622 -0.3381
26433W        W42907  11.611  12.652   6.068 -0.0231  0.4523 -0.0567
26434W        W42908   9.384  13.419   3.266 -0.3152  0.1671  0.2535
26435W        W42909  13.962   5.783  11.133 -0.0328 -0.1830  0.4239
26436W        W42910  14.218  18.056   4.327 -0.0387 -0.2847  0.2629
26437W        W42911   2.996   4.407   1.003  0.2897  0.0282  0.0341
26438W        W42912  17.014  14.379   3.418 -0.0264 -0.2635 -0.2097
26439W        W42913  18.011  12.788   3.823  0.0354 -0.3274  0.1704
26440W        W42914  17.750   8.809  13.815 -0.0447  0.0472 -0.0244
26441W        W42915   6.124  13.761   4.266  0.3165  0.1650  0.3559
26442W        W42916   0.797   1.233   3.374  0.2094  0.0226  0.2176
26443W        W42917   4.594   7.366  14.424 -0.1868  0.1872  0.0071
26444W        W42918  17.278   4.266   9.851  0.1141 -0.2186  0.0084
26445W        W42919  10.084  17.267   2.842  0.1920 -0.2103 -0.0890
26446W        W42920   6.516   6.511   4.418 -0.4374  0.0508  0.0670
26447W        W42921  16.497   7.887   2.512  0.1057  0.2171 -0.4426
26448W        W42922   7.652  14.483  13.797  0.0543 -0.1502  0.0744
26449W        W42923  13.764  17.060  14.031 -0.0802 -0.1577 -0.1260
26450W        W42924  14.845   3.625   2.068 -0.0962 -0.1961  0.4927
26451W        W42925   3.546  10.854  13.004 -0.0133 -0.0398 -0.2315
26452W        W42926   2.517   7.564  11.312 -0.1581  0.0655 -0.1111
26453W        W42927  11.855  17.220  15.037 -0.0489  0.3530 -0.1726
26454W        W42928   4.219  15.472  14.606 -0.0180 -0.2232  0.0519
26455W        W42929  16.434   1.416  15.653  0.0385  0.0869 -0.2727
26456W        W42930   4.713  10.677  14.452  0.0770 -0.4265  0.1742
26457W        W42931   7.432   8.931  15.732  0.3017  0.0710  0.5107
26458W        W42932   8.545  11.107  13.968  0.2082  0.4261 -0.0068
26459W        W42933   8.616   1.006   4.028  0.2145 -0.1334  0.2359
26460W        W42934   2.975   5.279  11.634  0.0468  0.0742 -0.2987
26461W        W42935   8.119  17.802  10.693  0.1709  0.4518 -0.1672
26462W        W42936   7.495   1.151  14.719  0.1215  0.0266 -0.0583
26463W        W42937   3.490   6.662  13.118 -0.0409 -0.3804  0.1467
26464W        W42938   1.332  12.734   2.232 -0.2328  0.1596  0.2655
26465W        W42939   5.043   0.838  11.696  0.0652  0.4903 -0.2999
26466W        W42940  15.926   4.880  14.883 -0.2890 -0.0912  0.0653
26467W        W42941   4.162  11.784   5.058 -0.4763  0.3373  0.2973
26468W        W42942  10.574   9.879  11.778 -0.1379 -0.0663  0.3817
26469W        W42943  11.174   0.358  15.398 -0.0686 -0.1006 -0.0990
26470W        W42944   5.071   3.412   2.936  0.2119  0.0447  0.0702
26471W        W42945  11.489   6.216  12.641 -0.1039 -0.3882  0.1431
26472W        W42946  18.447   6.877   2.185  0.1087 -0.1747 -0.1519
26473W        W42947  12.130   3.001  10.960  0.1354  0.2761  0.1282
26474W        W42948   1.863  17.669   0.296 -0.0447 -0.2370 -0.5013
26475W        W42949   3.289   5.765   1.016 -0.1853  0.2578 -0.0883
26476W        W42950  12.744   3.746   0.641 -0.0280  0.0868 -0.2692
26477W        W42951  18.091  13.058  11.084  0.1264 -0.1392 -0.1343
26478W        W42952  12.831   2.901   0.766 -0.0148  0.4516  0.0366
26479W        W42953  17.368   1.287   4.530  0.1639  0.0590  0.0754
26480W        W42954   5.271   5.622  10.656  0.0058  0.0111  0.2441
26481W        W42955  11.265  10.836   5.426  0.0668  0.3497 -0.1853
26482W        W42956   2.954   1.961  14.178 -0.2661  0.2233  0.1180
26483W        W42957  16.208   0.864   0.331  0.0560  0.0909 -0.2501
26484W        W42958   1.941  12.915  13.246  0.1863 -0.2980 -0.2374
26485W        W42959  16.188   2.271  15.724 -0.0519 -0.0605  0.1954
26486W        W42960   6.694  13.103   4.196 -0.2479  0.0457  0.1026
26487W        W42961  11.500   9.531  13.030  0.1419 -0.1434  0.1256
26488W        W42962  15.439  12.692  15.265  0.0045 -0.1233 -0.0353
26489W        W42963   1.072  10.706  13.456  0.0895  0.0786 -0.4343
26490W        W42964  16.149  14.188  11.879  0.0323 -0.0879 -0.3097
26491W        W42965  15.743   0.729   1.819  0.0973 -0.0053  0.1701
26492W        W42966  16.776  11.757   1.635 -0.0847 -0.0063  0.1165
26493W        W42967   7.322   9.414  11.156 -0.1178  0.3310 -0.0955
26494W        W42968  13.294   8.897  12.242 -0.0881  0.1244  0.2400
26495W        W42969   4.364  11.726  14.656 -0.3807  0.1503  0.3494
26496W        W42970  10.107   2.409  11.569 -0.0908  0.2390  0.1445
26497W        W42971   0.688  14.944   1.269  0.2733 -0.2589  0.0756
26498W        W42972   3.898  11.827   5.629  0.0916 -0.2133 -0.0877
26499W        W42973   9.658  16.150  14.002  0.2935  0.1534  0.2609
26500W        W42974   5.440   3.883  11.590  0.0937 -0.4456  0.1222
26501W        W42975  12.665   5.982   2.320  0.0254  0.2070  0.1032
26502W        W42976   8.399   4.805   4.721  0.0566 -0.1302  0.0729
26503W        W42977  10.736   0.402  14.078  0.0802  0.0035 -0.2121
26504W        W42978   6.160  10.765  13.449  0.2525  0.0608  0.0361
26505W        W42979   7.144   1.661  11.161  0.0024 -0.2942 -0.1154
26506W        W42980  11.185  12.522  12.109  0.3449  0.0392 -0.0534
26507W        W42981   4.008   2.644  13.289 -0.1778 -0.2200 -0.0044
26508W        W42982   5.900   8.458  14.303  0.2252 -0.1906  0.4630
26509W        W42983   3.513  14.150  13.354 -0.0997  0.0919  0.0993
26510W        W42984  13.015   2.384   2.228 -0.1199  0.0263 -0.0121
26511W        W42985   5.499   3.078   5.457  0.2441 -0.0184  0.0177
26512W        W42986  15.866   6.455  14.863  0.2809  0.0055 -0.0075
26513W        W42987   8.473   6.878  11.814  0.1635 -0.0069  0.0171
26514W        W42988   4.431  14.354   2.175  0.1878  0.0749 -0.1469
26515W        W42989  11.350  11.762  12.561  0.3235 -0.0549  0.1713
26516W        W42990   6.243  16.072  11.339  0.1036 -0.1114 -0.1531
26517W        W42991   3.786   1.438  14.894 -0.2417 -0.0829 -0.1561
26518W        W42992  12.714  11.936  14.255  0.0655 -0.0455 -0.1911
26519W        W42993  15.534  15.493  11.637 -0.1173  0.2523 -0.0331
26520W        W42994  16.036   6.993  12.258  0.1633  0.1621 -0.1506
26521W        W42995  14.602   2.367   2.741  0.2729 -0.5752  0.2567
26522W        W42996  16.543   1.902   1.504  0.1454  0.2288 -0.1458
26523W        W42997  12.293  10.033  13.543  0.2762 -0.0327 -0.1459
26524W        W42998   8.796   7.166   0.763 -0.0662 -0.1833  0.1161
26525W        W42999  13.669   2.725   5.172 -0.1123 -0.0428 -0.0031
26526W        W43000  11.571  16.394   2.694 -0.4089 -0.0449 -0.0695
26527W        W43001  15.393   0.487   0.974  0.1525  0.1413 -0.0383
26528W        W43002   0.351  13.828  14.728 -0.2086 -0.2678 -0.2417
26529W        W43003   9.277   5.822  12.863 -0.1943 -0.2009  0.2974
26530W        W43004   8.063  12.038  11.985  0.2353  0.0870 -0.4230
26531W        W43005   0.671  18.320   5.325 -0.0308 -0.0157  0.1913
26532W        W43006  14.890  13.231  13.111 -0.1098 -0.2115  0.2995
26533W        W43007  16.924   4.475  14.375 -0.2076  0.3022 -0.1069
26534W        W43008   6.785   7.925   4.423 -0.1022 -0.1377  0.1327
26535W        W43009  15.886   4.096   1.535  0.2799 -0.1927  0.1990
26536W        W43010   0.337  17.810   3.716 -0.0019 -0.0039  0.1600
26537W        W43011   8.940  15.504   3.716  0.0158  0.1569  0.0243
26538W        W43012   2.430   5.128  12.992 -0.4096 -0.1582  0.1231
26539W        W43013  12.521   0.805   4.193 -0.1362 -0.1513 -0.2186
26540W        W43014   5.167   8.601  13.280  0.0144 -0.3095 -0.1459
26541W        W43015   3.254  13.210  11.774  0.2506 -0.1858 -0.1748
26542W        W43016   3.041  12.189   1.892 -0.0991 -0.1008  0.0529
26543W        W43017  10.101  18.267  15.835  0.1622 -0.1832  0.2143
26544W        W43018  17.191   9.585  13.303 -0.2862 -0.1817 -0.3725
26545W        W43019   2.553  16.850   1.055 -0.1009 -0.0620 -0.3662
26546W        W43020   9.022  12.738   4.827 -0.0698  0.1188  0.1673
26547W        W43021  18.004  11.831  13.605 -0.2015 -0.1934  0.1530
26548W        W43022   8.226  10.191   4.425 -0.1033  0.0922  0.3461
26549W        W43023  11.553   6.359   4.927  0.0144 -0.0440  0.2312
26550W        W43024  12.133  13.741  13.248  0.1692 -0.0032  0.0544
26551W        W43025   3.997  17.494  12.216 -0.0635 -0.1922  0.1426
26552W        W43026   8.342   6.891  13.936 -0.1039 -0.0555 -0.0918
26553W        W43027   8.548  15.826   3.630 -0.0445  0.0968 -0.0658
26554W        W43028  12.572   5.803   0.031  0.0055 -0.0370  0.4421
26555W        W43029  15.041   0.128  15.138  0.3464  0.0452  0.1316
26556W        W43030   7.492   0.749   3.449 -0.0791 -0.2662 -0.0522
26557W        W43031   0.034   1.756   5.191  0.1899  0.0932  0.2786
26558W        W43032  11.743  16.476   1.920  0.0310 -0.2139 -0.0107
26559W        W43033  16.873   2.601  12.645  0.0292  0.1179 -0.0254
26560W        W43034  10.050   3.576  14.999 -0.0061  0.3154  0.2551
26561W        W43035   6.753  15.757  12.514  0.0337  0.2581  0.1684
26562W        W43036  12.045   1.373   2.118  0.1587 -0.2510  0.1817
26563W        W43037  10.350  10.668  15.835 -0.1859 -0.1970  0.0270
26564W        W43038   5.822  17.186  11.736 -0.0935  0.0479  0.2215
26565W        W43039  10.110   1.635   4.545  0.0019 -0.0772  0.2082
26566W        W43040   3.014   0.245   3.095 -0.1368  0.0126 -0.4073
26567W        W43041  13.627   7.620   3.975 -0.1041  0.0829  0.0328
26568W        W43042   2.530  12.456   0.226 -0.1672  0.1977 -0.0920
26569W        W43043   0.357  13.353   1.567 -0.0077 -0.0491  0.1575
26570W        W43044   2.045  16.059  14.015  0.0583  0.0123  0.0725
26571W        W43045   9.000  13.063  13.220  0.0079 -0.0311 -0.1694
26572W        W43046   4.896  10.962   2.779 -0.2298  0.2557  0.0914
26573W        W43047  15.383  11.497  13.317 -0.1036 -0.1321  0.1469
26574W        W43048  17.860  14.128  11.791  0.0685 -0.0549 -0.1959
26575W        W43049   2.078   5.329   5.514 -0.1306 -0.1830 -0.1926
26576W        W43050  13.422   3.212   5.370  0.0860 -0.2553 -0.1401
26577W        W43051   0.499  12.977  15.082 -0.2606  0.2641 -0.1286
26578W        W43052   9.872   4.196   5.036 -0.1053 -0.1433  0.3336
26579W        W43053   6.760   1.896  10.979 -0.1623  0.0204  0.0243
26580W        W43054  16.943   7.959  10.969 -0.2134  0.1333 -0.1150
26581W        W43055   2.820  17.250   5.025  0.2665  0.1290 -0.0067
26582W        W43056   4.035  17.974  13.036  0.0569 -0.2623  0.0037
26583W        W43057  15.438   0.220   4.035  0.0220 -0.1546  0.2676
26584W        W43058   6.242   6.672  12.827  0.1011  0.3861  0.0540
26585W        W43059   9.226  10.839   5.082  0.1184  0.2078  0.0055
26586W        W43060   7.955  14.421  15.777 -0.0829 -0.0030  0.1255
26587W        W43061   1.396  11.800   5.492 -0.1101  0.0876  0.1976
26588W        W43062  13.718   7.863  11.433 -0.0553 -0.1708 -0.0454
26589W        W43063   9.186  14.057  15.507 -0.4006  0.1323 -0.2849
26590W        W43064   3.179   3.179   1.649  0.0428  0.1989 -0.2622
26591W        W43065  15.095   9.672   3.006  0.1111 -0.1043 -0.1334
26592W        W43066   5.979   5.242   2.025 -0.3250  0.1245  0.0864
26593W        W43067   1.977  14.152   0.349  0.2473 -0.2903  0.4441
26594W        W43068   0.910  14.530   0.489  0.1832  0.2979  0.4076
26595W        W43069  15.929   8.633   4.638 -0.2247 -0.3638 -0.3746
26596W        W43070   8.721   7.220  13.726 -0.0894  0.1273 -0.0518
26597W        W43071   6.067   1.406  15.724 -0.1265  0.0238 -0.1406
26598W        W43072  14.249  11.511  15.644  0.2105  0.2898  0.2451
26599W        W43073   4.527   0.736  12.287  0.1015 -0.1073  0.0406
26600W        W43074  12.278  17.604   2.803 -0.0229  0.0502 -0.3748
26601W        W43075   6.082   3.192   1.117 -0.0369  0.0360 -0.0352
26602W        W43076   0.952  13.882   1.979  0.1234  0.1528 -0.1444
26603W        W43077   9.594  10.096  14.157 -0.1684 -0.1149  0.0153
26604W        W43078  11.749   9.801  15.214 -0.0787 -0.1355  0.2598
26605W        W43079   8.568  16.262  14.625  0.3376  0.3615 -0.1755
26606W        W43080   5.321  18.184  13.236 -0.1202  0.0285 -0.0727
26607W        W43081   1.619  10.681  12.215 -0.0077 -0.0059  0.1973
26608W        W43082  17.364   5.345   4.710  0.1228  0.0394  0.1309
26609W        W43083   4.082  17.839  13.689 -0.0565  0.1297 -0.1755
26610W        W43084  11.520   5.478  13.691  0.1351  0.2059  0.2518
26611W        W43085   5.700   9.210   2.580  0.0123  0.0080  0.1510
26612W        W43086  17.700   9.761  14.226  0.1935 -0.0673  0.2513
26613W        W43087   9.483   1.116  10.643 -0.0026  0.2071 -0.0165
26614W        W43088   6.732   4.010  11.016  0.2337  0.0662 -0.1142
26615W        W43089   2.850  13.879   3.209 -0.1853 -0.0956  0.0136
26616W        W43090   4.561  13.160   3.641  0.0273 -0.0422 -0.2135
26617W        W43091   3.283   8.474  10.950  0.2240  0.0315  0.1170
26618W        W43092   3.076  14.709   2.146  0.1135 -0.0741  0.2380
26619W        W43093   4.849  16.375   2.224  0.2767  0.2327 -0.0260
26620W        W43094  14.972   8.994   4.810  0.1856  0.0121 -0.3469
26621W        W43095  15.570   1.937   2.113  0.1261  0.3978  0.0367
26622W        W43096   2.940  11.452   1.262 -0.0934 -0.0737 -0.0522
26623W        W43097  16.320   9.085  11.253 -0.1789 -0.1074  0.0946
26624W        W43098  13.972  12.886   0.157  0.1062 -0.1838 -0.1129
26625W        W43099   8.583   3.716  12.693 -0.1982 -0.1948  0.1532
26626W        W43100   9.017  16.490   4.174  0.3393  0.0580 -0.0119
26627W        W43101   6.884   3.668  12.608 -0.2406 -0.0698 -0.0673
26628W        W43102   2.172   3.528   1.696 -0.0304 -0.1915 -0.1462
26629W        W43103   5.407  12.878   1.511 -0.4327  0.0368  0.2017
26630W        W43104   7.010   2.825  13.192  0.1366  0.2498 -0.0886
26631W        W43105   8.002  17.748   4.827 -0.3422 -0.1762  0.0738
26632W        W43106   9.583   7.095  12.781  0.0949  0.2064  0.0020
26633W        W43107   2.011  14.570  13.158  0.2049  0.1437  0.0099
26634W        W43108  11.410  15.506   2.918 -0.1964  0.1396  0.2235
26635W        W43109  18.177   4.476   1.900  0.3297 -0.0981  0.4111
26636W        W43110   3.880   6.141  14.849 -0.1481  0.2280  0.0417
26637W        W43111   2.409  10.911   4.946  0.1576 -0.1598  0.3358
26638W        W43112  12.357   8.581  11.482 -0.0071 -0.2384 -0.2991
26639W        W43113  14.248  18.344   1.056  0.2034  0.1884  0.1680
26640W        W43114  14.686   0.332  11.179  0.1441 -0.0510 -0.0666
26641W        W43115  17.659   8.060  13.196  0.1086 -0.0126  0.0411
26642W        W43116   5.285   8.530   4.674 -0.0595 -0.0599 -0.4079
26643W        W43117  10.384   9.002  12.893 -0.0915 -0.0909  0.2577
26644W        W43118   5.696   7.270   4.892  0.0154 -0.1040 -0.1300
26645W        W43119  12.501   4.552  14.726 -0.2109  0.0142  0.0314
26646W        W43120   5.196   4.137  13.043 -0.0471  0.0821  0.0534
26647W        W43121  16.523   3.394  14.173  0.0707 -0.0318  0.1095
26648W        W43122   8.842  15.583  12.482 -0.0325  0.0848 -0.2773
26649W        W43123   0.470  10.048  13.520 -0.4062  0.0430  0.0365
26650W        W43124   3.452   5.409   1.965  0.0488 -0.0547  0.3780
26651W        W43125   7.299   4.266  15.272  0.2464 -0.1826 -0.2128
26652W        W43126  12.139   5.538   0.023  0.2768 -0.0520 -0.3256
26653W        W43127   9.806   8.777   0.209 -0.0283 -0.3476 -0.0575
26654W        W43128  16.861  14.439   4.695 -0.0155  0.1519  0.2292
26655W        W43129   7.592   3.890   3.106  0.0264  0.0365 -0.0273
26656W        W43130  15.627   8.823   1.165  0.0830 -0.2994  0.1176
26657W        W43131  12.788   6.311  15.907 -0.1351 -0.1096 -0.0682
26658W        W43132   4.650   5.830   4.309 -0.1022 -0.0936 -0.1148
26659W        W43133   8.520   2.870   1.831  0.0976  0.2904  0.2868
26660W        W43134   1.957   9.243   1.061  0.2021  0.1532 -0.0013
26661W        W43135   0.054   3.653   2.093  0.1003  0.0078  0.1314
26662W        W43136  10.656   5.814  13.554 -0.0874  0.1518 -0.2641
26663W        W43137   9.755   2.240   3.632 -0.2217  0.3075  0.2964
26664W        W43138   1.585  17.900   1.091 -0.0574 -0.2901 -0.0546
26665W        W43139   6.131   0.317   5.199  0.0519  0.0903 -0.0077
26666W        W43140  13.470   8.360  13.789  0.1888 -0.1577  0.0155
26667W        W43141  15.574   1.965   3.021 -0.1775  0.2073 -0.1169
26668W        W43142  18.289  14.289  10.225 -0.0009  0.5920 -0.1310
26669W        W43143   0.019   7.750  15.822  0.1914  0.0364  0.1760
26670W        W43144  13.597   2.983   0.680 -0.0601  0.0292  0.0989
26671W        W43145   6.368  13.755  12.879 -0.1602 -0.1308  0.0557
26672W        W43146   3.469  14.575  11.984  0.0233 -0.0978  0.2394
26673W        W43147  17.309   0.511   5.212 -0.2781 -0.3416 -0.0734
26674W        W43148  12.231  17.867  13.158 -0.0754  0.0833 -0.0406
26675W        W43149   7.919   5.511   2.035  0.1334 -0.2015  0.1288
26676W        W43150  18.269  17.960   5.717  0.0295  0.0769 -0.0389
26677W        W43151   3.885  11.096   1.558 -0.0431 -0.3456  0.0480
26678W        W43152   9.276   3.385  11.799 -0.5788 -0.1358  0.2535
26679W        W43153  18.223  13.149  15.899 -0.0929 -0.3275 -0.1062
26680W        W43154  11.779   5.029  15.363 -0.2565 -0.0223 -0.0368
26681W        W43155   9.226   4.498  15.708 -0.1067 -0.0256  0.2617
26682W        W43156   2.310   8.803   3.165  0.0149  0.3371 -0.2928
26683W        W43157   7.221  12.115   9.738 -0.0436  0.0677 -0.0609
26684W        W43158  18.390  17.570   1.333  0.0130 -0.1921 -0.0675
26685W        W43159   6.553   2.760   4.263 -0.2013  0.0764 -0.2102
26686W        W43160   1.560  13.656  10.496  0.3645  0.1823  0.0220
26687W        W43161   5.771   9.513  13.050 -0.0400 -0.0324  0.0005
26688W        W43162   7.328  12.309  13.338 -0.0367 -0.1164 -0.1088
26689W        W43163   1.085   5.953  14.913 -0.0324 -0.1525 -0.2113
26690W        W43164  11.299  14.085  14.279 -0.1296  0.1783 -0.1104
26691W        W43165   2.207   0.576   4.244 -0.1880  0.1376  0.1748
26692W        W43166   0.040   5.403  11.020  0.1155 -0.3990  0.0977
26693W        W43167   9.166  11.299   3.236 -0.1208  0.0872 -0.0692
26694W        W43168   9.759  17.506   2.527  0.2390  0.0013 -0.2677
26695W        W43169   0.000  15.045   4.713 -0.0051  0.2635  0.1615
26696W        W43170  16.014  12.006   3.529 -0.0005  0.0347  0.1022
26697W        W43171   1.186   4.132  15.898  0.1596 -0.1224 -0.2966
26698W        W43172   5.766   8.415  13.812  0.1757 -0.0595  0.1155
26699W        W43173  11.116   8.538   3.070  0.0344  0.0708 -0.3261
26700W        W43174   4.797  14.861  14.585 -0.0354 -0.1689  0.1793
26701W        W43175  17.718   9.265  15.274  0.1031  0.0099  0.0335
26702W        W43176   3.384  16.939   0.218 -0.1431  0.0405  0.0875
26703W        W43177  12.396   9.647  11.593  0.1842 -0.1402 -0.0862
26704W        W43178  13.442   8.631  13.375  0.0830  0.0027 -0.1506
26705W        W43179   2.317   4.032  15.073  0.2385 -0.3434 -0.0574
26706W        W43180   7.658   1.647  12.356 -0.3707 -0.1087  0.3861
26707W        W43181   8.178   7.765  12.195 -0.3283  0.2621 -0.3404
26708W        W43182  10.195  14.649  14.884 -0.3392  0.0973  0.1511
26709W        W43183  12.999   9.140  13.744  0.0760 -0.4121  0.2907
26710W        W43184   0.612  17.977   1.528  0.0014 -0.1135 -0.1017
26711W        W43185  15.054  11.494   1.514  0.0366  0.1271  0.3143
26712W        W43186   5.603   4.271  15.407  0.3037 -0.1246 -0.2817
26713W        W43187   7.054  16.280  14.571 -0.2812  0.0623 -0.2514
26714W        W43188  12.939  14.522   1.848 -0.1252 -0.0157  0.1672
26715W        W43189   3.510   7.976  11.147 -0.0411  0.0933  0.0860
26716W        W43190   1.426   5.982   5.021  0.1409 -0.0605  0.1852
26717W        W43191  10.705   4.817  13.843 -0.1588 -0.1310 -0.2140
26718W        W43192  17.706  17.496  11.209  0.1182  0.1595  0.0978
26719W        W43193   8.198   6.268   0.068 -0.0241  0.2388  0.1719
26720W        W43194  18.146   6.026   3.527  0.1863  0.0533  0.0341
26721W        W43195   4.896   5.946  13.445 -0.3216  0.1009 -0.1366
26722W        W43196  13.248  16.641   1.449 -0.0352  0.1180 -0.0806
26723W        W43197  18.187   3.838   0.901  0.1207 -0.1432  0.2560
26724W        W43198   7.996   3.334  13.521 -0.1636  0.2234  0.0483
26725W        W43199  17.840  16.252   1.078 -0.1319  0.2247  0.2350
26726W        W43200  16.108   7.534  12.326 -0.2312  0.3575  0.1024
26727W        W43201   7.208   6.701   5.755 -0.1170  0.1879  0.0973
26728W        W43202  11.172  13.223   1.104 -0.2114 -0.1465 -0.1906
26729W        W43203   8.624  11.789   3.981  0.0232 -0.3329  0.0197
26730W        W43204   9.220   8.373  15.647  0.2927  0.2570 -0.0624
26731W        W43205  14.569   4.596  13.611 -0.0631 -0.0465 -0.0645
26732W        W43206  14.638   9.187   0.276 -0.2007 -0.0921 -0.1750
26733W        W43207  12.805   4.182   0.878 -0.3098  0.0401 -0.1041
26734W        W43208   4.314   8.468  15.261  0.2292 -0.3846 -0.0724
26735W        W43209   8.205   9.192   2.597 -0.2613 -0.3063  0.2431
26736W        W43210   5.183  12.525   0.394 -0.1797 -0.0560 -0.4804
26737W        W43211   5.084   3.703  14.412  0.1240 -0.3241 -0.2165
26738W        W43212   6.165   7.005   2.023 -0.1483 -0.0176 -0.0040
26739W        W43213   4.363   1.777   2.385 -0.5636  0.2740 -0.0859
26740W        W43214  18.163   4.317   0.731  0.0417  0.1457 -0.1934
26741W        W43215   7.316  13.321  13.266  0.2002 -0.1504 -0.0866
26742W        W43216   7.472   7.731  14.290  0.3303  0.2295 -0.1438
26743W        W43217  17.828  16.148   4.700  0.1608 -0.0911 -0.0013
26744W        W43218   6.470   4.570   2.903 -0.1939 -0.0231 -0.2508
26745W        W43219  14.114   7.673  14.247  0.0496  0.0774  0.2289
26746W        W43220  14.132  14.351   3.520 -0.2234  0.1586 -0.2580
26747W        W43221   2.196  14.159  13.493 -0.4428 -0.2539  0.0236
26748W        W43222  12.178   3.169  13.811  0.0454  0.0936 -0.0567
26749W        W43223   8.781  11.709   6.040  0.4169  0.1065 -0.1082
26750W        W43224  12.468   7.850  13.237 -0.0439 -0.3029  0.0321
26751W        W43225  12.032   8.378   3.475  0.1673 -0.1311 -0.1532
26752W        W43226  13.633  12.405   5.553  0.1348  0.2809 -0.0268
26753W        W43227   5.132   3.222   1.450 -0.3054 -0.0471 -0.1566
26754W        W43228  14.089   0.809  15.740  0.1785 -0.1979 -0.0734
26755W        W43229   7.982  15.482   4.680  0.0779  0.1184 -0.1046
26756W        W43230  11.007  17.642  14.856  0.4657 -0.1334 -0.1010
26757W        W43231   7.452  13.669   4.431  0.1234 -0.0300  0.1194
26758W        W43232   1.776  12.860   1.480 -0.0348  0.0760  0.0200
26759W        W43233   5.730   3.986  11.205 -0.4377  0.4043 -0.0142
26760W        W43234  15.016  18.100   4.697 -0.3365  0.0594 -0.1816
26761W        W43235   7.712   0.922  12.061  0.1237 -0.3794  0.2391
26762W        W43236  12.535   1.048  12.177 -0.1228 -0.3672 -0.2137
26763W        W43237   1.514  11.891  11.394  0.2272  0.0615  0.1599
26764W        W43238  11.737   0.276  11.880 -0.2538  0.1060  0.0202
26765W        W43239   6.137   6.824   2.608  0.0847  0.0857  0.1222
26766W        W43240   0.646  13.650   6.157 -0.1136 -0.0226  0.1142
26767W        W43241   5.376   8.087  14.429 -0.0516 -0.3179 -0.1904
26768W        W43242  15.551   9.902  13.014 -0.3369  0.1263 -0.1944
26769W        W43243  11.752  10.194  14.826 -0.0757  0.1016 -0.0766
26770W        W43244  13.224  13.239   3.324  0.2097 -0.2289  0.1580
26771W        W43245   4.426   0.684   1.273 -0.3545  0.1996  0.4259
26772W        W43246   7.103   8.132  11.716 -0.0052 -0.0190 -0.0243
26773W        W43247   9.802  11.710  11.537 -0.0709  0.1042  0.0372
26774W        W43248   4.898  11.709  15.891 -0.0220  0.2554  0.0900
26775W        W43249  10.149   7.691  15.386  0.0881 -0.1433  0.1285
26776W        W43250   1.250   9.028   2.144 -0.7628  0.1499 -0.1084
26777W        W43251   4.614  14.546   0.333  0.3908  0.2061 -0.0463
26778W        W43252   9.803   1.761   2.019 -0.2353 -0.1029  0.1419
26779W        W43253   3.596  12.993   0.870 -0.0176  0.1404 -0.0567
26780W        W43254   8.260  16.109   0.798  0.3617 -0.1279 -0.2359
26781W        W43255   5.626   9.169  15.944 -0.2149 -0.2435  0.0193
26782W        W43256  18.008  13.044   1.181 -0.0594  0.1335  0.6508
26783W        W43257   0.352   2.047   5.474 -0.2893  0.1516  0.1356
26784W        W43258   0.832  13.137  12.321 -0.1660  0.2019 -0.0599
26785W        W43259  17.610  14.637  11.714  0.1300  0.0464 -0.2553
26786W        W43260   8.911  12.038  14.784 -0.4298  0.2041 -0.1283
26787W        W43261   8.940   4.835  12.965 -0.2354  0.2735  0.1487
26788W        W43262  17.571  10.065   0.025 -0.1367  0.2227  0.1698
26789W        W43263   4.832  12.972  12.785  0.0097 -0.1286 -0.0569
26790W        W43264  12.091  15.238   2.346 -0.0151  0.0040 -0.2596
26791W        W43265  16.688  14.195   2.868  0.0283 -0.2212  0.0165
26792W        W43266   5.646  17.780  13.080  0.3764  0.0425 -0.0935
26793W        W43267   7.641  14.102   2.245 -0.3344  0.1887 -0.1568
26794W        W43268  14.572   3.588  14.003  0.1864  0.2325  0.2316
26795W        W43269   8.582  15.167  12.386  0.2912 -0.0479 -0.0166
26796W        W43270   3.160   2.075  15.388 -0.0954  0.0493  0.0988
26797W        W43271   3.979   7.739   1.597  0.4074  0.0710  0.1698
26798W        W43272  10.304  17.374   1.740 -0.1486 -0.0335 -0.2191
26799W        W43273   1.477   3.625  12.735 -0.4158 -0.0695 -0.1522
26800W        W43274   1.728   6.743  12.879 -0.1591  0.0609  0.1141
26801W        W43275  17.587  12.558   1.748  0.1410  0.2128  0.1098
26802W        W43276  18.370  13.990  14.768  0.3004  0.3799  0.1362
26803W        W43277  17.095   0.757   1.732  0.1893  0.0399  0.0199
26804W        W43278  13.552   3.737  14.153  0.1886 -0.0675 -0.0936
26805W        W43279  10.121   7.997  11.531 -0.2470  0.2019 -0.0195
26806W        W43280  15.808   9.636   4.596 -0.0785 -0.4102 -0.2339
26807W        W43281   5.789  15.137  14.726 -0.1095  0.4076  0.1203
26808W        W43282   2.803  12.037  13.061  0.3592  0.1879 -0.0661
26809W        W43283  14.072   9.888   2.701  0.0697  0.0832 -0.0075
26810W        W43284  13.298  12.737   1.995 -0.0246  0.4136  0.0062
26811W        W43285   7.744   9.618  11.478  0.3098  0.0205  0.1424
26812W        W43286  14.367  10.642  10.422  0.0909 -0.0078  0.0182
26813W        W43287   1.404  12.446   4.872  0.0119 -0.2663  0.2251
26814W        W43288  10.887   2.623  14.744 -0.0306  0.3338 -0.1747
26815W        W43289   4.191  17.741  12.649  0.2173 -0.0522 -0.2260
26816W        W43290  12.824   7.384   2.999  0.2011  0.1655  0.0028
26817W        W43291   5.282   3.838  15.394  0.0460 -0.3734  0.1224
26818W        W43292   0.266   5.980   1.883 -0.3018  0.2483  0.1227
26819W        W43293   6.543  10.837   5.154 -0.0100 -0.1925  0.1483
26820W        W43294   0.452   7.233  13.320  0.0841  0.0798 -0.0363
26821W        W43295  15.162  14.250   0.205 -0.4876  0.2208 -0.1129
26822W        W43296  13.865  13.364   5.233  0.1157  0.2118 -0.0416
26823W        W43297   0.073   6.639   2.626  0.2041 -0.1687  0.0289
26824W        W43298   6.056  16.630   0.860  0.0065  0.0512  0.2102
26825W        W43299  16.885   8.257   0.626  0.0979 -0.2449  0.0579
26826W        W43300  12.109  17.314  12.456  0.1399  0.0507 -0.1008
26827W        W43301   4.772   2.392   1.306 -0.2376  0.0877 -0.1034
26828W        W43302   3.387   7.943  15.765 -0.0741 -0.1422  0.3686
26829W        W43303   4.678  14.196  15.331 -0.1253 -0.2520  0.0064
26830W        W43304   4.700   9.410   1.327  0.1999  0.1867  0.1745
26831W        W43305   4.620   1.170  13.670  0.1026  0.1091  0.0882
26832W        W43306  11.270  12.119   0.406  0.0361 -0.1548 -0.0777
26833W        W43307   7.737   2.950   2.809 -0.2375  0.2826 -0.0248
26834W        W43308  13.744   6.760  13.752  0.0739 -0.0246  0.2447
26835W        W43309  12.909   1.173  12.600 -0.1803  0.3005 -0.4332
26836W        W43310   6.216   4.387  12.043 -0.0568  0.0849  0.0918
26837W        W43311  17.560  15.410   5.103 -0.0553 -0.0649 -0.4947
26838W        W43312  12.995  14.959   2.125  0.0286 -0.2849  0.0409
26839W        W43313  17.794  11.350  14.584  0.0704  0.1587  0.1000
26840W        W43314  12.057   1.088  12.493 -0.0967  0.0956 -0.0573
26841W        W43315   3.323   3.298  15.339 -0.0123 -0.2085 -0.1724
26842W        W43316  11.808  15.021  11.880  0.1053  0.1460  0.3230
26843W        W43317   3.026   1.242  11.168 -0.0164  0.3774 -0.0612
26844W        W43318   3.863  10.348   1.226 -0.0096  0.1991 -0.3870
26845W        W43319   5.846   3.140  11.022  0.0229  0.3236 -0.0825
26846W        W43320  11.544   0.103   0.157 -0.0677  0.3245 -0.0859
26847W        W43321  16.337   1.976  12.315 -0.0732  0.2631  0.0744
26848W        W43322   9.751   6.040  15.420 -0.0059 -0.2674 -0.3286
26849W        W43323   5.980  18.053  13.533 -0.1610 -0.4088  0.0681
26850W        W43324  11.732  16.196  13.194 -0.3204 -0.1335 -0.2659
26851W        W43325  14.914   7.176  11.956  0.0958 -0.0995  0.0298
26852W        W43326   4.116  11.676  13.639  0.2819  0.2835  0.0460
26853W        W43327   9.346   8.063   2.014  0.1095 -0.0694 -0.1083
26854W        W43328   9.281   9.312  14.676  0.3359  0.1338 -0.1658
26855W        W43329  15.661   9.596  15.479  0.0732 -0.0478 -0.0690
26856W        W43330   8.870   9.984   3.287 -0.0671 -0.0881 -0.0958
26857W        W43331   4.169   0.113   3.790 -0.2535  0.0646  0.0036
26858W        W43332  14.064  15.953   4.293  0.1078  0.1418 -0.2649
26859W        W43333  10.784  12.344   5.245 -0.2074  0.1984 -0.2576
26860W        W43334  11.131  12.947  11.710 -0.0424 -0.0981  0.1365
26861W        W43335   9.345  14.128  14.672 -0.0198 -0.0942  0.0473
26862W        W43336   6.327  14.212   1.271  0.1248  0.0395 -0.0055
26863W        W43337  12.956   6.166   1.689  0.2378  0.1927 -0.1649
26864W        W43338  12.486   3.031   1.763  0.0791 -0.0103 -0.0077
26865W        W43339   7.080  15.728  13.270  0.1924  0.2383 -0.2258
26866W        W43340  17.719   1.161  11.847  0.0492 -0.0342 -0.0412
26867W        W43341   0.632  16.028  11.934 -0.1444 -0.0962 -0.0204
26868W        W43342  12.520   9.745  13.902  0.0708 -0.1241  0.0236
26869W        W43343  12.745  11.679  12.179  0.1400  0.3366  0.1896
26870W        W43344  15.297  10.282  11.230  0.3969  0.0209  0.0354
26871W        W43345   5.964  11.787   0.644 -0.0471 -0.1037  0.0129
26872W        W43346   0.959  12.351   3.734  0.0963 -0.0605 -0.0170
26873W        W43347   3.451   3.882   1.652 -0.0923 -0.0670 -0.2218
26874W        W43348  12.050  13.085   0.919 -0.0017 -0.2813  0.1002
26875W        W43349   5.569   8.439  15.253  0.0797  0.0564 -0.0464
26876W        W43350  10.426  10.342  12.666 -0.0549  0.3677 -0.1127
26877W        W43351  14.767   9.278   1.274 -0.2031 -0.3449  0.2132
26878W        W43352  14.099  15.376   3.403  0.0479  0.1364  0.2088
26879W        W43353  14.402  17.643   4.054  0.0048 -0.0138  0.4386
26880W        W43354   8.933  17.571  13.637 -0.1779 -0.0326 -0.1236
26881W        W43355  11.653   4.583   1.009  0.0760  0.0304  0.5977
26882W        W43356  14.523   0.746   2.207  0.0562  0.0417 -0.0238
26883W        W43357  15.661   7.628   2.119 -0.3136 -0.0832  0.4773
26884W        W43358  14.334  14.539   0.868 -0.0949 -0.1092  0.2620
26885W        W43359  11.617   6.733  14.502 -0.1596 -0.0655 -0.1060
26886W        W43360  10.425   2.179   1.361  0.0239 -0.1118 -0.1681
26887W        W43361  13.730  17.535  15.835 -0.0504  0.1567  0.1329
26888W        W43362  16.215   8.764   5.051  0.2049  0.1209  0.1734
26889W        W43363  10.918   3.462  12.939 -0.0290  0.0356  0.1914
26890W        W43364   0.233  12.307   2.532  0.0480  0.0637 -0.3685
26891W        W43365  11.294   6.301  12.004 -0.1138 -0.1806  0.0731
26892W        W43366  12.935  11.509   2.445 -0.2439  0.3842  0.0338
26893W        W43367   5.796   0.885   5.497 -0.1578  0.0019  0.2947
26894W        W43368   0.762   1.136   0.563 -0.1588 -0.0896  0.0841
26895W        W43369  13.608  12.273  14.551 -0.0887 -0.0788  0.0223
26896W        W43370  16.537  15.955  14.440 -0.4482  0.1101  0.0705
26897W        W43371  18.415  11.369  13.836 -0.1482  0.1251  0.1642
26898W        W43372  17.391   9.057  12.529 -0.0666  0.0038  0.3373
26899W        W43373  18.361   0.545   0.867 -0.1311  0.0308 -0.0269
26900W        W43374  12.036  11.761   0.675 -0.1817  0.0471  0.2369
26901W        W43375  16.975  11.158  14.520  0.2965 -0.0035  0.2947
26902W        W43376   8.018   6.094  13.520  0.2110  0.0282 -0.1983
26903W        W43377  15.857  18.031  10.750 -0.1322  0.1663 -0.1759
26904W        W43378   6.228   1.945  11.736 -0.0337  0.0610  0.0463
26905W        W43379   4.681  11.998   4.223 -0.3221  0.1156 -0.4651
26906W        W43380  15.495  10.697   4.014  0.1821  0.0349  0.3343
26907W        W43381  14.028   1.682  13.175  0.0839 -0.1881  0.0020
26908W        W43382  16.131   3.791   1.246  0.1020 -0.1256  0.4540
26909W        W43383   7.338  10.826  11.947 -0.3057 -0.2394 -0.1713
26910W        W43384  12.426  15.168   4.942 -0.0532 -0.2252  0.1765
26911W        W43385   0.415  12.747   2.023 -0.2253 -0.0544 -0.2931
26912W        W43386  12.914  13.709   0.310  0.0290 -0.1231  0.3006
26913W        W43387  13.955   7.552  14.732 -0.1052 -0.0143  0.0226
26914W        W43388   8.287  12.198   3.785 -0.0979  0.0355  0.0778
26915W        W43389  18.424   4.940  15.888  0.0288 -0.0171 -0.1076
26916W        W43390   1.575   2.979  14.963  0.0035 -0.1417  0.1153
26917W        W43391   6.842  18.317   5.574 -0.0747 -0.2286  0.2460
26918W        W43392  15.683  14.231   3.974  0.2147 -0.0789 -0.3210
26919W        W43393  10.885  15.075   2.679  0.2443 -0.2297  0.1252
26920W        W43394  17.487  13.783  11.873  0.0434 -0.2217  0.3975
26921W        W43395   3.852   1.103  15.346  0.1012 -0.1318 -0.1094
26922W        W43396  16.387   4.532   1.004 -0.0211 -0.1475 -0.2492
26923W        W43397  12.736   5.057   0.828 -0.1023 -0.0230 -0.1069
26924W        W43398   7.585   2.765  12.265  0.2469 -0.0779 -0.0814
26925W        W43399   7.863   1.467   4.633  0.0880  0.2428  0.0778
26926W        W43400  14.814   1.890   3.516 -0.1945  0.0798 -0.0439
26927W        W43401   4.614   3.549  15.657 -0.3950 -0.0983  0.3828
26928W        W43402   8.424   9.979  12.982 -0.4658  0.0266 -0.1180
26929W        W43403  16.644  18.080   2.029 -0.2486 -0.0311  0.1252
26930W        W43404   8.730  16.299  13.204 -0.0796  0.1669 -0.0820
26931W        W43405  12.183  12.883  15.207  0.2665  0.1649 -0.1263
26932W        W43406  11.043   5.567  13.779  0.0917 -0.3159  0.3116
26933W        W43407   9.117   6.764  12.479 -0.0347  0.1659 -0.0633
26934W        W43408  12.733   0.654   2.169  0.2566 -0.0973 -0.2798
26935W        W43409   0.396   0.062   4.102 -0.2775 -0.3458  0.1299
26936W        W43410   9.835  17.650  14.810  0.0704 -0.1808 -0.3602
26937W        W43411  12.813   1.458   9.529  0.2384  0.0015 -0.0542
26938W        W43412   0.113  16.551   1.891  0.1714  0.0216  0.4139
26939W        W43413   0.475   4.452  13.523  0.2808 -0.0134  0.2699
26940W        W43414  17.636   0.088   1.284 -0.1221 -0.0598 -0.5604
26941W        W43415  17.519   3.377  13.935  0.0236  0.0609 -0.0978
26942W        W43416   1.270   9.620  14.541 -0.4895 -0.2353  0.0219
26943W        W43417  18.166  15.302  14.233 -0.1116 -0.1116 -0.1908
26944W        W43418   1.415  18.010   4.563  0.0594  0.0421  0.0827
26945W        W43419  16.032  15.821   3.314  0.0824 -0.0205  0.4057
26946W        W43420  12.175  16.888  14.812  0.1616 -0.1132 -0.0568
26947W        W43421  10.410   1.580   1.231 -0.0075  0.0910 -0.4159
26948W        W43422   0.558   8.007  14.580 -0.0188 -0.2714 -0.2468
26949W        W43423   6.310  17.621   2.482 -0.0731 -0.0201  0.0358
26950W        W43424   4.116   7.749   3.777  0.2489  0.1471 -0.1580
26951W        W43425  15.374   2.266  12.587  0.0186 -0.0400  0.1673
26952W        W43426  13.687   3.472   0.227 -0.0386 -0.0178 -0.0778
26953W        W43427  13.967  13.863   2.189 -0.0536  0.1050  0.2258
26954W        W43428  12.710   6.078   5.314  0.0550 -0.1660  0.1042
26955W        W43429  12.678  10.683  12.080  0.0769 -0.1313  0.1129
26956W        W43430   4.923   9.537  14.526 -0.0035  0.0602 -0.1545
26957W        W43431   3.093  14.021  13.614  0.2671 -0.0989 -0.0831
26958W        W43432  17.916   4.233   3.194 -0.1188  0.0367 -0.1947
26959W        W43433   0.847   3.747  15.862  0.0814 -0.0334 -0.0518
26960W        W43434  13.255  11.359   0.469  0.0871  0.1704  0.0821
26961W        W43435  14.749   4.600   1.775  0.2736 -0.1944 -0.3299
26962W        W43436  17.024  17.408  12.529  0.0440  0.0581  0.0393
26963W        W43437   2.177  17.521  12.232  0.1220 -0.2017 -0.0498
26964W        W43438  11.512  10.612  13.570 -0.0125 -0.2991  0.3208
26965W        W43439   1.445   0.902  13.948  0.2297 -0.1700  0.1907
26966W        W43440   5.345   4.096   3.029  0.2337 -0.2527 -0.1878
26967W        W43441  10.360  12.546   4.688 -0.0435 -0.2562 -0.0241
26968W        W43442   9.841   2.355   5.488  0.1550  0.0496  0.0567
26969W        W43443  13.435  11.413   5.541 -0.1282  0.2048 -0.0250
26970W        W43444  15.981   6.971   0.543  0.0828 -0.2063  0.2837
26971W        W43445  13.296   9.381   1.430  0.2936  0.2236  0.1353
26972W        W43446  13.252   5.794  14.854  0.0851  0.0823 -0.0923
26973W        W43447   8.661  13.227  13.660 -0.3647 -0.2688  0.0367
26974W        W43448   0.583  14.399   5.680  0.1492  0.1276  0.4091
26975W        W43449  15.187  10.368   0.237 -0.2986  0.4254  0.1680
26976W        W43450   4.865   8.645  10.478 -0.0335  0.2261 -0.2111
26977W        W43451  12.354   1.734   1.787  0.0692 -0.0401  0.0837
26978W        W43452  10.149   6.078   1.651 -0.0790  0.0770 -0.0301
26979W        W43453  13.438  11.389  13.959 -0.2171  0.1860  0.0091
26980W        W43454   1.114  14.248  12.047 -0.1296  0.0122  0.3663
26981W        W43455   0.559  11.227   1.256  0.1142 -0.0637  0.2541
26982W        W43456   6.368  17.397  11.643  0.2494  0.4196 -0.0922
26983W        W43457  17.875  16.471  12.976  0.3022 -0.1019 -0.1347
26984W        W43458  11.388   2.795   0.479  0.0433 -0.0501  0.2286
26985W        W43459  16.209  13.363   2.085 -0.0765  0.0200 -0.1903
26986W        W43460  11.098   5.103  14.087 -0.1435  0.2885 -0.1043
26987W        W43461  16.514   7.201  11.003  0.2533 -0.0895  0.1615
26988W        W43462  13.195  18.378   1.775 -0.3464  0.3174  0.1400
26989W        W43463   4.103   1.684   4.041 -0.0919 -0.1144 -0.0088
26990W        W43464   0.470   1.768  13.420 -0.2470 -0.0769 -0.1582
26991W        W43465  11.463   2.990  13.424 -0.1032  0.2994 -0.3806
26992W        W43466   8.787  14.959   5.137  0.2045  0.0277  0.1441
26993W        W43467  16.848   0.254   2.451 -0.1105  0.3108  0.0825
26994W        W43468  10.516   1.147  13.778 -0.2986 -0.4636  0.0258
26995W        W43469   5.702   1.244   0.240  0.1587  0.4461 -0.0734
26996W        W43470   6.976   7.956   2.286  0.1024 -0.3931  0.2347
26997W        W43471   1.514   8.680   3.807 -0.0484 -0.3057 -0.0512
26998W        W43472   1.053   8.153   5.122 -0.0414 -0.1897 -0.1146
26999W        W43473  11.525  11.049   3.181  0.0448  0.0585 -0.1092
27000W        W43474   5.004  13.218  15.895 -0.0652 -0.4070 -0.0441
27001W        W43475   5.834   9.795  15.562  0.1321  0.1231 -0.2583
27002W        W43476  11.145   1.264   3.959  0.1852 -0.2085 -0.1242
27003W        W43477  11.491   8.169   0.757 -0.3091 -0.1126  0.3744
27004W        W43478  11.943   8.853  11.390 -0.1973 -0.0256 -0.1018
27005W        W43479   6.311   7.766  14.937  0.1829 -0.1478 -0.0713
27006W        W43480  18.088   6.297  12.351 -0.2196 -0.0935 -0.2456
27007W        W43481   4.731   4.016   3.179 -0.1058  0.3989 -0.5225
27008W        W43482  15.000  15.932   4.857 -0.0099  0.1955 -0.1249
27009W        W43483  12.257   5.565   5.707 -0.1232  0.2113 -0.0820
27010W        W43484   0.289   4.891  11.864  0.3903  0.0790  0.0777
27011W        W43485   9.234  14.013  13.351  0.0118 -0.1079  0.1525
27012W        W43486  14.951   2.124   2.478 -0.0194 -0.1478  0.0156
27013W        W43487   8.468  18.274  13.247 -0.0072  0.3615 -0.0859
27014W        W43488   0.112  10.119   3.930 -0.1538  0.1389 -0.4643
27015W        W43489  15.102   6.539   0.927 -0.1715  0.1829 -0.1166
27016W        W43490   9.880  16.086  12.329 -0.2180 -0.2228  0.1570
27017W        W43491   6.699  12.686  15.707 -0.1094  0.0228  0.2907
27018W        W43492  12.299  14.733   5.138 -0.0638 -0.0113  0.0548
27019W        W43493   3.612  18.205   4.724 -0.1724  0.0578 -0.0024
27020W        W43494  17.722   3.035   0.169  0.0331 -0.0020  0.0365
27021W        W43495   3.147   9.269  14.986  0.0605 -0.2232  0.1433
27022W        W43496  12.235  10.702  11.184  0.0612 -0.0557 -0.0327
27023W        W43497  16.610   2.479  12.204 -0.2130 -0.2978  0.0692
27024W        W43498   5.233  15.906  12.980 -0.2777 -0.0445 -0.4263
27025W        W43499   3.476  10.341  12.209 -0.0435  0.2040 -0.1394
27026W        W43500  11.612  14.076   3.859  0.0580 -0.0798 -0.0680
27027W        W43501  15.502   0.377  11.816 -0.0220  0.3571  0.0723
27028W        W43502  14.600  17.037   0.642 -0.0021  0.2060  0.1218
27029W        W43503  10.239   4.815  11.832  0.3174 -0.2721  0.0598
27030W        W43504   5.441  10.574  10.672  0.1578  0.0257 -0.2955
27031W        W43505  16.179  15.873   2.009  0.2962 -0.2595  0.0010
27032W        W43506   3.150  14.218  12.535  0.0156 -0.4635 -0.1753
27033W        W43507  17.690   5.559  11.647  0.2066  0.0868 -0.1310
27034W        W43508   5.270   8.796   2.011  0.2074 -0.2690 -0.0953
27035W        W43509   6.238   4.702  11.064  0.0533 -0.0157  0.0847
27036W        W43510  13.246  15.502   5.568  0.2870  0.3397 -0.0084
27037W        W43511   7.251  10.317  11.752 -0.2395 -0.2338  0.0800
27038W        W43512  14.405   1.021  15.341  0.3155 -0.0986  0.2946
27039W        W43513   5.845  14.075  14.540 -0.1849  0.0596  0.0207
27040W        W43514   2.431   1.174   1.735 -0.2061 -0.2901  0.2247
27041W        W43515  16.104  12.443   4.537  0.0524 -0.1932  0.1145
27042W        W43516   6.366   0.663  15.073 -0.1990 -0.0132  0.0894
27043W        W43517  14.137  17.974  14.305 -0.0594  0.2887 -0.0925
27044W        W43518   2.167   0.958   3.017 -0.0431  0.0873 -0.1155
27045W        W43519  16.791   0.549  14.715  0.1023 -0.3496 -0.1632
27046W        W43520   7.739  12.070  12.549  0.0631  0.2721  0.2211
27047W        W43521   4.516   3.921   5.640 -0.0273 -0.2099  0.0112
27048W        W43522  17.364   9.225   3.724 -0.1687 -0.1357 -0.0053
27049W        W43523   6.315  10.748   3.548  0.1329 -0.1151 -0.3037
27050W        W43524  10.033  16.745   3.938 -0.1316  0.0430 -0.0866
27051W        W43525   2.508   3.483   1.154  0.2768 -0.4932 -0.0913
27052W        W43526  14.970  13.400   4.244  0.0307  0.0742  0.0971
27053W        W43527   8.648  14.249   4.488  0.3447 -0.0453  0.2659
27054W        W43528   1.503  17.247   4.528 -0.1333  0.0645  0.1398
27055W        W43529   8.666   7.264   3.941  0.3550 -0.0852 -0.2777
27056W        W43530   7.346   5.407  13.503 -0.3347 -0.0620 -0.2953
27057W        W43531   8.885  12.958   5.284  0.0645 -0.2266  0.0449
27058W        W43532   8.500   8.778   2.753  0.1523 -0.2102  0.0814
27059W        W43533   5.343  17.147  14.007  0.2918 -0.3924  0.1401
27060W        W43534  13.040   8.673   2.775 -0.0423 -0.1587 -0.0567
27061W        W43535   5.454  18.099   5.069  0.0492 -0.1381  0.1088
27062W        W43536   1.672  18.287  12.290 -0.0680  0.1222 -0.2149
27063W        W43537  10.522   3.868  14.453 -0.0513  0.0617 -0.1925
27064W        W43538  14.330  15.758  11.164  0.0024 -0.0412  0.2965
27065W        W43539  14.904   1.304   0.960  0.0340  0.2403 -0.0324
27066W        W43540  17.745   6.649  11.600 -0.0642 -0.2241 -0.0602
27067W        W43541  15.395   2.595   2.245  0.0531  0.1559 -0.2196
27068W        W43542  11.756  10.690   5.321 -0.0720  0.3387  0.3754
27069W        W43543  17.601  11.540  15.365 -0.2926 -0.0185 -0.1459
27070W        W43544  11.732   6.992   5.457 -0.1353 -0.1257 -0.2678
27071W        W43545   9.812   5.002  13.402 -0.1965 -0.1606 -0.2520
27072W        W43546  13.662   9.906  15.947  0.1994  0.0735  0.0012
27073W        W43547  10.005   6.830   5.207  0.0468  0.2116 -0.1299
27074W        W43548  13.414   5.568   3.062 -0.0812 -0.0710 -0.1028
27075W        W43549   9.314  17.204   4.081 -0.3119  0.0964  0.0729
27076W        W43550  14.769   7.558  11.582  0.0208  0.0663 -0.3875
27077W        W43551  11.083   2.526  14.221 -0.1919  0.2660 -0.3345
27078W        W43552  11.150   1.621  13.507  0.1861  0.0384 -0.1362
27079W        W43553   1.124   8.427  12.308 -0.0420 -0.1956 -0.1631
27080W        W43554  12.818   1.823   2.029 -0.0169  0.1935 -0.0602
27081W        W43555   2.244  10.356  14.729  0.1582 -0.0868 -0.0823
27082W        W43556   8.034   4.752  12.439 -0.0316 -0.0387 -0.0167
27083W        W43557   8.270  11.017   4.386 -0.0570  0.0304  0.1966
27084W        W43558   3.462   5.242   2.895 -0.1274 -0.1803 -0.0365
27085W        W43559   3.724  14.310   4.304  0.1011  0.3970 -0.0725
27086W        W43560   4.990   9.860  11.901 -0.1486 -0.0264 -0.0094
27087W        W43561  13.410   7.459   3.533 -0.0097  0.1289  0.2338
27088W        W43562  15.439   1.588  13.230 -0.2086 -0.0396  0.2615
27089W        W43563  14.302  17.837  13.867 -0.0862 -0.0793  0.0747
27090W        W43564  16.151  17.367   0.990  0.1093 -0.0836  0.1682
27091W        W43565  10.144  16.241   2.323  0.2291 -0.3601  0.0685
27092W        W43566   4.146   2.598  12.815 -0.2350 -0.3094  0.2182
27093W        W43567  17.208   1.624   2.461  0.0476  0.1211  0.1518
27094W        W43568  18.474   0.365  14.020 -0.3945  0.2285  0.2183
27095W        W43569   4.314   7.097  10.820 -0.2840 -0.0892  0.0574
27096W        W43570   3.633  16.371  14.650 -0.1936 -0.2304  0.0484
27097W        W43571  11.803  18.106  10.585 -0.1168  0.0455  0.0634
27098W        W43572  17.131  10.776  13.216 -0.2910  0.3474  0.1628
27099W        W43573  16.611   4.928   5.325 -0.2970 -0.1424  0.0206
27100W        W43574   2.916  15.833   3.565  0.2245 -0.0861 -0.0720
27101W        W43575  10.689   7.994  14.496  0.0414  0.1184  0.0225
27102W        W43576   5.155  14.530   4.908  0.0576  0.2441  0.0552
27103W        W43577  18.056  16.620  14.600  0.0021  0.1838  0.3923
27104W        W43578   3.746  16.506   0.049 -0.1069  0.0230  0.0806
27105W        W43579   6.450   1.177  13.316  0.1648  0.1050  0.0625
27106W        W43580  18.392   7.170  13.134 -0.0086 -0.2913  0.0557
27107W        W43581  13.671   1.158   1.178  0.1741  0.0853 -0.2214
27108W        W43582   8.381   5.925   6.105 -0.1059  0.2372  0.0378
27109W        W43583   4.818  15.951  12.634 -0.0307 -0.1284  0.0635
27110W        W43584  13.189  16.111  12.076 -0.0932 -0.1365  0.3023
27111W        W43585   9.632   5.330   4.286 -0.0986  0.2424  0.2573
27112W        W43586   5.147  13.354  15.357  0.3425 -0.0274  0.0062
27113W        W43587   4.318   8.512   3.343  0.0302 -0.2772  0.1807
27114W        W43588  12.777   0.899   1.642 -0.1590  0.0566  0.0186
27115W        W43589   6.520  17.821   1.601  0.1324 -0.0103  0.2692
27116W        W43590   5.078  15.733   3.528 -0.0527  0.1840  0.0061
27117W        W43591   4.863   4.569  14.889 -0.1554 -0.2563  0.0317
27118W        W43592  10.213  10.690   1.143  0.0832 -0.0467  0.0598
27119W        W43593   3.188   4.274  11.379  0.0500  0.0462 -0.1528
27120W        W43594   7.036  14.529   2.874 -0.1707 -0.3348  0.1009
27121W        W43595   0.631   9.735   3.100  0.0865 -0.1627  0.1905
27122W        W43596   4.585   5.553   5.871 -0.0038 -0.0020  0.1500
27123W        W43597  13.825  12.569   4.018 -0.0915  0.1592 -0.2378
27124W        W43598   2.734   9.050   2.642 -0.2749 -0.2464  0.0117
27125W        W43599  16.371  11.526  12.853 -0.0329  0.1553  0.0027
27126W        W43600   2.552   1.736  12.546 -0.1114 -0.1277  0.0917
27127W        W43601  10.927   5.139  13.541  0.0678 -0.2593 -0.0131
27128W        W43602   2.983   5.337   0.908 -0.0088 -0.1179 -0.1938
27129W        W43603   3.426   0.259  14.671  0.4877 -0.1814 -0.5084
27130W        W43604  10.778   6.406  11.835 -0.0318 -0.0337 -0.0492
27131W        W43605   1.365   0.668  14.798 -0.0081 -0.0914  0.0296
27132W        W43606  11.873   8.820  12.600 -0.6036 -0.1656 -0.1628
27133W        W43607   4.185  13.433  13.226 -0.0932  0.0584 -0.0102
27134W        W43608  16.758  15.892   4.997  0.1604 -0.0648  0.0269
27135W        W43609   8.085  11.161   2.403 -0.1896 -0.3330 -0.1991
27136W        W43610   2.598   1.223   3.718 -0.0855 -0.2534  0.0088
27137W        W43611  15.953  16.409   2.130 -0.0071 -0.1398 -0.1965
27138W        W43612  15.065  18.154  14.371 -0.4163  0.4189 -0.0544
27139W        W43613  16.274  16.186  11.402 -0.0988  0.1926 -0.1229
27140W        W43614   1.259  10.357   5.302  0.2016 -0.2532 -0.1116
27141W        W43615   4.410  10.872   0.731  0.4396 -0.0733  0.0312
27142W        W43616   9.829   8.556  14.875  0.0019  0.1008 -0.0255
27143W        W43617   1.022   2.779   5.293 -0.1788  0.0591 -0.0863
27144W        W43618   5.176  11.134   2.396 -0.0013  0.1667  0.1126
27145W        W43619   5.479  16.833   2.880 -0.0592 -0.1028  0.2287
27146W        W43620   1.527  13.760  11.211 -0.1197  0.0985 -0.1815
27147W        W43621  13.485   6.173  12.341 -0.1638 -0.0464 -0.2486
27148W        W43622  13.417  17.787  10.891  0.1343 -0.0191  0.0307
27149W        W43623   2.950   1.507   0.742  0.1502  0.2370  0.0776
27150W        W43624  12.857   2.630   4.666 -0.1918 -0.0520 -0.1121
27151W        W43625  16.061  10.884  13.188  0.0283  0.0090  0.0813
27152W        W43626   6.656   3.414   0.894 -0.1512 -0.1276 -0.0811
27153W        W43627  10.907  12.661  14.701  0.3655 -0.2324 -0.1020
27154W        W43628  18.157   5.344  15.530  0.1119  0.1221 -0.2902
27155W        W43629  14.348  13.247   5.184  0.0339 -0.1205 -0.1268
27156W        W43630   8.965  14.105   5.287 -0.2275 -0.2032 -0.1988
27157W        W43631   7.256  11.977  12.741 -0.1539  0.2282 -0.0476
27158W        W43632  14.709   2.414   1.434 -0.0482  0.0158 -0.2897
27159W        W43633   6.511   5.639   5.019  0.3298  0.0763 -0.3550
27160W        W43634   1.339   1.041   2.748  0.0471  0.0091 -0.0320
27161W        W43635   6.866   8.815  13.734  0.0019  0.0579  0.2637
27162W        W43636  15.614  16.433   4.802  0.1979 -0.2325 -0.0736
27163W        W43637  17.570   9.799   5.026 -0.1415  0.2035  0.1418
27164W        W43638   9.321  18.452  11.868 -0.1436  0.1646  0.1601
27165W        W43639  17.890  14.127   0.915 -0.2212  0.1147  0.1280
27166W        W43640   9.536   7.351  12.285  0.1271 -0.2844  0.1141
27167W        W43641   0.081  18.269   4.461  0.2567 -0.4084  0.0174
27168W        W43642  13.693  13.604   2.534  0.2296  0.0414  0.0968
27169W        W43643  16.006   0.371   4.583 -0.3320 -0.1332  0.0667
27170W        W43644  18.099  13.633   3.192  0.1119  0.0966 -0.1775
27171W        W43645  14.416   6.775  13.145  0.5141  0.4335  0.1665
27172W        W43646   8.030   4.038   3.262 -0.1450  0.0337 -0.1341
27173W        W43647  14.568  13.288  12.689 -0.3466 -0.4711 -0.1254
27174W        W43648   8.364  12.703  15.312 -0.1137  0.2785  0.3459
27175W        W43649  18.309   4.080   4.532 -0.2063 -0.1641 -0.0468
27176W        W43650   8.738  10.748   2.262 -0.0328  0.1341 -0.0097
27177W        W43651   0.191  13.875   2.788 -0.3180  0.2863  0.2724
27178W        W43652   7.498   5.757   5.089  0.3930 -0.1500 -0.0018
27179W        W43653  15.377   6.973  12.698 -0.1821 -0.2573 -0.1754
27180W        W43654  10.708  11.537  15.412 -0.1919  0.0159 -0.2962
27181W        W43655   1.264   2.836  12.618  0.1670  0.0595  0.1308
27182W        W43656  17.495  10.452   5.056 -0.2092 -0.2157 -0.2690
27183W        W43657  10.391  16.289  13.840  0.4409  0.0640  0.2763
27184W        W43658   3.624   2.690   5.654 -0.1408 -0.1687 -0.1006
27185W        W43659   9.775  12.047  12.455 -0.0844  0.2204  0.1300
27186W        W43660  16.366   0.542   3.073 -0.1799  0.4456  0.1811
27187W        W43661  16.403  17.536   4.616 -0.3730  0.1526 -0.1345
27188W        W43662   5.534  16.099  12.561  0.0982  0.2060  0.0250
27189W        W43663  18.435  18.087   3.416 -0.2451  0.2308 -0.0992
27190W        W43664   3.134  13.082  11.166  0.0028 -0.0165  0.0025
27191W        W43665   5.341   6.264   3.844 -0.0675  0.0693 -0.2412
27192W        W43666  15.887   5.027   4.938  0.2852  0.0967 -0.1467
27193W        W43667   7.784  16.034  12.029 -0.1883  0.0922  0.0884
27194W        W43668   2.079  10.069   3.389 -0.0743 -0.1789  0.0762
27195W        W43669   2.169   1.933   2.964 -0.1444 -0.2063  0.0565
27196W        W43670   3.840  15.525   3.128 -0.0709  0.0708 -0.0405
27197W        W43671  11.589   6.556   4.127  0.1991 -0.0413 -0.2498
27198W        W43672  13.372   5.719   4.579 -0.0468 -0.1518 -0.1813
27199W        W43673   4.323  10.239  12.585 -0.0497  0.1863  0.0285
27200W        W43674  10.487  12.628   0.306  0.0693 -0.0230  0.1604
27201W        W43675   2.699   1.052   2.829 -0.0248  0.0675  0.2568
27202W        W43676   8.691   8.686  14.894  0.0695 -0.0121 -0.2897
27203W        W43677   8.385   4.992  13.949 -0.0305  0.1739 -0.0326
27204W        W43678   5.521  16.708   1.619  0.0216 -0.1302 -0.0841
27205W        W43679   9.547   0.311  12.773  0.0146 -0.1221 -0.0289
27206W        W43680   6.366   0.725  11.720 -0.1503 -0.1761  0.2069
27207W        W43681  14.708   2.121   2.011  0.1984 -0.2146  0.0343
27208W        W43682   3.706  12.094  12.419 -0.2299 -0.2302 -0.3028
27209W        W43683   6.548   7.330  13.692  0.2203  0.1095 -0.1652
27210W        W43684   8.189   6.515   0.481 -0.3131 -0.3664 -0.1727
27211W        W43685   1.021   3.505   3.356  0.0844  0.1144  0.0903
27212W        W43686  18.322  11.940  13.234 -0.1884  0.0198 -0.1863
27213W        W43687   5.960  11.686   3.644 -0.2703 -0.0585  0.0299
27214W        W43688   3.848  15.866   4.347 -0.1927  0.1202 -0.0266
27215W        W43689  15.948  18.433   4.877  0.1562 -0.1084 -0.2277
27216W        W43690   6.500   6.700   3.528  0.0872  0.0855 -0.1254
27217W        W43691  15.439   6.720   3.842  0.1852 -0.2187 -0.0318
27218W        W43692   7.961   5.721   3.666  0.1210  0.1057  0.0333
27219W        W43693   4.956   6.129   0.147 -0.0692 -0.0047  0.1857
27220W        W43694  10.453  12.307  12.928  0.0655 -0.0150 -0.0364
27221W        W43695  17.440   4.557   4.184 -0.0715  0.0277 -0.0117
27222W        W43696   8.210  11.456  14.228  0.1492  0.2294 -0.1714
27223W        W43697   5.318   5.351  13.856 -0.1120  0.0134 -0.2087
27224W        W43698  11.742   9.524   3.752 -0.0852 -0.2769 -0.3466
27225W        W43699   6.509   9.150   0.734 -0.0345  0.2012  0.1096
27226W        W43700  15.273   1.335  13.734 -0.3165 -0.2218 -0.0217
27227W        W43701  16.549  13.794  14.381 -0.0069  0.0709 -0.4155
27228W        W43702  17.975   5.289  13.076  0.1169 -0.1941 -0.2022
27229W        W43703   1.717   7.659  13.138  0.0644  0.2919 -0.1117
27230W        W43704   5.210  10.017  13.218 -0.1651 -0.0511 -0.0533
27231W        W43705   6.879  10.776   3.538  0.1159 -0.3104 -0.1250
27232W        W43706   7.538   1.319   5.436 -0.1229 -0.1601 -0.0801
27233W        W43707   1.037   5.674  14.164 -0.1704  0.0934 -0.2767
27234W        W43708  16.798   4.041   3.374  0.1271 -0.3808  0.0488
27235W        W43709   7.905   0.252   0.960 -0.2123 -0.1250 -0.0098
27236W        W43710  12.104  17.045   1.302 -0.0256  0.4093  0.1925
27237W        W43711  11.686   6.213   4.458 -0.2145 -0.1505 -0.2259
27238W        W43712   9.891  13.648   0.970  0.1279 -0.0165 -0.0642
27239W        W43713   3.526  10.682   1.145 -0.1216 -0.0518 -0.2477
27240W        W43714   8.506  18.003   2.757  0.1347 -0.1915 -0.1209
27241W        W43715  11.509  14.810  11.133  0.1613  0.1372 -0.1336
27242W        W43716   4.433   7.426  15.245  0.2165  0.0816 -0.2502
27243W        W43717  15.046   0.169  14.186  0.1799  0.1649 -0.0452
27244W        W43718  12.864  13.525  12.014 -0.1425 -0.1989  0.2143
27245W        W43719   4.636  18.309  15.206  0.1570 -0.1885 -0.0738
27246W        W43720  15.957  17.260   3.314 -0.1506  0.0657  0.4488
27247W        W43721   7.178   0.256  11.212  0.1484  0.3292  0.0992
27248W        W43722  11.173   0.654  11.549 -0.1065 -0.2133 -0.0648
27249W        W43723   3.513  11.446  13.697 -0.1963  0.0849  0.1172
27250W        W43724   7.511  17.373   2.750  0.0962 -0.0946  0.0055
27251W        W43725  15.944  11.454   0.442  0.1133 -0.1671  0.1642
27252W        W43726   7.933   6.906   5.604  0.1029  0.2629 -0.0550
27253W        W43727   9.385  12.757  13.395  0.2714 -0.0496  0.2466
27254W        W43728   2.614   9.506  11.485 -0.0662 -0.2532  0.1345
27255W        W43729   7.094   5.563  12.575 -0.2167  0.4803  0.1070
27256W        W43730   8.055   4.289   1.624  0.0961  0.1107 -0.2309
27257W        W43731   9.886  18.209  14.775 -0.3741 -0.0678 -0.1280
27258W        W43732  16.570  18.230   5.684 -0.2471  0.0019  0.1186
27259W        W43733   3.340  16.279  12.458 -0.3222  0.1827 -0.0567
27260W        W43734  14.937  11.291  13.026 -0.2203 -0.1076 -0.2789
27261W        W43735  14.563  14.749  13.530  0.3764 -0.0263  0.1696
27262W        W43736  17.889   1.959   1.768 -0.1169 -0.0539  0.0335
27263W        W43737   8.408  11.420   5.121 -0.3286 -0.1235  0.2288
27264W        W43738  17.293   3.794  13.763 -0.3183  0.0902  0.2594
27265W        W43739  10.494  14.028   3.801  0.2571 -0.0603 -0.0952
27266W        W43740  10.352  16.639  12.885  0.1838 -0.1235 -0.4174
27267W        W43741  15.641  13.122   5.206  0.0846  0.2757 -0.1664
27268W        W43742  13.933   5.719  11.618  0.1536  0.1034  0.0863
27269W        W43743  17.431  17.946  14.943  0.3956  0.1762  0.0187
27270W        W43744  11.422   4.482  11.532 -0.0652 -0.3569  0.2725
27271W        W43745  15.993   3.843   3.917 -0.2272  0.0267 -0.3029
27272W        W43746   0.650  10.812   4.616  0.0128  0.2659 -0.0132
27273W        W43747  13.394  14.497  15.001 -0.1279  0.0665  0.0875
27274W        W43748  13.633   2.160  11.414  0.2753 -0.1272 -0.0311
27275W        W43749  16.919  15.747  14.638 -0.2350 -0.2124 -0.0981
27276W        W43750   4.021  14.002   5.630  0.3861 -0.0959 -0.1191
27277W        W43751  14.117   1.994   0.184 -0.0617  0.1261  0.0742
27278W        W43752  18.337   8.190   5.502  0.0517  0.0312  0.2001
27279W        W43753   2.560   4.212  13.848  0.0117  0.0005  0.0762
27280W        W43754  16.474  12.931   2.839 -0.0038 -0.1598  0.1817
27281W        W43755   7.454  13.273   0.974 -0.1030  0.2952 -0.0760
27282W        W43756   8.643  13.923   0.559  0.1907 -0.0075 -0.1979
27283W        W43757  10.137  15.483  11.399 -0.0288 -0.0068  0.0026
27284W        W43758   0.434   3.327   2.045  0.0959 -0.0385 -0.2661
27285W        W43759   6.954  16.928  12.679 -0.0089  0.0192 -0.2080
27286W        W43760   5.074   5.333  14.668 -0.1219  0.0132  0.2227
27287W        W43761  12.825  14.085   1.525 -0.1459  0.1370  0.1644
27288W        W43762  10.045  10.805  14.045  0.1178  0.1529 -0.1293
27289W        W43763   6.028  12.673   4.596 -0.0307 -0.0060 -0.0284
27290W        W43764   8.914  13.608  11.553 -0.1968  0.0526 -0.0539
27291W        W43765  16.122   7.381  13.575  0.1244  0.1194  0.0552
27292W        W43766  16.517   0.074   0.274  0.1132  0.1633 -0.1328
27293W        W43767  13.471  13.034  14.486  0.1572  0.2932 -0.2993
27294W        W43768  17.649  16.137  12.134 -0.2775  0.0255  0.3331
27295W        W43769   6.923   4.067  11.952  0.4463  0.0951 -0.2657
27296W        W43770   3.410  14.807  13.874  0.2194 -0.1848 -0.2796
27297W        W43771  16.620  14.944  11.050  0.6737  0.2454  0.1947
27298W        W43772   4.011   9.932   2.099 -0.1016 -0.0390 -0.3370
27299W        W43773   3.092  12.041   3.486  0.0754 -0.2866 -0.0924
27300W        W43774   6.224   5.709   2.824  0.0786  0.1690  0.0055
27301W        W43775  12.145  17.947   0.578 -0.0890  0.0747  0.1861
27302W        W43776  16.445   4.635  13.081  0.2054 -0.0493  0.1500
27303W        W43777  16.991  16.875  13.187  0.2312 -0.0825  0.0831
27304W        W43778   1.657   3.426   0.299 -0.2100  0.1516  0.0817
27305W        W43779   9.758   7.777  12.437 -0.3431  0.1915  0.0691
27306W        W43780  11.500  11.815   5.086 -0.1698 -0.4322 -0.0721
27307W        W43781   6.371  15.761   0.155  0.0345  0.3952  0.0016
27308W        W43782  14.430  17.999  14.772  0.2276  0.0074 -0.1711
27309W        W43783   9.991  12.635  14.899 -0.1452 -0.0051 -0.2116
27310W        W43784   6.855   3.387  12.207  0.2805 -0.0538  0.0088
27311W        W43785   3.986   3.854  12.965 -0.0145  0.1769 -0.0215
27312W        W43786   0.685  17.273  13.344 -0.2591  0.0041 -0.2052
27313W        W43787   3.290  10.088   0.003  0.1427  0.1222  0.0430
27314W        W43788  10.428  10.312  11.448  0.0867  0.1424 -0.1544
27315W        W43789   2.692  13.224  11.059  0.1449  0.1231  0.1021
27316W        W43790   9.331  10.893   2.999 -0.0571  0.0015 -0.0612
27317W        W43791  11.430   1.497  11.559 -0.0413 -0.0027  0.0610
27318W        W43792  14.208  14.095   5.708 -0.2262 -0.0338  0.1128
27319W        W43793   8.095  11.768   5.329 -0.2390 -0.0149 -0.2243
27320W        W43794  18.012   6.360  13.779  0.4756 -0.0909  0.1260
27321W        W43795   8.827   2.089  14.644 -0.1783 -0.1502 -0.1594
27322W        W43796  13.944  17.553  14.286  0.1227 -0.1423  0.0943
27323W        W43797   7.759  13.281  11.921  0.1160 -0.0638 -0.0017
27324W        W43798   7.839   4.225   4.209  0.2071  0.1911 -0.1602
27325W        W43799   5.232   6.832   2.661 -0.2502  0.0503  0.1979
27326W        W43800  12.538   4.348   3.438 -0.1308  0.0864  0.0327
27327W        W43801   0.333  15.875   5.942  0.1171 -0.0551  0.0002
27328W        W43802   6.048  16.377  14.084 -0.1131 -0.1142  0.1774
27329W        W43803  13.021   6.548  14.452 -0.3812 -0.0393 -0.2213
27330W        W43804   0.971   1.100  14.748  0.3133 -0.1641  0.2283
27331W        W43805   9.895  12.913  12.616 -0.1878 -0.2088  0.0966
27332W        W43806  14.896   5.014   5.380 -0.0919 -0.2702 -0.0516
27333W        W43807   4.884  12.924   3.893 -0.1213  0.1101  0.0894
27334W        W43808   4.977   6.324  13.787 -0.0288  0.1557  0.2063
27335W        W43809   8.284   6.517  15.144  0.0316 -0.0187 -0.0509
27336W        W43810   6.301   6.290  15.726  0.1203 -0.0282 -0.1205
27337W        W43811   3.118  12.953   1.611  0.2358 -0.2343 -0.0009
27338W        W43812   7.679  15.214   3.288  0.1311  0.0899 -0.1847
27339W        W43813  14.762   0.460   1.284  0.0073 -0.1112  0.0979
27340W        W43814   5.322  13.642  15.784  0.0485 -0.0287 -0.0312
27341W        W43815  15.183   8.701  12.538  0.1483 -0.2206  0.0568
27342W        W43816  12.285  12.011   3.051 -0.3515  0.2885 -0.0919
27343W        W43817  14.193  15.123  15.416 -0.3349  0.0731 -0.2081
27344W        W43818   4.706   8.142  12.051 -0.1384  0.3052  0.1136
27345W        W43819  11.918   1.501   2.801  0.0855  0.3910  0.0793
27346W        W43820  11.562   2.171   2.463 -0.0449  0.1019  0.5831
27347W        W43821  10.530   8.861   5.002 -0.0766  0.1330  0.0224
27348W        W43822  10.961   1.143  11.491 -0.0402  0.2125 -0.1423
27349W        W43823  17.876   9.066   1.622 -0.1789 -0.0278 -0.0260
27350W        W43824  10.845   0.546   1.810 -0.2004 -0.0668  0.2443
27351W        W43825  17.928   1.098   3.649  0.1081 -0.3556  0.1903
27352W        W43826   8.825   1.956   1.569 -0.3055 -0.1028 -0.1453
27353W        W43827   1.741   4.831   1.746 -0.0699 -0.3526  0.0107
27354W        W43828  15.113  11.211   0.535  0.0922  0.0466 -0.1489
27355W        W43829  12.010  11.025   1.046 -0.0993 -0.2936 -0.0729
27356W        W43830  17.309  16.144   4.566  0.0394  0.0592 -0.0753
27357W        W43831  15.186   7.738   2.375  0.1414  0.1973  0.1009
27358W        W43832   0.961   7.256  13.355 -0.0564  0.0474 -0.2836
27359W        W43833  10.776  14.588  12.769  0.1730  0.1015 -0.0723
27360W        W43834   0.316  16.063  15.690 -0.0699 -0.1675  0.0173
27361W        W43835   4.431   5.979  14.876  0.0775 -0.1875  0.0603
27362W        W43836  13.173  10.759  11.414  0.0765 -0.0969  0.0331
27363W        W43837  18.079   1.012   5.712 -0.0250 -0.1281  0.0377
27364W        W43838   3.980   1.637   2.087  0.1431  0.0441  0.2130
27365W        W43839  17.247  17.128  12.865  0.2143  0.2290  0.0550
27366W        W43840   3.402   4.935  13.271  0.2060  0.3621 -0.0583
27367W        W43841   8.298   8.669   0.914 -0.3312  0.0953  0.1249
27368W        W43842   3.107   8.007   3.557 -0.2410 -0.2258  0.2114
27369W        W43843   2.894   6.932  10.656  0.0775  0.2453  0.1614
27370W        W43844  15.469   0.515   3.022 -0.2461  0.1292  0.0094
27371W        W43845   5.669  12.873   1.935  0.3639 -0.0513  0.0001
27372W        W43846  13.246   7.605  12.162  0.1621 -0.1353 -0.0850
27373W        W43847   2.283   1.638   3.535  0.0380  0.0929  0.1899
27374W        W43848   7.181   7.825   0.375 -0.0883 -0.1038  0.0132
27375W        W43849   9.459   2.215   3.223  0.1498  0.0640 -0.0512
27376W        W43850   8.524   4.179   1.726  0.0764  0.0806  0.3952
27377W        W43851  13.990  17.852  15.470 -0.1816 -0.1071 -0.0017
27378W        W43852  14.765   2.659   3.140 -0.0372 -0.0673 -0.0643
27379W        W43853   7.280  10.033  14.190  0.4266  0.0188 -0.1078
27380W        W43854  18.104   6.491  11.217 -0.1621 -0.3655 -0.0131
27381W        W43855   0.114  10.900  11.279  0.2664 -0.3258 -0.1917
27382W        W43856   9.163   6.004   2.298  0.1441  0.3103 -0.0763
27383W        W43857  12.165   8.489   4.309 -0.1624  0.0660  0.1475
27384W        W43858   6.052  10.338  14.412 -0.1537  0.0541 -0.1644
27385W        W43859  13.306   8.750  15.753  0.3237  0.0994 -0.0639
27386W        W43860  10.824  14.736  13.305  0.1620  0.1662  0.1547
27387W        W43861  15.062  16.727  14.539  0.1353  0.0923  0.0205
27388W        W43862   3.542  11.365  11.258 -0.1027 -0.2197  0.1641
27389W        W43863   5.355  12.999   0.229 -0.1273  0.1235  0.2272
27390W        W43864   3.902   6.475  12.798 -0.0892 -0.0516 -0.0859
27391W        W43865   2.680  12.975   1.858  0.0823 -0.2402  0.4121
27392W        W43866  11.578   3.004  11.711  0.0554 -0.3466 -0.0702
27393W        W43867  13.607  12.214   0.756  0.1379 -0.0909 -0.1867
27394W        W43868  11.508   0.796  12.558  0.1666  0.1184  0.0149
27395W        W43869   7.374   8.062   3.311  0.0999  0.0676 -0.1473
27396W        W43870   6.367   2.307   1.278 -0.0372 -0.1794 -0.1819
27397W        W43871  17.041   0.848  12.569 -0.5724  0.0592  0.2082
27398W        W43872  14.797  18.405  13.245 -0.0140  0.1099 -0.3665
27399W        W43873   2.690   0.153  14.247  0.2626  0.1736  0.3472
27400W        W43874   0.280  18.139   5.818  0.0923 -0.3368 -0.1942
27401W        W43875  10.775   6.139   2.457  0.0823  0.1315 -0.2038
27402W        W43876  18.370  13.708   2.441  0.2491  0.1955 -0.1333
27403W        W43877  15.162  13.733   1.594  0.2271  0.0513  0.3471
27404W        W43878   1.671   2.266  15.578  0.2602 -0.1508  0.0156
27405W        W43879  13.111   7.929   2.099  0.2601  0.1486 -0.1871
27406W        W43880   9.562   7.364   1.890 -0.3182  0.1146 -0.1209
27407W        W43881   8.533   3.648  14.298 -0.3774 -0.5197 -0.2815
27408W        W43882  11.406  15.259  15.663 -0.1095 -0.2187  0.1288
27409W        W43883   2.205   2.106  13.657 -0.3636  0.0925 -0.2098
27410W        W43884  14.334  10.060   5.606  0.2023  0.1778 -0.1312
27411W        W43885  13.692   0.604   3.271 -0.1738  0.1097  0.1006
27412W        W43886  15.245  10.395  14.269 -0.0509 -0.1662  0.1488
27413W        W43887   3.901   8.583   0.422 -0.2347 -0.1598  0.0346
27414W        W43888  14.014   4.805   1.246  0.1821  0.0852 -0.3161
27415W        W43889  17.031   3.218  11.816 -0.1474  0.1692  0.0677
27416W        W43890   0.268   5.908  14.426  0.2397 -0.0259  0.2010
27417W        W43891   1.169  12.506  12.811 -0.0539  0.0329 -0.5247
27418W        W43892   8.340  13.912   1.145 -0.3380  0.0194  0.2179
27419W        W43893  15.169   1.408  11.888 -0.3457 -0.0178 -0.0551
27420W        W43894  14.298   6.635  13.616  0.1316  0.2671 -0.0545
27421W        W43895  11.014   1.386   0.454  0.3226  0.0007  0.1014
27422W        W43896  16.710   2.264  14.478 -0.1213 -0.0196 -0.1635
27423W        W43897  17.505   4.210   2.447 -0.0043  0.1238 -0.1343
27424W        W43898   1.332   3.081   1.580 -0.0778  0.1662 -0.0067
27425W        W43899   8.900  15.168  11.980  0.2158 -0.1432 -0.1479
27426W        W43900  16.599  11.117   0.309 -0.0932 -0.0855  0.2779
27427W        W43901   3.052   7.554  12.495  0.2521  0.1576  0.1247
27428W        W43902  13.347  12.567  14.311  0.2490 -0.1403  0.0225
27429W        W43903   5.941   3.448  14.391 -0.1606  0.5479  0.1433
27430W        W43904  12.297   2.414  12.069  0.1368  0.3344 -0.1763
27431W        W43905   4.203   3.112   4.989 -0.0641  0.2142  0.0870
27432W        W43906  12.944  10.776   3.099 -0.0167 -0.4065  0.3565
27433W        W43907  14.007   9.904   3.630 -0.0658 -0.3416  0.4379
27434W        W43908  14.505   8.283   2.867 -0.1943 -0.2277 -0.2367
27435W        W43909  15.875  15.300  15.059  0.1689  0.0030  0.0876
27436W        W43910   0.080   5.213  14.163  0.3559  0.0284 -0.0130
27437W        W43911  15.830  10.374  12.179  0.2290 -0.2066 -0.1302
27438W        W43912  13.305  11.305  12.737  0.0749  0.1303  0.3164
27439W        W43913   7.384   7.706  11.609 -0.0521 -0.0685  0.1314
27440W        W43914   5.649   1.662   2.318 -0.0789  0.0693  0.0499
27441W        W43915   7.923  10.789   2.123  0.2151 -0.2466 -0.1257
27442W        W43916   2.779   4.091   1.855  0.0623  0.0993  0.1598
27443W        W43917   2.182  18.230  13.660  0.0304  0.0731  0.1581
27444W        W43918   4.705   5.396  11.037 -0.1726 -0.0437  0.0191
27445W        W43919  14.935   9.075  15.388 -0.3847  0.1854 -0.0068
27446W        W43920  12.533  16.539   5.830 -0.1210  0.1202  0.0279
27447W        W43921   3.382  18.058  12.059  0.0057  0.0412 -0.0990
27448W        W43922   3.424   3.993   5.688  0.0965  0.0233  0.1120
27449W        W43923  12.909  15.877   3.112 -0.0073 -0.3022  0.2828
27450W        W43924  10.664   7.255  13.792 -0.1766 -0.1920 -0.0919
27451W        W43925  13.713   5.071  10.055  0.1019  0.1983  0.0650
27452W        W43926  17.788  12.740   2.841 -0.1968  0.1454  0.2704
27453W        W43927  17.606   6.497  12.324  0.1505  0.1321 -0.2892
27454W        W43928  14.517  10.791   4.135  0.0533  0.3301  0.0007
27455W        W43929  14.770   6.530  15.164  0.3175  0.0565 -0.2392
27456W        W43930  14.078  12.497  14.020 -0.2724 -0.2229 -0.0233
27457W        W43931   4.928   5.931   3.852  0.1085 -0.2707  0.0191
27458W        W43932  17.925   1.327  15.429 -0.1660  0.1830  0.0058
27459W        W43933  17.596   1.943   2.626 -0.1307  0.1277  0.1572
27460W        W43934   3.004  16.757   0.827 -0.1793 -0.2649 -0.0255
27461W        W43935  11.746  13.209  14.066  0.1615  0.0934 -0.1049
27462W        W43936   7.111   2.279   1.710  0.0648  0.1583 -0.0395
27463W        W43937  12.155  15.925  12.427 -0.1014  0.0905 -0.1248
27464W        W43938  14.952  10.043   0.602 -0.2037 -0.1842  0.2041
27465W        W43939  10.223   4.524  12.811 -0.1079 -0.0283 -0.0905
27466W        W43940   5.449  17.561   2.208 -0.2081 -0.1897 -0.0961
27467W        W43941  10.789  10.483  11.762  0.1601  0.0324 -0.0458
27468W        W43942   9.546   9.035  15.244 -0.0871 -0.1972  0.1118
27469W        W43943   0.918   4.571   2.282 -0.0900 -0.1924 -0.2768
27470W        W43944   1.201   8.724  11.253  0.0125 -0.0143 -0.4363
27471W        W43945   5.930  17.190   4.258  0.0299 -0.0226 -0.0832
27472W        W43946   3.029   7.937  11.930 -0.1179  0.0346  0.0768
27473W        W43947   4.795   1.084   2.505 -0.1596  0.3614 -0.0072
27474W        W43948  18.099   4.963  14.030  0.0408  0.0183  0.1239
27475W        W43949   1.801   6.061   3.367  0.0104  0.2405 -0.1275
27476W        W43950   6.324   9.165   1.246 -0.1191 -0.1567 -0.1097
27477W        W43951  18.359   9.384   2.270  0.0055  0.1600 -0.2636
27478W        W43952   3.419   2.558  15.223 -0.0527  0.0576  0.0178
27479W        W43953   0.280   2.095   1.560  0.1582  0.1988  0.1044
27480W        W43954   6.942   1.641  12.998 -0.0075  0.0582  0.0427
27481W        W43955  15.639   6.939   0.962  0.3844  0.2766 -0.0785
27482W        W43956   2.031   4.408   3.151  0.1981  0.1073 -0.2333
27483W        W43957  14.944  11.066   3.408 -0.1213  0.3842 -0.1363
27484W        W43958   2.822   1.771  15.140  0.0175  0.1352  0.1051
27485W        W43959   0.246  10.675   0.729 -0.0474 -0.3893 -0.4891
27486W        W43960   4.653   9.639   0.716  0.1217 -0.2169 -0.1178
27487W        W43961  17.998  17.604   4.888  0.0965  0.2080 -0.1012
27488W        W43962   4.859   6.321  14.617  0.2622  0.1284 -0.1384
27489W        W43963   5.985  16.370  12.475  0.3193 -0.3503  0.1339
27490W        W43964   6.370  12.658  10.843  0.0274 -0.0734  0.0164
27491W        W43965   7.753  13.524  12.384  0.1078  0.0992 -0.0035
27492W        W43966   8.886  16.988   4.248 -0.1129 -0.1000 -0.1690
27493W        W43967   5.155   4.309   5.139 -0.3439 -0.1267 -0.2435
27494W        W43968  12.615   7.183  11.316 -0.4339  0.1899  0.0045
27495W        W43969  14.635   4.652   3.443  0.1255 -0.0438 -0.2483
27496W        W43970   4.668  13.584   1.514 -0.0322 -0.1877 -0.1212
27497W        W43971   8.737  17.994  15.406  0.0499  0.0677  0.3645
27498W        W43972   6.679  10.341  11.644 -0.2141  0.0679 -0.4830
27499W        W43973  15.974   2.154   1.209  0.1057  0.1587 -0.2354
27500W        W43974   0.216   9.542   0.719 -0.0103 -0.1265 -0.0733
27501W        W43975   2.100  15.462   1.327 -0.2063  0.2158 -0.0357
27502W        W43976   0.022  11.342  15.739 -0.1025 -0.1550 -0.1990
27503W        W43977   0.306  13.407   2.445  0.0259  0.0089  0.0484
27504W        W43978   3.233   6.615  13.530 -0.1361 -0.1925  0.1130
27505W        W43979   5.292   0.977   4.083  0.3104  0.3780  0.1356
27506W        W43980   7.847   8.214  12.446  0.0953 -0.1843  0.0600
27507W        W43981   0.641  18.163   2.066 -0.2861 -0.1563  0.0976
27508W        W43982   6.723   9.758  13.030 -0.2057 -0.1934  0.2521
27509W        W43983  17.802  13.875  11.414 -0.0577 -0.3434  0.3248
27510W        W43984  18.021  15.442  10.069  0.0597  0.0768 -0.1737
27511W        W43985  13.637   0.196   1.937  0.0850  0.0177  0.1499
27512W        W43986  10.683   4.755  12.720 -0.3859 -0.0676  0.1848
27513W        W43987   9.536   5.353  11.771 -0.0169  0.1020  0.2984
27514W        W43988   3.988   8.699   6.202 -0.0769  0.1618  0.2678
27515W        W43989  10.910  11.979  11.420  0.1564 -0.1367  0.0964
27516W        W43990  10.701  17.480  14.401 -0.1009 -0.4179  0.2443
27517W        W43991   5.513   1.386  15.768  0.0339 -0.0978  0.0561
27518W        W43992   2.026   9.198  12.197 -0.0788  0.0439 -0.0391
27519W        W43993   3.099  15.035  13.402  0.1373 -0.3525 -0.0930
27520W        W43994  10.734  12.207  12.450  0.0246 -0.0761 -0.1957
27521W        W43995  15.033  15.976  13.448 -0.1887  0.0476  0.2293
27522W        W43996  12.679   2.101   2.555  0.1739 -0.0042  0.0936
27523W        W43997   1.203   5.488   4.003 -0.1640  0.0265 -0.0001
27524W        W43998  15.459  12.794  12.578 -0.0791  0.1276 -0.2121
27525W        W43999   7.319  13.996   0.313  0.0790 -0.1128 -0.2797
27526W        W44000   1.678  11.865  10.404 -0.3844  0.1120  0.2074
27527W        W44001   9.855   4.347  14.860 -0.2305 -0.0407 -0.1438
27528W        W44002   3.554   7.465  13.852  0.1074  0.3651  0.0246
27529W        W44003   7.436   6.036   3.752 -0.1090  0.0475 -0.0195
27530W        W44004  14.504  10.045  15.315 -0.2189 -0.0728  0.3005
27531W        W44005   5.273  13.505   0.261 -0.1333 -0.1199  0.1034
27532W        W44006  16.280   6.212  14.708 -0.0291 -0.0598 -0.0135
27533W        W44007  14.051   3.661   0.961 -0.3554 -0.0707  0.1791
27534W        W44008   4.173   6.026  12.688 -0.2032  0.1241 -0.0931
27535W        W44009   4.116   9.619  14.921 -0.1618 -0.1873  0.0462
27536W        W44010   2.976  15.460   1.250  0.5844  0.2345  0.0865
27537W        W44011   6.602  16.132  15.485 -0.1220 -0.0191 -0.0911
27538W        W44012   5.230  13.703   4.309 -0.1445  0.0286  0.3190
27539W        W44013  16.561  14.576  13.724  0.0366  0.0676 -0.6468
27540W        W44014   1.019  12.287  13.798 -0.1089 -0.0100 -0.0831
27541W        W44015  11.258   5.895  15.182  0.3192  0.0936  0.2592
27542W        W44016   7.325   3.467   3.557 -0.2264  0.1951 -0.0003
27543W        W44017   4.585   9.599  14.087  0.2154 -0.1127 -0.2513
27544W        W44018   1.266   7.390   1.349 -0.1223 -0.2281 -0.0003
27545W        W44019  16.593   8.412   3.511 -0.0982  0.0580 -0.1353
27546W        W44020  11.813   0.553  12.340  0.0815 -0.2772 -0.0666
27547W        W44021  16.393   8.884  14.840  0.0078 -0.0995 -0.1115
27548W        W44022  11.631  12.765   2.611  0.0032 -0.0590 -0.1355
27549W        W44023  14.380  15.676  15.165  0.1289  0.0888  0.1518
27550W        W44024   0.805   1.235   1.107  0.2180 -0.2860 -0.2616
27551W        W44025  17.028  12.911   3.055  0.0317 -0.0511  0.2033
27552W        W44026  16.299  12.234   0.633  0.1491 -0.0945 -0.0146
27553W        W44027   7.175   8.820  12.317 -0.2859  0.0698  0.1008
27554W        W44028   0.361   9.306   2.042 -0.0122  0.1083 -0.1395
27555W        W44029   9.528  11.158   1.732  0.1194  0.2853 -0.2538
27556W        W44030  14.906   0.233   1.697 -0.0887 -0.1511 -0.5478
27557W        W44031   3.678   7.709   0.068 -0.2821  0.2616  0.1211
27558W        W44032   9.706   4.620   1.227 -0.1324 -0.0126  0.2138
27559W        W44033   4.176   2.270   3.883  0.1771 -0.1178  0.0488
27560W        W44034   1.492   4.674   2.149 -0.2559 -0.0743  0.1127
27561W        W44035   2.573  16.091  13.529  0.2615  0.2465 -0.1007
27562W        W44036   6.064   9.238   5.258  0.0768  0.0708 -0.1510
27563W        W44037  13.371   4.216  15.639 -0.2350 -0.1241 -0.0188
27564W        W44038   9.523  11.655   1.622 -0.1483  0.0585 -0.0251
27565W        W44039  15.102   6.494  11.504  0.2672 -0.0917 -0.0827
27566W        W44040  12.651  17.087   4.935 -0.0554 -0.3277 -0.3646
27567W        W44041   0.691  18.093   0.857  0.0744  0.3646 -0.1002
27568W        W44042  10.807   8.149   6.304 -0.0100  0.1015  0.2679
27569W        W44043  10.577  17.526   4.382  0.3570 -0.1205  0.2085
27570W        W44044  10.257   2.319   3.943  0.1003  0.0195 -0.0795
27571W        W44045  18.173   5.510   0.797  0.0713 -0.0903  0.0860
27572W        W44046  13.725   4.954  13.901  0.0358  0.1305 -0.1842
27573W        W44047   6.422   9.670   0.953  0.1596  0.1053  0.1117
27574W        W44048  16.088   4.680  11.970 -0.0644 -0.1092 -0.0235
27575W        W44049  15.362  11.697   3.639 -0.0707  0.2520  0.2940
27576W        W44050   9.257  10.418   2.799  0.1573  0.0380 -0.1180
27577W        W44051   6.438   3.276  15.045  0.2614 -0.1058  0.1372
27578W        W44052  11.891  16.381  11.126  0.1872  0.2343  0.0078
27579W        W44053   5.190   4.183   3.511  0.1150 -0.1723 -0.0336
27580W        W44054   5.103  17.847  14.711  0.3346  0.0222  0.1462
27581W        W44055  17.435  14.668   2.697  0.0584  0.1540 -0.1560
27582W        W44056  13.200  16.731  14.808  0.1528 -0.0590  0.1624
27583W        W44057   5.078  15.430   2.584 -0.2099 -0.2193  0.1710
27584W        W44058  17.170  10.155   3.804  0.0973  0.1985 -0.0024
27585W        W44059   0.501   7.777   4.264 -0.0347 -0.0805  0.1933
27586W        W44060   0.151   7.865   4.654  0.3227  0.0814  0.0416
27587W        W44061   9.541   2.564  13.842 -0.0025  0.2171 -0.2454
27588W        W44062   4.084  13.855  11.940 -0.1212  0.2088  0.0812
27589W        W44063   0.723  12.471   1.531  0.2450 -0.0546  0.1176
27590W        W44064  10.162  12.328   6.071 -0.0342 -0.1013  0.3370
27591W        W44065  14.833   8.000   1.644 -0.2778  0.2653  0.1808
27592W        W44066  11.018  14.395   2.128  0.2998  0.1395  0.3091
27593W        W44067  13.367   7.212  13.988  0.0903  0.5050 -0.3087
27594W        W44068  10.209  10.968   3.149  0.1838  0.2166 -0.1053
27595W        W44069   2.053  12.487   4.332 -0.1694 -0.0163  0.1877
27596W        W44070   3.138  15.015  10.884 -0.0407 -0.0362 -0.2305
27597W        W44071  15.727  13.911  15.701 -0.0134  0.0329 -0.5769
27598W        W44072   9.220   3.491   4.204 -0.1622 -0.0606  0.2064
27599W        W44073  13.000   6.646   2.890  0.0185 -0.0580 -0.3794
27600W        W44074   6.929   5.102   4.169 -0.0994  0.0189  0.2068
27601W        W44075  14.714  17.448   3.039 -0.1318 -0.2728 -0.2590
27602W        W44076  14.376  10.159  12.603 -0.2599 -0.0273 -0.2024
27603W        W44077  12.791  17.004  14.690 -0.0031 -0.0057  0.1323
27604W        W44078  15.215  12.645  14.769 -0.1110  0.0371  0.0821
27605W        W44079  11.331  17.240  13.057  0.1238 -0.2169  0.0655
27606W        W44080   1.643   3.121   2.333 -0.0793 -0.1247 -0.1680
27607W        W44081  13.917  13.304   2.165  0.0855 -0.3067  0.2890
27608W        W44082  16.010   5.639   4.213 -0.1510 -0.0007  0.0607
27609W        W44083   4.282   5.453   2.187 -0.1139 -0.1295  0.3142
27610W        W44084  16.852   2.040   5.064  0.3972 -0.1161 -0.0190
27611W        W44085   2.708  12.840  15.879 -0.1770 -0.0002 -0.3828
27612W        W44086   5.852   1.303   3.418 -0.2374 -0.1365  0.1726
27613W        W44087  12.120   1.870  14.114  0.1222 -0.1883 -0.0072
27614W        W44088  13.022   8.596  13.720  0.1627  0.1402  0.0131
27615W        W44089   8.692   1.991   1.050  0.2748 -0.0904 -0.0355
27616W        W44090  16.188  14.237   0.493  0.3230  0.3453 -0.1312
27617W        W44091   2.430  11.919  11.098 -0.2001 -0.2371 -0.0367
27618W        W44092   0.039  14.806   0.509 -0.2195  0.1998  0.0851
27619W        W44093   1.721   6.067  11.806 -0.1244  0.2727  0.0687
27620W        W44094  12.196   4.930  14.547 -0.1541 -0.0339 -0.2596
27621W        W44095  18.343   2.762   5.318  0.2002  0.2850 -0.2099
27622W        W44096   2.174  14.107   2.801  0.1036  0.2051  0.1104
27623W        W44097  11.926   3.478   2.224 -0.1704  0.1878  0.1385
27624W        W44098  15.988  18.095  12.823  0.0779  0.1684  0.2235
27625W        W44099  16.841   0.576   3.324 -0.1396  0.2841 -0.2638
27626W        W44100   2.355  17.028   4.725 -0.0266  0.1583  0.2063
27627W        W44101  12.473  15.218   2.655 -0.3439  0.0183 -0.0309
27628W        W44102   8.170   8.713   0.159  0.0031  0.0268 -0.1680
27629W        W44103   1.715  18.167  13.387 -0.1806 -0.3469  0.1385
27630W        W44104  16.334   2.613   3.936 -0.2158 -0.0192  0.1627
27631W        W44105  12.501   8.272   1.133 -0.0878 -0.1362 -0.0540
27632W        W44106  11.842  14.917   0.362  0.0051 -0.1597  0.1008
27633W        W44107  14.451   3.791   1.778 -0.1860 -0.0883  0.0440
27634W        W44108   4.521   0.052  12.661  0.1918 -0.3857  0.3288
27635W        W44109   1.355   6.996   2.374  0.0814 -0.1744  0.1010
27636W        W44110   1.965  11.548  14.039 -0.1028 -0.2491 -0.0445
27637W        W44111   5.645   4.965  13.973 -0.2936 -0.1743  0.0333
27638W        W44112  10.470   6.279   2.119 -0.0735 -0.0202  0.1807
27639W        W44113  14.035  15.403   0.596  0.1383  0.0091  0.0524
27640W        W44114  15.846   1.498   1.962  0.0110 -0.1589  0.0215
27641W        W44115   9.564   0.963   2.902 -0.0144  0.0781  0.1323
27642W        W44116   3.886   7.960   4.851  0.2067 -0.1325 -0.2409
27643W        W44117  14.385  14.510  12.138  0.2863 -0.1294 -0.1652
27644W        W44118   0.069  13.525   5.441  0.1718  0.2382  0.0776
27645W        W44119   3.626  17.567   3.949  0.0813 -0.3033 -0.1447
27646W        W44120  10.612   7.474  15.262  0.0606 -0.0852  0.0407
27647W        W44121  18.155   7.659   3.300 -0.0068  0.0807  0.1987
27648W        W44122  17.206   9.705  14.424  0.0785  0.0771 -0.0737
27649W        W44123  16.631   2.143   1.990 -0.1951  0.0040 -0.1651
27650W        W44124   1.489  10.076  14.048  0.2663  0.3241  0.1864
27651W        W44125  12.559   9.824  13.171  0.1568  0.1141  0.0283
27652W        W44126  16.580   4.968   2.959 -0.1797  0.2733 -0.0045
27653W        W44127   9.866   0.565   3.334 -0.1320 -0.1106  0.1781
27654W        W44128   0.109   9.578   3.971 -0.2187  0.0601  0.0629
27655W        W44129   2.328  13.763  13.805  0.2188  0.2344 -0.0323
27656W        W44130   4.514   1.987   4.144 -0.1746 -0.0853  0.2445
27657W        W44131   8.079  17.180  10.266  0.2325  0.0305  0.0083
27658W        W44132  14.919  11.621  11.514 -0.1734 -0.1808  0.1163
27659W        W44133   9.566  17.504   0.658  0.0858 -0.0281  0.4386
27660W        W44134  13.965   9.415  11.495 -0.4173  0.2371  0.1084
27661W        W44135   5.411   9.812  12.849 -0.2454  0.2948  0.0417
27662W        W44136   6.370  12.915   2.823  0.1389  0.1000 -0.0504
27663W        W44137   3.660   3.215  14.070  0.2058  0.2712  0.3160
27664W        W44138  12.530   9.360   0.578  0.2065  0.2277  0.2485
27665W        W44139  12.310   3.652  13.719  0.3664 -0.1540  0.1314
27666W        W44140   9.662   3.558   4.485 -0.2032  0.1218  0.0820
27667W        W44141   6.852  12.357  13.150  0.1867  0.3038 -0.2921
27668W        W44142  10.008  10.241  13.449  0.1075 -0.1462  0.1714
27669W        W44143   6.528   3.707  11.882 -0.0033  0.2242 -0.0626
27670W        W44144  14.486  16.714  12.214  0.3340 -0.1163 -0.0511
27671W        W44145  17.678  10.165   3.615 -0.3285 -0.0530 -0.0818
27672W        W44146  16.005  17.534   4.320 -0.2166  0.0738  0.1215
27673W        W44147   3.371   8.636  13.392  0.0416  0.2927  0.1614
27674W        W44148  11.304   4.418  12.027  0.1144 -0.1275  0.0196
27675W        W44149   3.109  16.655  11.420 -0.0321 -0.0368  0.1566
27676W        W44150  13.476  10.389  11.709  0.0434 -0.0535  0.3653
27677W        W44151   3.371  11.119   2.383 -0.0406  0.1650  0.1185
27678W        W44152  16.454   4.489  12.599 -0.1945 -0.1791 -0.0449
27679W        W44153   7.256  16.083   0.047 -0.0336  0.1437  0.3090
27680W        W44154  11.954   5.429   3.807  0.2128 -0.0282 -0.1178
27681W        W44155   8.254  18.009  15.191 -0.1196  0.1097 -0.0908
27682W        W44156  14.640   6.365  12.810 -0.5039  0.0456 -0.2121
27683W        W44157  12.655  10.867   5.007 -0.0458  0.1969  0.3052
27684W        W44158  15.170   5.254   4.337 -0.0295  0.2303 -0.2398
27685W        W44159  13.785   4.139  14.361 -0.0906 -0.1292  0.0084
27686W        W44160  10.298   0.265   2.853 -0.1449  0.1088  0.0959
27687W        W44161  10.501  14.168   3.280 -0.1961 -0.2182  0.0987
27688W        W44162  13.427  10.429   4.809  0.0364 -0.0271  0.0055
27689W        W44163  13.807  17.883  11.274 -0.1758  0.1670 -0.2812
27690W        W44164   3.523   5.059  11.524 -0.4626 -0.0966 -0.1718
27691W        W44165   1.683  11.481  11.694  0.1355  0.3609 -0.2822
27692W        W44166  15.250  14.638   1.720  0.1624 -0.0228  0.0518
27693W        W44167  17.634  15.861   4.172  0.4199 -0.1495  0.1318
27694W        W44168   0.775   5.747   1.930  0.1888 -0.1058  0.3223
27695W        W44169  17.410   7.687  11.788 -0.0556 -0.1579  0.0370
27696W        W44170   0.459  15.147   2.478  0.0978  0.1199  0.0232
27697W        W44171  11.399  18.108  12.275 -0.0666  0.2337 -0.1568
27698W        W44172  12.433   5.504   0.406 -0.0970  0.2960 -0.0679
27699W        W44173  11.867   3.330  12.098  0.0769  0.1618  0.2946
27700W        W44174   3.051   5.218  15.307  0.3722  0.2357 -0.1142
27701W        W44175   2.559   3.830  15.933  0.1583  0.1925 -0.0109
27702W        W44176   5.059  13.192  13.231 -0.1395  0.1818 -0.0832
27703W        W44177  17.382   0.767  11.035 -0.1342 -0.0244  0.1327
27704W        W44178   1.346   8.860  13.185 -0.3250 -0.1933 -0.3052
27705W        W44179  16.015   9.764  15.108 -0.0528 -0.0365  0.1076
27706W        W44180   2.321   8.072  15.724 -0.2230 -0.1471 -0.0721
27707W        W44181   5.313  13.682  14.081 -0.1716 -0.0658  0.0195
27708W        W44182   5.115   9.154  13.555 -0.2551  0.0213  0.0602
27709W        W44183   5.972  15.388  13.157 -0.2088 -0.4257 -0.1674
27710W        W44184  12.267   4.339  13.015 -0.0284 -0.3688  0.2965
27711W        W44185   4.138   7.890  10.533  0.2811 -0.2253 -0.0399
27712W        W44186   1.842   9.840  13.426 -0.0683  0.2150 -0.0714
27713W        W44187   0.204   9.023   0.312 -0.3254 -0.2169  0.2562
27714W        W44188  18.050  13.894   4.166 -0.1767 -0.0126  0.3702
27715W        W44189   7.236   4.437  11.804 -0.0435 -0.3000 -0.0104
27716W        W44190  12.483  17.004   2.069  0.1573 -0.3847 -0.1490
27717W        W44191  12.253   7.201  12.362 -0.2742  0.2947  0.4662
27718W        W44192   7.933   8.166   1.090  0.3096  0.1205 -0.0330
27719W        W44193   9.359  11.694   2.942 -0.1516  0.4170  0.2539
27720W        W44194  11.705   2.722  11.045 -0.0257 -0.0027  0.0131
27721W        W44195  12.617  16.246   0.823  0.0642  0.2512 -0.0347
27722W        W44196   0.960   8.066   1.595  0.2054 -0.0122 -0.1440
27723W        W44197   4.938   5.214   0.558 -0.2418 -0.2173 -0.1785
27724W        W44198   5.743   6.084  11.440  0.2943  0.0800  0.2805
27725W        W44199   7.477  16.400   3.948  0.1461 -0.2414 -0.0159
27726W        W44200   5.628  11.761  14.371 -0.1668  0.1868 -0.2396
27727W        W44201   1.946  15.327   0.049  0.2536  0.1949  0.0516
27728W        W44202   8.882   8.805   1.409 -0.1147  0.0911 -0.0516
27729W        W44203  11.236   6.042   4.191  0.1124 -0.0255  0.0332
27730W        W44204  12.078   9.763   5.093  0.0970  0.0684 -0.0682
27731W        W44205  15.723  10.332  14.897 -0.0278 -0.0519 -0.0539
27732W        W44206  10.499   8.703   0.204  0.2230 -0.1174  0.0178
27733W        W44207  11.187   2.174  14.719 -0.0631  0.2947 -0.4043
27734W        W44208   8.087   1.635  11.510 -0.1433 -0.0890 -0.1558
27735W        W44209   4.563   4.846   0.482 -0.4760  0.1188  0.1103
27736W        W44210  14.095   0.638   0.574  0.3068  0.1074  0.0447
27737W        W44211  16.316  11.344  13.982 -0.1191 -0.2087 -0.0589
27738W        W44212   3.874  10.875   2.413 -0.0514  0.0061 -0.0458
27739W        W44213   4.774  16.151  13.116 -0.0963 -0.0734  0.0021
27740W        W44214   8.695   2.760  14.001  0.1698 -0.3606 -0.1532
27741W        W44215   2.644  10.737   3.768  0.1024 -0.1111  0.0516
27742W        W44216   6.225  15.941  15.681  0.0185 -0.0246 -0.2789
27743W        W44217  13.577  17.922   2.660 -0.1627  0.0351 -0.2415
27744W        W44218   8.096   9.357   0.949  0.2881  0.1740  0.0013
27745W        W44219   6.812  10.713  12.802 -0.0897  0.0272 -0.2296
27746W        W44220   6.760  16.092   0.009 -0.3446 -0.0754 -0.2960
27747W        W44221   7.017   7.100  13.785 -0.0038 -0.0441 -0.0677
27748W        W44222   2.208   5.151  10.950  0.1974  0.1613  0.1331
27749W        W44223  10.658   9.527  13.474  0.0672  0.1920  0.2754
27750W        W44224  15.922   6.565   3.990  0.0066  0.1788  0.0553
27751W        W44225   7.123   6.251  13.913  0.0601  0.1746 -0.2867
27752W        W44226  14.667   3.976   1.340  0.3378  0.0302 -0.1678
27753W        W44227  10.922   1.756   0.089 -0.2413 -0.0486 -0.0892
27754W        W44228   7.019  15.277  12.897 -0.2674  0.0151  0.2750
27755W        W44229  11.945  17.991   1.062  0.2244  0.0375  0.0537
27756W        W44230  17.654   7.029  12.570  0.1301  0.1104 -0.0211
27757W        W44231   4.715   8.119  13.780 -0.1079 -0.1631 -0.1499
27758W        W44232  18.293   7.321   2.931  0.0609 -0.3033  0.1533
27759W        W44233  18.374   8.370  14.245  0.0776 -0.0472 -0.0247
27760W        W44234  16.260   8.029   3.368  0.0344  0.0999 -0.1693
27761W        W44235  13.420   0.713   1.212 -0.2201 -0.0079 -0.2696
27762W        W44236   7.357   9.943   4.358  0.0755 -0.0348 -0.1599
27763W        W44237  10.767   2.259  15.959  0.0248  0.2636  0.0330
27764W        W44238  15.559   6.903  13.633 -0.0522 -0.1184 -0.4295
27765W        W44239  15.962   0.835   4.679  0.1797 -0.2343  0.1081
27766W        W44240  10.849  15.398   4.878  0.0145 -0.2241  0.0154
27767W        W44241  17.094   4.855   2.930  0.1547 -0.0071 -0.0727
27768W        W44242   7.713  13.492   5.033  0.3440 -0.2992  0.5269
27769W        W44243   7.131   9.644   0.282  0.0449  0.0406 -0.1099
27770W        W44244   8.241   1.675  15.130 -0.0941 -0.1109 -0.0843
27771W        W44245  13.804  15.725   3.386 -0.1219 -0.1537  0.1044
27772W        W44246  16.030   9.084   4.468 -0.1539 -0.0905  0.1590
27773W        W44247   2.189  11.871   2.821  0.0215  0.4585 -0.2381
27774W        W44248  12.031  12.723   4.694  0.0504  0.3331  0.0397
27775W        W44249   7.108   4.913   0.089 -0.0031  0.3033  0.0422
27776W        W44250  11.712   3.162   0.615  0.1225  0.1996  0.2150
27777W        W44251   8.688  13.929   4.096 -0.3813  0.1371  0.0750
27778W        W44252   4.258   8.985  13.110 -0.1214  0.3863  0.2483
27779W        W44253   1.636   3.177  11.320 -0.3487  0.1537  0.2118
27780W        W44254   1.729   0.129   1.275 -0.0530 -0.0266 -0.0010
27781W        W44255   2.528   1.084  14.342  0.0212 -0.1686 -0.2469
27782W        W44256  17.584   4.744  13.434 -0.2011  0.1279 -0.3059
27783W        W44257   2.066  11.313  12.548  0.2749  0.0268  0.1147
27784W        W44258  16.112  10.649  14.505 -0.1635 -0.0165  0.3406
27785W        W44259  12.902   0.632   5.520  0.0282 -0.1640 -0.0548
27786W        W44260  12.473  15.828   5.262 -0.0444 -0.0438 -0.1383
27787W        W44261   2.890  14.492  14.639  0.0240  0.2209  0.1298
27788W        W44262  16.947   3.706   3.773  0.2938 -0.1326  0.0602
27789W        W44263  16.983  12.301  14.533  0.0925  0.0647  0.0797
27790W        W44264   8.223  18.064   1.424 -0.0111  0.1253  0.0479
27791W        W44265   0.056   6.203  12.682 -0.1769  0.0490  0.1730
27792W        W44266   1.735   0.865   0.483 -0.0757  0.1846 -0.1722
27793W        W44267  11.098   4.646   3.436  0.0802 -0.0434  0.1298
27794W        W44268   9.169   5.171   3.717 -0.4220  0.0452 -0.1946
27795W        W44269   9.525   9.648   3.839  0.3461  0.2573 -0.3835
27796W        W44270  10.943  11.402  13.386 -0.0856  0.2893 -0.3544
27797W        W44271   1.618   8.125  15.174  0.0342  0.0125 -0.1895
27798W        W44272  17.576   6.672  13.002  0.2733 -0.0563 -0.0954
27799W        W44273  18.348   9.903   3.163  0.3067 -0.0654  0.4041
27800W        W44274  16.995  13.691   1.276 -0.1145  0.2057  0.0283
27801W        W44275  17.276   4.004   2.023 -0.0070 -0.0831  0.2065
27802W        W44276   1.579  17.851   2.348 -0.2185  0.1015  0.2257
27803W        W44277  14.003  15.545  11.456  0.0260  0.0750  0.0376
27804W        W44278  15.617  10.556  13.946  0.2843 -0.0280 -0.2139
27805W        W44279  12.608  17.955   3.709  0.2942  0.1654  0.1341
27806W        W44280  13.283  10.891  12.957  0.2157  0.2759 -0.2013
27807W        W44281  12.020  10.833  13.403  0.1155  0.1468  0.0308
27808W        W44282  14.770  11.853  14.225 -0.3045 -0.2395 -0.0409
27809W        W44283  15.930  14.950   5.938 -0.2814  0.0875  0.0739
27810W        W44284  14.067   6.197  12.367  0.0375 -0.3140 -0.1109
27811W        W44285  16.559   8.089   5.872 -0.1443  0.0325 -0.2162
27812W        W44286  16.695   2.274   4.113 -0.1735 -0.1485 -0.4564
27813W        W44287  14.275   4.736   1.667 -0.4675 -0.2031 -0.1927
27814W        W44288   0.082  15.207  13.381 -0.0042  0.0122  0.2378
27815W        W44289  15.052  15.764   3.829  0.0636  0.1494 -0.4283
27816W        W44290   9.746   2.240   4.120 -0.2415  0.1815 -0.1280
27817W        W44291   4.300   9.441   0.379 -0.0937 -0.0832 -0.0668
27818W        W44292  15.751  16.585  15.720 -0.0250  0.0006 -0.2344
27819W        W44293  16.681  12.260  12.372  0.0921 -0.1522  0.1817
27820W        W44294  17.919  15.622   6.155 -0.1128  0.1317 -0.1837
27821W        W44295  18.310   6.407   4.055  0.0968 -0.0985 -0.2658
27822W        W44296  16.503  15.373  14.871 -0.0597  0.0235  0.1786
27823W        W44297   3.245  13.923  14.910  0.0503  0.1274  0.0054
27824W        W44298   9.806   1.684   2.567 -0.0086 -0.2404 -0.3264
27825W        W44299   7.590   4.967  12.719 -0.2252  0.2972  0.1205
27826W        W44300   0.010   6.627   1.309  0.1289 -0.0659 -0.0711
27827W        W44301   1.497  13.401   1.435 -0.0190  0.3029 -0.1694
27828W        W44302   2.669   9.215   3.163 -0.1842 -0.1584  0.1716
27829W        W44303  13.333   9.260   3.820  0.0451  0.3026  0.0755
27830W        W44304  10.620   2.389  12.524  0.0912 -0.0764 -0.1289
27831W        W44305   1.257  14.790  14.988  0.2180 -0.1788  0.1693
27832W        W44306  14.075  12.017  12.429  0.1343  0.0126  0.2141
27833W        W44307  11.045   8.216  13.144 -0.0326 -0.3098  0.3714
27834W        W44308  12.735  10.791  13.859  0.0577 -0.1830  0.0800
27835W        W44309  17.779   5.727   2.661 -0.1257  0.1408 -0.2042
27836W        W44310  17.800   0.453   3.728 -0.0678  0.0382  0.3904
27837W        W44311   2.358   8.194  13.666 -0.1139 -0.5000 -0.2665
27838W        W44312   5.397  10.313   1.883 -0.1334  0.0435  0.0452
27839W        W44313   2.003   1.091   0.863 -0.2666  0.1840 -0.0654
27840W        W44314   9.475  11.115   0.557  0.4110 -0.2956  0.1586
27841W        W44315  14.983  11.816  12.855 -0.0172  0.0346 -0.0325
27842W        W44316   0.219   3.352  13.265  0.0426  0.0552  0.1049
27843W        W44317  16.301   7.604   5.809 -0.2169  0.1040  0.0930
27844W        W44318  14.789   0.943   3.707 -0.0721 -0.1003 -0.1109
27845W        W44319   1.064  12.383  14.790 -0.2623 -0.0276 -0.0029
27846W        W44320  14.284   9.473  11.913 -0.2516  0.3696  0.0066
27847W        W44321   2.219   3.433   5.515 -0.0804  0.0466  0.0072
27848W        W44322   6.566  14.187  12.543 -0.0750  0.1408 -0.1163
27849W        W44323   7.638  11.565  12.779 -0.1789  0.2991 -0.4067
27850W        W44324   2.701   3.122  11.435  0.2051 -0.0882  0.0023
27851W        W44325  11.546   0.176   2.166  0.3226 -0.2662 -0.0384
27852W        W44326   4.183   8.019   3.271  0.2317 -0.1331 -0.0295
27853W        W44327   7.081   2.556   0.341 -0.0464 -0.1941  0.2452
27854W        W44328  12.239  13.159  13.978  0.0479  0.0516 -0.0764
27855W        W44329   2.113   8.430   1.658 -0.3884 -0.1827  0.0802
27856W        W44330   0.378   1.298  13.695  0.0863  0.0817  0.1376
27857W        W44331  15.509   3.613   0.166 -0.0994 -0.1436  0.5385
27858W        W44332  12.997  17.735  11.163  0.0307  0.0735 -0.0161
27859W        W44333   2.780  14.305  11.720  0.1546  0.0590  0.3383
27860W        W44334   3.500   6.353   5.173  0.0038  0.0485 -0.0022
27861W        W44335  16.967   9.963  15.274  0.2124 -0.2359 -0.0189
27862W        W44336   3.686   6.819  15.875 -0.1581  0.0350  0.1165
27863W        W44337   6.878   4.772  13.440  0.0663 -0.0410 -0.1807
27864W        W44338   1.957  10.032  13.929 -0.0818  0.3774  0.0392
27865W        W44339   5.623  16.691  11.347  0.2057  0.2773 -0.1668
27866W        W44340   0.272   7.607  13.653  0.1302  0.0044  0.0462
27867W        W44341   0.155   6.487   4.800 -0.1533  0.2385 -0.4278
27868W        W44342   5.460  14.952   4.682  0.0415  0.1335 -0.0115
27869W        W44343  15.035  15.561   2.402 -0.1724 -0.0914  0.0899
27870W        W44344  14.577   5.191   1.688  0.1035  0.3245  0.1241
27871W        W44345  16.736   8.112   4.934 -0.1226 -0.1044 -0.1872
27872W        W44346  10.910  15.546   4.422 -0.0608 -0.1655  0.0963
27873W        W44347  12.919  14.419  15.558 -0.1546  0.2019  0.0106
27874W        W44348  14.288   1.092  12.878 -0.0560 -0.2166  0.2439
27875W        W44349   7.416  17.117  11.625  0.0705  0.2647 -0.0710
27876W        W44350   4.185   3.812  13.946  0.1073  0.1245  0.0662
27877W        W44351  17.333  16.205   3.656 -0.1323  0.3175 -0.1932
27878W        W44352   0.321   0.904  10.920  0.0584  0.1215 -0.0667
27879W        W44353  10.512  12.872   0.837  0.1511 -0.0376 -0.0223
27880W        W44354   9.573   2.434  15.341  0.0432 -0.2497  0.0032
27881W        W44355  10.952   6.414  15.230 -0.0141  0.0007 -0.1159
27882W        W44356  11.527  11.283   5.099  0.0653  0.1990 -0.3248
27883W        W44357   6.842  10.596  14.826  0.1036  0.1156 -0.0086
27884W        W44358  15.797  17.439   4.775  0.2281  0.2427  0.1566
27885W        W44359  15.964  12.280  15.327 -0.1344  0.2069  0.0989
27886W        W44360   6.613   3.024  10.470  0.0287 -0.1513  0.0166
27887W        W44361  13.167  10.915  11.900 -0.0275  0.0465  0.1583
27888W        W44362   7.825   3.711  13.904 -0.0735 -0.2929  0.0292
27889W        W44363  17.681  18.339   2.941  0.1044  0.2259 -0.0016
27890W        W44364  12.806  13.117  15.777  0.2275  0.1452 -0.1200
27891W        W44365  11.147   6.786  14.929 -0.1225 -0.1078 -0.2190
27892W        W44366   6.592   8.582   3.910  0.2804  0.2048 -0.1724
27893W        W44367  17.649  18.218   2.057 -0.1360 -0.0295 -0.0272
27894W        W44368   9.135  17.771   5.346  0.3092 -0.0180 -0.1207
27895W        W44369  18.049   5.599   3.806  0.1320 -0.1951  0.3069
27896W        W44370   1.804   3.602   4.226  0.0085 -0.0626  0.1373
27897W        W44371  16.192  11.217  14.541 -0.3210 -0.1661  0.1081
27898W        W44372   4.397  17.131  14.383  0.3106  0.2176 -0.1840
27899W        W44373   4.917   9.180  10.635 -0.2141  0.1060  0.4745
27900W        W44374  12.138  18.447  11.493  0.3149 -0.0978 -0.0683
27901W        W44375  12.886   9.198   3.982 -0.0489  0.1846 -0.2831
27902W        W44376  11.503  11.671   0.310  0.0856 -0.3076 -0.0257
27903W        W44377   0.093  17.083  11.384  0.2511  0.1180 -0.1783
27904W        W44378   3.097   9.838   3.703  0.0287  0.1456  0.2912
27905W        W44379  16.155  14.919   5.170 -0.0347  0.0691  0.3132
27906W        W44380   9.073  14.641   1.013  0.0033  0.0082  0.0638
27907W        W44381  12.875   0.121  13.203  0.2687  0.1585 -0.1146
27908W        W44382  14.440  11.978   0.500 -0.0353 -0.2966  0.1262
27909W        W44383   0.394  11.534  13.968 -0.2934  0.1230 -0.0589
27910W        W44384   2.696   4.370  11.460 -0.1251  0.1840 -0.0227
27911W        W44385   7.930   7.657  11.688 -0.3349 -0.1414  0.1528
27912W        W44386   6.414   0.458  11.113 -0.0910  0.2111 -0.0652
27913W        W44387   0.351   2.688  15.387 -0.0311  0.1096 -0.0900
27914W        W44388  16.253   2.207   4.407  0.2198  0.2279  0.2147
27915W        W44389   1.508   3.827   2.049 -0.1038  0.1130  0.1453
27916W        W44390   4.421  14.473   1.286 -0.1028  0.0178  0.0807
27917W        W44391  13.681   6.119  14.007  0.1028  0.1192 -0.0402
27918W        W44392   3.176   7.197   0.122 -0.4031 -0.0410  0.0465
27919W        W44393   7.670  16.737  12.054  0.0281  0.0377  0.0018
27920W        W44394  14.265  13.508  11.294 -0.1268  0.0175 -0.3208
27921W        W44395   4.799  12.078  10.793 -0.4303 -0.1739 -0.2044
27922W        W44396   9.381   2.019  12.720 -0.1390  0.1940  0.3102
27923W        W44397   2.434  10.187  13.718 -0.3136 -0.1314 -0.2683
27924W        W44398  11.399  11.828   2.681  0.0287  0.0848 -0.0581
27925W        W44399   9.485   0.956   2.191  0.0991  0.1615 -0.0065
27926W        W44400   1.391   1.149  15.068 -0.0540 -0.0578  0.2976
27927W        W44401  15.412  17.837   3.547  0.2094 -0.0653  0.2945
27928W        W44402   1.464   1.938   2.422 -0.1255 -0.3132 -0.1397
27929W        W44403   4.001   8.016  11.006  0.0208  0.0977  0.3749
27930W        W44404   1.811  12.748   4.001  0.3535 -0.1085  0.1788
27931W        W44405   8.827  12.099   0.577 -0.2272 -0.0600 -0.2131
27932W        W44406  13.679  15.455  13.012  0.1316 -0.0079 -0.1187
27933W        W44407  14.080  15.717  15.684  0.1448  0.0891 -0.0078
27934W        W44408   9.378   7.600  12.741 -0.0754 -0.2220 -0.0007
27935W        W44409  15.950   3.951  11.771  0.2325  0.0883 -0.1824
27936W        W44410  17.246   7.777   5.604  0.2417 -0.2156  0.1324
27937W        W44411   8.393   6.534   3.421  0.5486 -0.0008  0.1624
27938W        W44412  18.388   0.814   4.543  0.0257 -0.0203 -0.2187
27939W        W44413   1.118  12.055   5.157 -0.1404  0.1023  0.2144
27940W        W44414   4.660   9.804  12.490 -0.0834 -0.1151  0.0997
27941W        W44415  15.293  17.397   2.758  0.0196  0.1548  0.1941
27942W        W44416  18.116   6.192   0.042  0.3365 -0.1472 -0.0865
27943W        W44417  12.008   4.767   4.704 -0.1508 -0.0776  0.1444
27944W        W44418   9.395  11.668  14.315 -0.1407  0.0892  0.0917
27945W        W44419  10.568   2.547  14.341 -0.2180  0.0005 -0.1160
27946W        W44420  10.938   2.986   4.225 -0.0908 -0.0692 -0.0004
27947W        W44421   2.968  11.253   2.120  0.0833 -0.1752 -0.3467
27948W        W44422  11.178   9.289   0.389 -0.0790  0.1304  0.3160
27949W        W44423  16.425   3.007  11.019  0.2509 -0.3398 -0.1270
27950W        W44424   9.646   4.509  13.310  0.4001 -0.1529  0.3485
27951W        W44425  16.820   9.318   5.116  0.0580  0.3398  0.0507
27952W        W44426   7.860   6.253   3.812 -0.2436 -0.1483 -0.0033
27953W        W44427  17.691   2.564  12.290 -0.1352  0.1492  0.0565
27954W        W44428  13.398   9.985  12.909  0.0219  0.0141 -0.0030
27955W        W44429  16.453   0.944  15.874 -0.2084  0.1808  0.0682
27956W        W44430  16.332   3.185  13.752 -0.0051  0.4591 -0.1650
27957W        W44431  16.461  16.238   2.332 -0.1166 -0.2640 -0.4448
27958W        W44432  12.315   0.112   5.428  0.1672  0.1641  0.3081
27959W        W44433   3.627   4.113  14.962 -0.0149 -0.1421  0.2530
27960W        W44434  18.351   9.639   2.656 -0.3971  0.0559  0.3005
27961W        W44435   6.341  14.914  13.488  0.0937 -0.0400  0.0887
27962W        W44436  18.291   3.006  14.395 -0.2856 -0.1813  0.0743
27963W        W44437  14.741  14.526   1.613 -0.1389 -0.0523 -0.0143
27964W        W44438  11.441  14.577   5.523 -0.1146 -0.2404 -0.0355
27965W        W44439  16.036   6.552   0.210 -0.0910 -0.2129  0.0454
27966W        W44440   2.501   3.107  15.294 -0.0016  0.3404  0.0930
27967W        W44441   5.251  14.906   5.293 -0.1632  0.4469  0.0942
27968W        W44442  10.550  13.873  13.411  0.0032  0.2359 -0.1544
27969W        W44443   5.145  14.253   1.939  0.0466  0.0950  0.1010
27970W        W44444   1.469  12.227  13.508  0.1113  0.0316  0.1743
27971W        W44445   8.448   7.513  12.621  0.0847 -0.0012 -0.2064
27972W        W44446   8.435  18.426   1.716  0.2275 -0.0011  0.1405
27973W        W44447  15.139   8.680  15.090 -0.0417 -0.0269  0.0290
27974W        W44448   9.517  15.889  12.597 -0.3470  0.3246  0.2175
27975W        W44449  12.962  13.586   2.864 -0.1387 -0.1669 -0.0791
27976W        W44450   7.099  16.290   2.674 -0.0294 -0.1807  0.0893
27977W        W44451   4.591   3.996  11.959  0.2024 -0.1119 -0.0800
27978W        W44452   9.789   5.967   5.514 -0.1536 -0.2205  0.3918
27979W        W44453   1.485  10.486  14.272  0.2115 -0.0722  0.3960
27980W        W44454  14.942  15.574   5.234  0.2863 -0.0884 -0.1453
27981W        W44455  10.794   7.892   0.200  0.3368  0.1659 -0.0455
27982W        W44456  10.095  11.261  15.891 -0.0022  0.2621  0.2159
27983W        W44457  18.211   5.094   3.717 -0.0603  0.3603  0.1743
27984W        W44458   7.891   3.256  12.634  0.1875  0.0320  0.1547
27985W        W44459  10.116   8.602  15.789 -0.2489  0.2760 -0.0477
27986W        W44460   5.554   9.601   1.918  0.0567  0.0657 -0.0200
27987W        W44461   4.822   2.944  15.496  0.2448 -0.0990  0.2234
27988W        W44462   2.525   7.164   3.565 -0.2156  0.1847  0.1653
27989W        W44463   2.558  17.658   4.204 -0.1552 -0.1959 -0.0384
27990W        W44464   8.496  17.819  12.888 -0.0097  0.1178 -0.0492
27991W        W44465  18.355  13.690  13.395 -0.2263 -0.3674  0.0982
27992W        W44466   7.732   0.705   2.991  0.0856 -0.4956  0.1213
27993W        W44467   0.913   8.103   3.672  0.2308  0.1296 -0.1012
27994W        W44468  16.077  13.708   1.624  0.1497 -0.0235  0.0066
27995W        W44469  12.610   3.141  14.213  0.1357  0.0607 -0.4004
27996W        W44470   5.623  13.772  14.895 -0.0099 -0.2637 -0.1159
27997W        W44471   9.428  17.437  15.717  0.3128 -0.3229 -0.1923
27998W        W44472   6.806   3.890  13.078 -0.4047  0.1783  0.1263
27999W        W44473  17.448   5.891   0.860 -0.1662  0.1408  0.0632
28000W        W44474  17.399  17.980   3.212 -0.2314  0.2134  0.0164
28001W        W44475   8.408   3.414  15.226  0.2800 -0.2033  0.3771
28002W        W44476  10.192  16.276   4.799  0.0520 -0.0581  0.1726
28003W        W44477  14.238  16.727  15.321 -0.1430  0.1482  0.0167
28004W        W44478   7.710   0.287   3.591 -0.1442 -0.2436 -0.1031
28005W        W44479  14.875   4.778   4.184  0.0134  0.1462 -0.0663
28006W        W44480  17.773   4.568  11.956  0.2888 -0.0686 -0.0102
28007W        W44481   0.962  17.085   1.774 -0.0523  0.3414  0.0554
28008W        W44482   0.400  15.250  15.164  0.2810 -0.1905 -0.1381
28009W        W44483  16.287  15.183  10.164 -0.1088  0.0871 -0.2314
28010W        W44484  11.761  10.735   0.785  0.1610 -0.0825 -0.0407
28011W        W44485   6.896  10.069  13.859 -0.1624  0.2005  0.0498
28012W        W44486  16.385   2.982  11.534  0.0304  0.2500  0.2291
28013W        W44487   9.955   8.113   1.490 -0.0536 -0.1634 -0.0029
28014W        W44488   7.716   0.443   1.977 -0.1089  0.1858  0.0407
28015W        W44489   8.393  13.495   2.006 -0.1860 -0.1933  0.0484
28016W        W44490  12.326  13.881  13.652  0.0286 -0.2992  0.0546
28017W        W44491  18.097  18.439  14.063 -0.2310  0.1552 -0.1354
28018W        W44492  18.194   7.379  15.782 -0.2255 -0.0466 -0.0616
28019W        W44493  11.387  12.089  11.175  0.0583 -0.0017 -0.1556
28020W        W44494   9.371   7.110   4.751  0.2068 -0.0210  0.0804
28021W        W44495  16.198  12.339  12.427 -0.2456 -0.1010  0.4051
28022W        W44496  11.073   3.670   4.276 -0.1481  0.1790  0.2320
28023W        W44497   2.915   1.219   4.822  0.1742 -0.0255 -0.3904
28024W        W44498  17.164   4.031  11.541  0.1293  0.5056  0.1720
28025W        W44499  13.458  18.352   3.448 -0.0340 -0.1818 -0.0330
28026W        W44500  16.886  17.593   1.903 -0.1577  0.0496  0.0584
28027W        W44501  12.837  17.117  13.152  0.1579 -0.1515 -0.1875
28028W        W44502   0.593   9.808  15.224 -0.1151  0.2355  0.1380
28029W        W44503   1.012   9.335   2.955 -0.4006 -0.3551 -0.0174
28030W        W44504  15.829  15.779   2.335 -0.0190 -0.3746  0.1002
28031W        W44505   8.618   0.128   3.909  0.3556  0.1966 -0.1897
28032W        W44506  10.113   3.099   5.738 -0.2454  0.0211  0.3447
28033W        W44507  12.967   0.928  13.504  0.2359  0.0390  0.2717
28034W        W44508   2.836   5.449   4.964  0.0899  0.0221 -0.1816
28035W        W44509   5.702  16.679   2.479 -0.0290 -0.1845  0.0203
28036W        W44510  12.999  17.962   1.157 -0.0234  0.2812  0.3634
28037W        W44511  15.250  15.485   4.828  0.0530  0.0184  0.3398
28038W        W44512   0.486   8.354  14.055  0.2145 -0.0002 -0.1245
28039W        W44513  18.256   6.025   3.034  0.0099 -0.0031  0.2217
28040W        W44514  16.637   9.377   3.268  0.1434 -0.0026  0.2226
28041W        W44515  12.454  15.517  12.268  0.0642  0.1737 -0.0569
28042W        W44516  14.955  13.169   0.005 -0.1064 -0.0727 -0.4386
28043W        W44517   3.157   0.228   0.593 -0.3006 -0.1342 -0.0674
28044W        W44518  18.084  16.396  13.985  0.1330  0.1350 -0.2154
28045W        W44519   1.292  12.070   3.970 -0.1613 -0.0660  0.2452
28046W        W44520   3.377   9.863   0.409  0.0545  0.2644 -0.0918
28047W        W44521  15.752  11.586   5.891 -0.1493 -0.0888 -0.1791
28048W        W44522   9.312   4.872  12.641 -0.0066 -0.1105 -0.1416
28049W        W44523  16.587   0.277  11.772 -0.0791  0.0632 -0.0397
28050W        W44524  16.296  14.364   4.679 -0.4794 -0.1517  0.0178
28051W        W44525  16.145  17.260  11.544 -0.0154 -0.0513  0.2724
28052W        W44526  16.403   4.577   3.233  0.2914  0.2384  0.0403
28053W        W44527  10.773  13.007  15.558 -0.1821 -0.0085 -0.0116
28054W        W44528   6.487   3.808   5.642 -0.0353  0.1088  0.0946
28055W        W44529  10.107   9.239   5.057  0.0615  0.0270  0.3142
28056W        W44530  16.702  15.917   2.975 -0.1744  0.0820 -0.3025
28057W        W44531   5.367  11.839   3.518 -0.1853 -0.3612  0.2591
28058W        W44532  15.482  10.565   1.190  0.4661  0.0874 -0.0398
28059W        W44533   8.596   9.380   4.583 -0.0760 -0.0923 -0.0455
28060W        W44534  11.507   6.102  15.576 -0.0795  0.0372  0.0118
28061W        W44535  17.129   8.936   2.817  0.1564  0.0315 -0.1354
28062W        W44536   8.005   2.349   5.126 -0.4394 -0.1292  0.3435
28063W        W44537   8.323   0.229   3.365  0.2778 -0.3419 -0.3887
28064W        W44538   7.689   6.923  11.620 -0.0721  0.0590  0.1711
28065W        W44539   6.440  18.368   2.323  0.3128  0.1676 -0.2470
28066W        W44540  14.041  18.424  11.894  0.1652 -0.0386  0.0178
28067W        W44541  12.919  16.776  15.193  0.0109 -0.1407  0.0475
28068W        W44542   5.196   2.533  11.341 -0.2761 -0.0927  0.1033
28069W        W44543  15.996   3.336   4.074 -0.0050  0.0034  0.0371
28070W        W44544   5.793  11.673   2.470 -0.1872  0.0228 -0.0339
28071W        W44545  13.642   6.020   2.860  0.0630  0.1427 -0.1121
28072W        W44546  10.857   7.246  15.663  0.0581  0.1524 -0.0624
28073W        W44547   2.532  15.716   3.863  0.2202  0.0738 -0.2110
28074W        W44548  10.478  12.189   4.172  0.1771  0.1812  0.2180
28075W        W44549  12.105  17.741  11.665 -0.0785  0.2012  0.2902
28076W        W44550  15.788   0.407   5.095  0.3931  0.3144  0.2435
28077W        W44551   1.895   6.631   3.381  0.2146 -0.0599 -0.1638
28078W        W44552   8.179   8.469   3.008 -0.1103  0.0247 -0.2427
28079W        W44553  10.058  14.060  12.290  0.0660 -0.0070 -0.1091
28080W        W44554   8.984   1.885  13.502 -0.1944 -0.3313  0.3358
28081W        W44555   6.733   8.319   4.731 -0.1170  0.0789 -0.0820
28082W        W44556  17.423  18.232  15.356 -0.1660 -0.0167 -0.2575
28083W        W44557   0.854   6.342   2.020 -0.2347 -0.0192  0.0759
28084W        W44558  12.950   2.553   1.175 -0.1299 -0.2347 -0.1465
28085W        W44559   1.361  10.933   2.953 -0.4534  0.1542 -0.0635
28086W        W44560   8.902   7.959  11.784  0.0634  0.1707 -0.0428
28087W        W44561  16.869   3.974   1.616  0.0939 -0.1825 -0.1102
28088W        W44562   0.978   6.981  11.084 -0.0904  0.3128  0.1717
28089W        W44563   0.670   5.983   3.352  0.0887  0.3486  0.2069
28090W        W44564   2.461   1.850  13.041 -0.0916 -0.0804 -0.3045
28091W        W44565  17.830  11.618   0.407  0.2111 -0.1931 -0.0130
28092W        W44566  14.900   4.421   1.334  0.1496 -0.3457  0.0299
28093W        W44567   6.257   4.475   0.085  0.1755 -0.2954 -0.0079
28094W        W44568   8.306   7.527  15.532  0.0734 -0.0710 -0.2063
28095W        W44569  18.026   3.499   4.617  0.0774 -0.0192  0.0032
28096W        W44570   1.961  10.152  10.942  0.0955 -0.1218 -0.0509
28097W        W44571  16.247  18.200   5.211 -0.1066  0.0727 -0.2443
28098W        W44572   5.981  15.598  11.821  0.2365 -0.1260  0.0188
28099W        W44573   4.083  13.171   4.467  0.0183 -0.0455  0.1137
28100W        W44574  17.531   7.055  15.158 -0.1146 -0.0746  0.2484
28101W        W44575   2.103  17.205   5.611  0.0841 -0.0322 -0.1216
28102W        W44576   8.853   0.845   1.726 -0.2126  0.0230  0.0958
28103W        W44577   6.738   1.600   1.056 -0.0056 -0.0644  0.3521
28104W        W44578  13.518   7.631  15.195 -0.0578  0.0347  0.0151
28105W        W44579  15.425  10.798   0.175  0.0892  0.1356 -0.0040
28106W        W44580  13.621   0.465  15.297  0.0503  0.0226 -0.1426
28107W        W44581  16.858   5.574  15.815 -0.1578 -0.0566  0.1233
28108W        W44582  14.568   4.844  15.334  0.1139 -0.1063  0.0926
28109W        W44583   3.703  17.185  11.976  0.0742  0.0168 -0.0894
28110W        W44584  12.299  17.145   0.255 -0.1960 -0.0327  0.0140
28111W        W44585   4.280  12.683  11.585  0.2331  0.0155  0.0348
28112W        W44586  15.829  14.116  12.985  0.0560  0.0135  0.0597
28113W        W44587   3.019   8.270  12.421 -0.0396  0.0855 -0.1114
28114W        W44588   5.964  14.442   4.337  0.0358  0.1432 -0.3510
28115W        W44589   2.491  11.213   4.535  0.1093 -0.0420 -0.0888
28116W        W44590   1.677   7.410  11.339  0.2071  0.1579  0.0114
28117W        W44591  12.219   5.665  13.393  0.3454 -0.0017 -0.1944
28118W        W44592   7.647   2.658   5.061 -0.2599 -0.3518  0.0983
28119W        W44593   6.929   7.617  11.821 -0.2928 -0.0602  0.0849
28120W        W44594   7.572   6.037  15.308 -0.0219 -0.0691 -0.1499
28121W        W44595   3.765  14.906   3.148  0.1395 -0.5084  0.0824
28122W        W44596   1.443  12.961   4.820 -0.0029 -0.3287 -0.2165
28123W        W44597   4.936   5.246   1.098 -0.0890  0.0718  0.3806
28124W        W44598   1.410   9.713   2.791 -0.0743  0.1073 -0.2927
28125W        W44599  13.088  16.952   5.141 -0.1034 -0.0892 -0.0274
28126W        W44600   1.523  15.801   3.968 -0.0189  0.2240  0.0608
28127W        W44601   9.924  12.973   2.335  0.0567  0.1903 -0.0811
28128W        W44602  17.315  18.088  13.826 -0.1678  0.3476  0.1126
28129W        W44603   3.989   3.770   1.311 -0.1508 -0.0514 -0.1611
28130W        W44604   7.361   1.994   3.002 -0.1655 -0.0042  0.2584
28131W        W44605   2.493  10.654   5.427  0.1697  0.2268  0.0102
28132W        W44606   3.555   0.203   4.631  0.0246  0.0203 -0.1025
28133W        W44607   8.265   4.534  15.968  0.2282  0.0175 -0.0091
28134W        W44608  11.697  13.231   3.847  0.0909  0.3024 -0.1541
28135W        W44609  11.347  10.794  15.419 -0.1745 -0.0251  0.3808
28136W        W44610   8.058  14.219  14.008  0.1371 -0.2148 -0.2914
28137W        W44611   4.468  17.064   3.101  0.1716 -0.0017 -0.0538
28138W        W44612  18.051  15.334  13.264 -0.0263  0.2441  0.1302
28139W        W44613   3.278  11.903  13.716 -0.0567 -0.1643  0.0295
28140W        W44614   4.411  14.761  15.312  0.1378 -0.1242  0.1957
28141W        W44615  14.073  11.208   0.182  0.0614 -0.2982  0.2333
28142W        W44616  17.786  15.016   1.264 -0.0534  0.0953 -0.1129
28143W        W44617   8.834  13.765   1.269  0.1172  0.2399  0.3696
28144W        W44618  16.353  12.011  11.395  0.1277 -0.3660  0.1492
28145W        W44619   6.710   1.575   4.016  0.1624  0.3250 -0.1182
28146W        W44620  14.512   3.388  15.394 -0.3309  0.0120 -0.0480
28147W        W44621   5.577   7.172  12.934 -0.0994  0.0485 -0.0122
28148W        W44622  16.254   6.945   2.320 -0.3573 -0.1801  0.0577
28149W        W44623   5.095   6.650   4.858  0.0645 -0.0196 -0.0053
28150W        W44624   0.484  18.061  11.247  0.1409  0.1447 -0.2148
28151W        W44625   7.852  16.136  13.473  0.0793 -0.1013  0.1183
28152W        W44626  12.800  13.256   3.617  0.0008  0.0478 -0.0255
28153W        W44627  18.161   2.032   3.768 -0.2036  0.0316 -0.1168
28154W        W44628  13.929   8.325  12.255 -0.2933 -0.2069  0.2329
28155W        W44629   2.540  14.409   4.220 -0.0443 -0.2237  0.1192
28156W        W44630   2.315   7.501   5.052 -0.2674  0.1235 -0.4881
28157W        W44631  12.504  11.726   2.636  0.1247 -0.2124  0.2104
28158W        W44632  16.810  10.006  12.069  0.0011 -0.1101 -0.0573
28159W        W44633  11.925   8.580  15.015 -0.1013  0.2152 -0.0742
28160W        W44634  17.896   0.248  15.123 -0.0096  0.2643 -0.0260
28161W        W44635  13.125   5.325  13.335  0.3058 -0.1228  0.0558
28162W        W44636   3.341  14.033   4.572  0.1116  0.0913  0.1731
28163W        W44637  15.385  16.136   4.115 -0.0701 -0.0095  0.0549
28164W        W44638   7.361   9.508   2.802  0.1065  0.2350  0.2517
28165W        W44639   3.040   7.050   2.340 -0.0378 -0.0838 -0.1548
28166W        W44640  14.418  11.334   5.422 -0.0938 -0.1228 -0.4156
28167W        W44641   0.759   2.564   3.068 -0.2972 -0.0629 -0.0719
28168W        W44642  16.280  10.834   2.783  0.2622 -0.0806 -0.0097
28169W        W44643  10.174   6.175  11.908  0.0953 -0.3083 -0.3036
28170W        W44644   5.930  12.271  15.861  0.0256  0.1308 -0.3785
28171W        W44645  13.719   7.999  15.856 -0.1060  0.4394 -0.1365
28172W        W44646  12.167   5.075   0.407  0.0180 -0.0397 -0.1451
28173W        W44647   8.238  12.206  11.286  0.0455 -0.1902 -0.0241
28174W        W44648  13.765   4.082  11.860 -0.0345 -0.0354 -0.1403
28175W        W44649   3.824   3.964  14.190 -0.0790 -0.2206  0.0489
28176W        W44650   0.199  13.276   0.149  0.1549 -0.0552  0.2797
28177W        W44651   6.591   9.483   4.107 -0.0336  0.2199  0.0509
28178W        W44652   3.951   6.155   2.668  0.0504  0.1007 -0.1900
28179W        W44653   8.363  18.202  14.204  0.0438  0.0038 -0.0478
28180W        W44654   9.254  12.551  15.638  0.1479  0.1604  0.2394
28181W        W44655   4.495  12.597   0.155 -0.1618  0.1767  0.1113
28182W        W44656   8.520  12.173  11.718  0.2584  0.0426  0.1054
28183W        W44657  12.636   4.171  11.104 -0.1525  0.0934  0.1593
28184W        W44658  13.499  15.187   2.035 -0.0472 -0.1873 -0.1879
28185W        W44659   8.337   2.913   4.619 -0.1787  0.1973  0.1343
28186W        W44660  17.586  12.642   2.329  0.0766  0.2250 -0.1725
28187W        W44661   6.207  17.460   1.246 -0.0539  0.0543  0.1692
28188W        W44662   4.018  16.647  10.532  0.1437 -0.1053  0.0786
28189W        W44663   6.951  11.562  11.468 -0.0580  0.4302  0.1717
28190W        W44664   9.431   5.205  14.384 -0.1493  0.1374 -0.0140
28191W        W44665  11.936  14.572   5.475  0.2382 -0.1127 -0.0891
28192W        W44666   2.783   4.076  14.653  0.1988 -0.0288 -0.2108
28193W        W44667   9.330  17.190   3.428 -0.0852 -0.2161 -0.3272
28194W        W44668   1.008   5.906   3.763 -0.0092 -0.3628 -0.0222
28195W        W44669  18.304   8.438  14.766  0.1312 -0.3056  0.0523
28196W        W44670   0.577   6.097  11.414 -0.1721  0.0252  0.2695
28197W        W44671  15.052   0.449  12.656 -0.0452 -0.0944 -0.1084
28198W        W44672   4.711  13.170  15.054  0.0326 -0.2186  0.2535
28199W        W44673   2.222   1.003   3.971 -0.0560 -0.2327  0.0140
28200W        W44674  17.205  14.318   4.245  0.0370  0.2275 -0.1666
28201W        W44675  15.499   9.027  15.528 -0.2486  0.0423  0.1412
28202W        W44676   2.619   4.975   1.799  0.0559 -0.1112  0.2752
28203W        W44677   5.711  17.441  14.362  0.1624  0.0493 -0.1167
28204W        W44678   3.967   6.130   3.687  0.0188  0.1112 -0.1153
28205W        W44679  10.854  11.487  13.931  0.0916  0.1447  0.0050
28206W        W44680  16.036   7.542   0.403 -0.0875  0.1430 -0.2333
28207W        W44681  16.611  16.615   3.396  0.3000  0.1292 -0.0943
28208W        W44682   0.314   7.910  12.444  0.1619 -0.0249 -0.3614
28209W        W44683   2.533   4.773   2.282 -0.1544 -0.1299  0.0499
28210W        W44684  15.016  10.613   2.416 -0.0929 -0.0476 -0.1037
28211W        W44685   7.827   9.989  12.245  0.0346  0.1185 -0.4185
28212W        W44686  17.236   0.286  14.562  0.1739  0.0075 -0.1398
28213W        W44687   2.747  12.292   3.105 -0.1774 -0.1403  0.1291
28214W        W44688  10.135   5.506   4.337 -0.0221 -0.0100 -0.2041
28215W        W44689  18.161   3.877  14.019 -0.0543  0.3523 -0.0290
28216W        W44690   1.312   6.654  12.604  0.1063  0.0945  0.0081
28217W        W44691   4.948   6.359  11.642  0.0670 -0.4141 -0.0097
28218W        W44692   3.075   4.426  12.548  0.1039 -0.1006  0.0551
28219W        W44693  12.484  13.319   3.963  0.2309 -0.1952 -0.1186
28220W        W44694  17.449  10.232   1.331 -0.0797 -0.2563  0.2612
28221W        W44695  13.756  17.448   2.156 -0.2632 -0.0043 -0.2007
28222W        W44696  17.766   3.395   3.760  0.0292  0.1984  0.0982
28223W        W44697  17.105   8.126  11.741  0.1489  0.0285  0.0069
28224W        W44698  14.911  14.675   3.711  0.2081 -0.2478 -0.0822
28225W        W44699   3.575  10.231  11.690  0.0824  0.0785  0.2733
28226W        W44700  13.970   5.893  13.138 -0.1720 -0.4071 -0.1802
28227W        W44701   2.056   7.815  15.074  0.0901  0.3057 -0.0969
28228W        W44702   8.807   9.558   5.435 -0.0445  0.1433 -0.1887
28229W        W44703  14.032  15.715   0.960 -0.0178 -0.1294  0.2476
28230W        W44704   7.306   8.097   1.164  0.0864 -0.0448 -0.0984
28231W        W44705   8.416   9.292   2.154  0.1949 -0.3508 -0.2860
28232W        W44706   7.685   2.533  15.330  0.0070  0.0326 -0.1772
28233W        W44707  15.175   6.332   4.525 -0.1440  0.1976 -0.3710
28234W        W44708   2.730   6.615  15.389 -0.1000  0.3425  0.0548
28235W        W44709  11.461   3.544  11.273 -0.0805 -0.3878 -0.0783
28236W        W44710   2.582  14.311  12.473 -0.1570  0.2800 -0.4466
28237W        W44711   0.087  15.765  15.362  0.1117  0.1824  0.0791
28238W        W44712   9.681   1.920   5.612  0.1451 -0.4189  0.0141
28239W        W44713  16.931   5.701   0.785 -0.0952  0.2611 -0.0871
28240W        W44714   2.241  14.747  15.397 -0.0685 -0.1865 -0.3075
28241W        W44715  16.410  16.949   2.655 -0.0775 -0.1297  0.1497
28242W        W44716   8.878   8.449   0.372  0.0460  0.1869  0.2058
28243W        W44717   1.496  17.213   5.032 -0.2021  0.1042 -0.2648
28244W        W44718   5.395  11.249   4.331 -0.2018 -0.1109 -0.0772
28245W        W44719   0.367   1.754  12.852 -0.3256  0.2197 -0.1630
28246W        W44720   0.936   4.405   0.711  0.2597 -0.3774 -0.0055
28247W        W44721  15.131   3.436   3.593 -0.2028 -0.2205  0.0128
28248W        W44722  12.313  14.591   3.206  0.0067 -0.1524  0.1798
28249W        W44723   8.484   6.726   4.317  0.0007 -0.2709  0.2555
28250W        W44724  14.917  13.380  14.222 -0.3465 -0.0117 -0.0404
28251W        W44725  12.406   6.931  13.918  0.3450  0.2966  0.1216
28252W        W44726   2.854   3.239   3.318  0.1078 -0.1303 -0.4407
28253W        W44727   9.065   3.602  12.728  0.1664 -0.0741  0.3512
28254W        W44728   0.968  15.462   3.849 -0.1454 -0.2733 -0.1374
28255W        W44729   5.020   0.155   4.410  0.1078 -0.2003  0.0651
28256W        W44730   1.842   2.245   4.806 -0.1574 -0.0157 -0.3827
28257W        W44731   5.799  12.221   0.899 -0.1059  0.4948  0.0094
28258W        W44732  15.227   0.148  13.005 -0.0829 -0.0569 -0.0171
28259W        W44733  17.533   0.096  12.657  0.1494 -0.2139 -0.1594
28260W        W44734   3.265  13.715  11.621 -0.0850  0.0288 -0.0935
28261W        W44735   5.484   5.394  12.438 -0.0236 -0.3383 -0.1617
28262W        W44736  12.184  17.521   1.250  0.0018  0.0541 -0.2153
28263W        W44737   4.927   1.366   3.035 -0.3047  0.0910  0.1856
28264W        W44738  10.654   4.540   3.201  0.1974 -0.1641 -0.1105
28265W        W44739  14.829   0.979  13.414  0.0604 -0.2565  0.0401
28266W        W44740  11.008  15.607  14.817  0.1137  0.0280  0.1181
28267W        W44741  18.419  11.817  12.330  0.0702 -0.1939  0.2579
28268W        W44742   2.732  17.793   5.169 -0.2744 -0.1011 -0.0286
28269W        W44743  15.186   5.311  14.807  0.1607 -0.2835  0.2065
28270W        W44744   1.917   2.059  11.336 -0.0573  0.0337 -0.2299
28271W        W44745   3.319   5.426   9.692  0.1161  0.1209  0.1787
28272W        W44746  10.322   6.161  10.426  0.0581 -0.3554 -0.0241
28273W        W44747  14.802   6.613   4.636 -0.1925 -0.0504  0.3164
28274W        W44748  14.801   4.337   3.055  0.3244  0.0611 -0.3801
28275W        W44749  14.704  17.981   4.247 -0.2821 -0.1579  0.0814
28276W        W44750   1.700  14.015  10.816 -0.1888  0.1242 -0.2766
28277W        W44751  12.557   0.800   4.785  0.1205 -0.0535 -0.1129
28278W        W44752  18.353  14.331   1.297  0.0164  0.1794  0.0603
28279W        W44753  11.901   0.478   0.125 -0.1508  0.0285 -0.1152
28280W        W44754   8.400  16.541  14.291  0.2075  0.0612 -0.0211
28281W        W44755   7.215   0.121   2.400 -0.3253 -0.1120  0.2890
28282W        W44756  10.963   2.790   3.278 -0.6553 -0.1055  0.0283
28283W        W44757  11.159  17.204   3.440  0.0450 -0.2997 -0.3979
28284W        W44758  15.857   7.916  11.602  0.0463 -0.0016  0.0652
28285W        W44759   0.972   0.510   2.068  0.2851  0.1919 -0.1367
28286W        W44760  12.794   1.322   4.120 -0.2915 -0.1944  0.2224
28287W        W44761   9.499   0.188   0.892  0.0784 -0.0070  0.0245
28288W        W44762  11.558  17.811  11.882 -0.3602  0.2672  0.1241
28289W        W44763  17.812  14.991  13.952 -0.0946 -0.3988 -0.0315
28290W        W44764   1.151  13.422   3.538 -0.0654 -0.0727  0.1638
28291W        W44765  13.714   5.704  15.231 -0.1714  0.4828 -0.0212
28292W        W44766  17.596   4.201  15.854 -0.2407 -0.1606 -0.0645
28293W        W44767  16.622  16.720   2.095  0.2425  0.1074  0.3772
28294W        W44768   0.825  13.882   2.800  0.0284  0.0175  0.0836
28295W        W44769   3.806  10.810  13.913  0.1178  0.1761  0.2614
28296W        W44770  18.340   8.948   4.753  0.1052  0.1192 -0.0806
28297W        W44771  13.421  15.109   5.889  0.2329 -0.2234  0.1069
28298W        W44772  12.382   1.109  14.645 -0.1127 -0.0391  0.3053
28299W        W44773   3.897   2.419  11.470 -0.1135  0.1553  0.0990
28300W        W44774  11.297  10.565   1.012 -0.2853  0.1127  0.0055
28301W        W44775  12.481  16.501  15.439 -0.0526 -0.0953  0.0557
28302W        W44776   8.313  13.926  12.967  0.0521  0.0531 -0.1609
28303W        W44777   4.598  14.788   4.363  0.1451  0.0599 -0.0675
28304W        W44778   5.801  10.085   2.036  0.0395 -0.0330  0.0771
28305W        W44779   2.128  13.205  13.873 -0.0062  0.0404 -0.0252
28306W        W44780  17.121  11.719   3.404 -0.1150 -0.1767 -0.0626
28307W        W44781  17.799   2.322  10.971 -0.1212 -0.1333  0.2171
28308W        W44782  11.575   2.882  14.838  0.1379  0.0321 -0.1880
28309W        W44783   1.791   7.227  15.174 -0.0462  0.2828  0.0305
28310W        W44784   3.514   1.498  11.772  0.0983  0.0267 -0.2764
28311W        W44785  16.662  12.900  13.773  0.2846  0.0729  0.1664
28312W        W44786   1.183  10.300   1.505  0.4200 -0.0370  0.1051
28313W        W44787   0.097  14.322  14.063 -0.1146 -0.0083  0.0927
28314W        W44788   2.847  13.672  15.205  0.1838 -0.0823  0.0576
28315W        W44789  17.520   5.196  13.301 -0.0343  0.0171 -0.1503
28316W        W44790   3.559   7.601   1.793  0.0109 -0.3394 -0.0582
28317W        W44791   0.178   1.396  13.217  0.0700  0.2651  0.1778
28318W        W44792  12.273   3.836   5.334 -0.1802 -0.1009 -0.0921
28319W        W44793  13.883  13.653   0.586  0.0737 -0.3727  0.0424
28320W        W44794   1.404   4.720  11.100  0.3738  0.0081 -0.2460
28321W        W44795  14.989   1.350  10.998 -0.1058 -0.5460 -0.1840
28322W        W44796   0.702  12.580  14.079  0.0615  0.0339 -0.2267
28323W        W44797   6.750   9.353   0.372  0.3785  0.2235 -0.2477
28324W        W44798   9.662  10.611   0.510  0.2146 -0.2509  0.0523
28325W        W44799   6.156  17.758  10.730  0.3652 -0.0024 -0.1317
28326W        W44800  13.951   1.197   2.657 -0.2256  0.2638 -0.0109
28327W        W44801   6.930  17.277  11.791  0.0432  0.1465 -0.3674
28328W        W44802   7.219   0.414   1.301 -0.0431  0.1116  0.0831
28329W        W44803   7.479  16.966   1.600  0.0799  0.1146 -0.0274
28330W        W44804   9.366  18.134   3.958  0.2824  0.3480 -0.0276
28331W        W44805   6.737   4.383   0.043 -0.2691 -0.1371 -0.0484
28332W        W44806   5.842  10.643  11.757  0.1888 -0.1639 -0.3027
28333W        W44807   2.655   4.660   4.257  0.1893  0.1584 -0.0658
28334W        W44808   3.321   1.620   1.606 -0.0886 -0.0325 -0.0485
28335W        W44809   6.267  17.506  14.217  0.1124 -0.0603 -0.0878
28336W        W44810  10.225   9.868  12.613 -0.1617  0.1283  0.1604
28337W        W44811   3.200  15.648   6.385 -0.1624  0.1426 -0.0109
28338W        W44812   6.268   1.704   4.305  0.2542  0.0218 -0.1486
28339W        W44813  15.131   1.767   2.838 -0.0819  0.2366  0.1302
28340W        W44814  17.689   3.792  15.489 -0.0629  0.1164  0.1526
28341W        W44815   9.271   6.212   2.717 -0.1490  0.0734 -0.2485
28342W        W44816   4.387  17.155  13.057 -0.5040 -0.2602 -0.1313
28343W        W44817   8.698  12.368   4.893 -0.1471 -0.2223 -0.0740
28344W        W44818   2.252   7.334   0.150 -0.0039 -0.1849  0.3116
28345W        W44819   9.733   8.737  13.352 -0.0957 -0.1072 -0.2343
28346W        W44820  13.520  14.203   0.458 -0.0914  0.2673 -0.0745
28347W        W44821   8.352   0.185   1.203  0.1274  0.2217  0.0841
28348W        W44822  16.780   8.390  15.552 -0.2167  0.3790  0.3024
28349W        W44823   5.989  14.267  15.079 -0.0865 -0.0050  0.1263
28350W        W44824  15.500  16.971  14.662  0.0109 -0.0584  0.1001
28351W        W44825  11.515   2.762   4.510 -0.4359  0.0545 -0.0457
28352W        W44826  13.834   1.410  14.589 -0.0086  0.0206 -0.4963
28353W        W44827   6.220  16.918   5.165  0.1653 -0.0974 -0.0355
28354W        W44828   9.051  13.670   0.676 -0.2150 -0.1078 -0.0660
28355W        W44829  10.814   7.199   0.638  0.1699 -0.0170  0.1052
28356W        W44830  13.849   3.211  11.530 -0.0190  0.0505 -0.0060
28357W        W44831   2.224  13.536   4.369 -0.0851  0.2389  0.1165
28358W        W44832   2.448   5.129   4.987 -0.1342 -0.0616 -0.0538
28359W        W44833   8.732   7.022  14.339  0.1453 -0.0665  0.2886
28360W        W44834  13.028  13.989   2.048 -0.2499 -0.1523 -0.1564
28361W        W44835  15.549   8.580  13.707  0.0967 -0.0843  0.0087
28362W        W44836  11.799  16.808  13.179  0.0064 -0.0776  0.1843
28363W        W44837  15.950  10.168   3.431 -0.2260 -0.2025  0.1149
28364W        W44838   4.981   4.234   1.267  0.1939  0.1336 -0.1666
28365W        W44839  17.204   2.496  15.131 -0.1335 -0.0308  0.0506
28366W        W44840   2.466   0.611   4.754  0.0013  0.0487  0.1913
28367W        W44841   9.170   4.355   5.036 -0.1177 -0.2657  0.0310
28368W        W44842  13.784   0.733   2.833 -0.1926 -0.1519  0.1436
28369W        W44843   6.234  16.338  15.184  0.0569  0.2736  0.1214
28370W        W44844   4.838  10.224  12.287 -0.2740 -0.1501 -0.1748
28371W        W44845   9.198   3.115  12.626  0.1259  0.1562 -0.1680
28372W        W44846  10.578   6.640   1.183  0.0196 -0.1045 -0.2124
28373W        W44847   8.517  11.249   4.006  0.1413 -0.0487 -0.2757
28374W        W44848  11.062   7.683  15.697  0.0615  0.2242 -0.4287
28375W        W44849   6.766   3.874   2.163  0.1489  0.0780 -0.0124
28376W        W44850  13.497   3.865  12.652  0.1963 -0.1863 -0.0238
28377W        W44851  16.063   5.204  15.306  0.0820 -0.2931 -0.1691
28378W        W44852   3.007  15.068   0.430  0.0646 -0.0972 -0.1548
28379W        W44853   9.282   8.545  14.259  0.2805  0.0407 -0.0492
28380W        W44854   9.709  14.349   0.379  0.0507 -0.1690 -0.0124
28381W        W44855  17.587   3.232  11.592  0.2264 -0.0667 -0.0085
28382W        W44856   5.419  18.220  11.398  0.2679 -0.3187 -0.0139
28383W        W44857   5.370  16.667  13.743  0.0399 -0.0676  0.1016
28384W        W44858   4.183   4.637   4.837  0.0917 -0.1512 -0.0901
28385W        W44859  12.428  13.939   1.874  0.2488 -0.1334 -0.2766
28386W        W44860  12.794   5.574  11.987  0.0079 -0.4473  0.1233
28387W        W44861   7.486   4.652   0.433  0.0027  0.1331 -0.0940
28388W        W44862  13.459  13.659   2.005  0.2367 -0.0679 -0.0664
28389W        W44863   2.946   3.075  13.325 -0.5484  0.1938  0.1309
28390W        W44864   1.740  13.107   2.694 -0.0579  0.3451 -0.2986
28391W        W44865   6.654   1.067   3.334  0.1514 -0.1083  0.0798
28392W        W44866  17.866  17.388   0.842  0.1318  0.2580  0.0267
28393W        W44867   8.089  13.775  14.431 -0.1784  0.1438 -0.3345
28394W        W44868   0.006   6.421   1.775  0.1391 -0.1501  0.1332
28395W        W44869   7.190  13.063   1.423 -0.1325 -0.2047 -0.1954
28396W        W44870  16.044  10.395   1.898 -0.2552 -0.1082 -0.2731
28397W        W44871   0.603  18.060  13.033 -0.1268 -0.2655  0.0357
28398W        W44872   8.494  17.915   4.911  0.2093  0.1571 -0.0378
28399W        W44873   5.021  11.831  15.243 -0.0126  0.2159 -0.0144
28400W        W44874  11.328   9.551   5.074  0.0904  0.1595 -0.2066
28401W        W44875   1.735  16.748  11.680 -0.2294  0.1561  0.0646
28402W        W44876  17.343  16.327  12.482  0.3539 -0.0187  0.1654
28403W        W44877   7.476   3.905  11.774  0.0801 -0.0655 -0.2888
28404W        W44878   1.822   1.920  13.900 -0.0847 -0.0479 -0.1331
28405W        W44879   5.722   4.802  14.594  0.2226 -0.2258  0.0861
28406W        W44880   7.078   1.629  11.712  0.1401  0.2421  0.0084
28407W        W44881  15.801   5.449   1.464 -0.1540 -0.0722  0.1546
28408W        W44882  12.224   3.281   4.940  0.0691  0.2690  0.0503
28409W        W44883  10.199   4.986  12.982  0.1712 -0.3478  0.0259
28410W        W44884   7.778   3.442   2.667  0.0114 -0.1770 -0.0022
28411W        W44885   9.697   1.908  12.326  0.0121  0.3025 -0.2055
28412W        W44886   9.923  12.059  14.842  0.1135 -0.2933 -0.1231
28413W        W44887  12.202   9.042   0.804  0.0679 -0.2881 -0.0822
28414W        W44888  10.322  17.102  11.034  0.1345  0.0816 -0.2132
28415W        W44889  14.507   0.723  13.120  0.0347  0.0447 -0.0512
28416W        W44890  11.120  15.162   4.118 -0.2333  0.2300  0.2059
28417W        W44891  13.104  17.833  15.014  0.1748  0.2647  0.1335
28418W        W44892   9.183  10.393   5.400 -0.0521 -0.0623 -0.3490
28419W        W44893  17.766  13.058  13.443  0.3701 -0.1189 -0.0253
28420W        W44894  13.641   3.172  12.523 -0.0677 -0.2145 -0.1715
28421W        W44895   8.281  11.147  14.682 -0.0216  0.2183 -0.3929
28422W        W44896  11.181   4.819  10.779  0.4380  0.3104  0.2080
28423W        W44897   9.771  13.230  11.727 -0.0043 -0.1883 -0.3494
28424W        W44898   7.939  13.590   3.627  0.1539  0.1618  0.2527
28425W        W44899  14.512  13.522   0.044  0.1035  0.1858  0.1626
28426W        W44900   6.865   6.545  14.792 -0.0323  0.0812 -0.1808
28427W        W44901  17.260  17.115   2.749 -0.2743 -0.1921  0.0689
28428W        W44902   8.996   0.911   3.768 -0.2637 -0.0747 -0.0376
28429W        W44903   5.462  15.665  10.873  0.0416 -0.2687 -0.0481
28430W        W44904  15.257   2.787   0.190 -0.1068 -0.1256 -0.0734
28431W        W44905  12.344  17.209  14.451  0.2814 -0.1485  0.0444
28432W        W44906  14.022   6.824  11.935 -0.1585  0.0565 -0.3431
28433W        W44907  12.691  12.257   2.805  0.2791  0.1585  0.1439
28434W        W44908  12.293   5.560   1.449 -0.2852  0.0968 -0.2709
28435W        W44909  17.348   6.876  11.735  0.1882  0.0216 -0.0614
28436W        W44910  16.381  16.537  14.692 -0.2546 -0.1270  0.2372
28437W        W44911  11.298  15.970  14.049  0.0773 -0.1419  0.2156
28438W        W44912  12.822   2.886   3.323  0.1817  0.0362  0.0648
28439W        W44913  10.035   8.216  14.519  0.0652  0.0153  0.2262
28440W        W44914  11.039   9.572  15.324 -0.0575  0.0209  0.0012
28441W        W44915   2.416  14.380   3.245 -0.0591 -0.1929  0.2688
28442W        W44916  10.525  15.067  14.804 -0.1227 -0.1303 -0.0527
28443W        W44917  11.347  17.712   3.188 -0.0292 -0.0252 -0.4013
28444W        W44918  18.055   9.632   5.023  0.1228  0.0201  0.2417
28445W        W44919   5.547  12.221  14.538 -0.0374 -0.2193 -0.2356
28446W        W44920   7.603   5.646  12.560 -0.3202 -0.0959 -0.1497
28447W        W44921  10.828   2.889  15.375  0.0496  0.1273  0.2764
28448W        W44922  11.060  14.927  13.696  0.0010  0.0252  0.0891
28449W        W44923   5.603  14.010   2.711 -0.1241  0.1214  0.1753
28450W        W44924  17.671   2.609  15.239  0.0471 -0.0543  0.2412
28451W        W44925   3.429   0.448  13.102  0.0770  0.1483  0.0563
28452W        W44926   8.322   7.678  10.575  0.0351 -0.0749 -0.0877
28453W        W44927  14.570   9.871   5.212  0.0458 -0.0541 -0.1403
28454W        W44928  11.291  10.626   3.008 -0.1319 -0.0294 -0.0191
28455W        W44929   6.703  11.348   4.793  0.1159 -0.0063  0.3813
28456W        W44930   5.821   7.752  12.611 -0.2142 -0.0595 -0.0143
28457W        W44931   9.883   1.871  11.505  0.2545  0.1235  0.0436
28458W        W44932  14.324   2.276  15.202 -0.0512  0.2285  0.4478
28459W        W44933  10.908  14.383   3.673  0.0123  0.0953  0.3260
28460W        W44934   6.931   3.816  15.228 -0.2735 -0.2660 -0.0314
28461W        W44935   5.458  12.864  13.100  0.2736 -0.2015 -0.0927
28462W        W44936   4.562   6.482   2.321 -0.1636  0.0621  0.2100
28463W        W44937   7.557  10.796  12.432  0.0166 -0.0514  0.0068
28464W        W44938   5.636   5.662  13.492  0.0360 -0.2858  0.2050
28465W        W44939   6.979   9.348   0.841  0.0848 -0.1754  0.0442
28466W        W44940   5.434   5.060   2.236 -0.0559  0.2073  0.0251
28467W        W44941  10.779   2.161   2.046  0.1782  0.0179  0.1634
28468W        W44942   1.926  14.569  13.703  0.0593 -0.0311  0.0884
28469W        W44943  15.283  13.111  15.028  0.1843  0.1521 -0.2315
28470W        W44944  13.765  13.310  10.590  0.2049 -0.3264 -0.2577
28471W        W44945   3.813  15.092  14.623  0.2331  0.0793 -0.2098
28472W        W44946   3.426  17.943   3.547  0.0298  0.1563  0.1986
28473W        W44947   5.161  15.706  13.502  0.0276  0.2285 -0.0612
28474W        W44948   5.523   8.328   3.189 -0.0683 -0.1145 -0.0724
28475W        W44949  16.561   3.099  11.980 -0.1586 -0.4157 -0.0473
28476W        W44950   3.787   9.613   0.247  0.2128 -0.1443 -0.2281
28477W        W44951   3.463   6.282   0.168  0.1079 -0.2563 -0.1839
28478W        W44952  16.941   1.091   0.811 -0.0461 -0.1069 -0.1601
28479W        W44953   2.128  15.757   0.824  0.2264 -0.1012 -0.1234
28480W        W44954   9.039   4.675   4.591 -0.1217  0.0619 -0.3062
28481W        W44955   8.623   9.904   5.812 -0.0128 -0.1674  0.1012
28482W        W44956   9.231  14.405   2.957 -0.0089  0.2540 -0.2601
28483W        W44957   1.704  15.823  13.501  0.0511 -0.0192 -0.0180
28484W        W44958   5.783  17.531  10.975 -0.0698  0.1098  0.1972
28485W        W44959   0.138   0.546   2.251 -0.0629 -0.0992 -0.2021
28486W        W44960  13.015  17.620  14.110 -0.4634  0.2132  0.1135
28487W        W44961  16.960  14.727   2.996  0.2537 -0.1459 -0.2971
28488W        W44962   9.330   5.018  13.716  0.0822  0.0887  0.1766
28489W        W44963   1.878  11.969  11.873  0.0992 -0.1815  0.1260
28490W        W44964   8.842  16.994   3.327  0.1360  0.0580 -0.0517
28491W        W44965   0.134   5.351  11.851 -0.1139 -0.0149 -0.2116
28492W        W44966   4.222   3.101  15.595 -0.0244  0.0681  0.1235
28493W        W44967   6.137  15.478   2.098  0.1280  0.1028  0.3888
28494W        W44968   3.595  13.489  12.546 -0.1272  0.1343 -0.0977
28495W        W44969   2.506   2.185  12.317 -0.1286 -0.3402  0.2275
28496W        W44970   6.976   8.256  13.090 -0.1580 -0.3138 -0.1128
28497W        W44971  10.305   2.065   4.357 -0.1218  0.2013 -0.2156
28498W        W44972  11.625   3.017  14.345  0.1367  0.2259  0.1631
28499W        W44973  15.340   8.195  15.590  0.1329 -0.1058 -0.0531
28500W        W44974  12.955  12.680   3.939 -0.2246 -0.2031  0.2461
28501W        W44975  15.236  15.499   4.309 -0.1442  0.0350  0.2971
28502W        W44976  10.643   1.646   5.254 -0.1047  0.2562  0.3578
28503W        W44977  12.876  13.397   1.565 -0.1718  0.0501  0.0003
28504W        W44978   9.015  16.515  15.611  0.1451 -0.0778  0.1344
28505W        W44979   5.306  14.839  15.624  0.1371  0.0349 -0.1786
28506W        W44980  11.892   8.230   5.313  0.0465 -0.1691 -0.1473
28507W        W44981  17.539  14.520  13.912 -0.3707  0.0154  0.1532
28508W        W44982   3.728   6.012   5.497 -0.0411  0.0839 -0.3306
28509W        W44983   8.760  16.603   4.674  0.1177  0.0522 -0.1708
28510W        W44984  18.016   9.345  14.516 -0.1130 -0.0168  0.0296
28511W        W44985   1.233  17.602   4.790 -0.3323 -0.0713  0.0584
28512W        W44986   5.630  16.231   1.781  0.2296 -0.2772  0.1176
28513W        W44987  11.877   7.682   5.209  0.0470  0.1731  0.3518
28514W        W44988  16.549   6.355  14.246  0.1433 -0.0212  0.0889
28515W        W44989   8.509   0.336  11.516 -0.2353 -0.2304 -0.0576
28516W        W44990  16.868  12.512   5.003  0.0595 -0.0774  0.4810
28517W        W44991  12.391  10.436  15.605  0.3057 -0.0156  0.0638
28518W        W44992   9.590  10.949   6.373 -0.1191 -0.1554  0.1061
28519W        W44993  14.060   4.941   3.478  0.2334 -0.0013  0.2188
28520W        W44994   1.938   6.084   4.915 -0.0071 -0.0360 -0.0908
28521W        W44995   0.349  14.356  14.931  0.1050 -0.1789 -0.3004
28522W        W44996  17.894  10.877   2.067  0.0030 -0.0992 -0.3807
28523W        W44997  12.477  17.916   9.897 -0.3855 -0.3363 -0.1028
28524W        W44998   8.256  11.861   0.369  0.0289  0.2112  0.2101
28525W        W44999  14.485   6.393  15.789  0.0151 -0.0177  0.0438
28526W        W45000  14.834   6.650   0.154 -0.2945  0.0961 -0.0597
28527W        W45001  13.582   9.033   2.702 -0.1218 -0.0917 -0.4057
28528W        W45002   7.545   0.754   0.492 -0.0451  0.1448  0.4188
28529W        W45003  18.018   4.394  15.104  0.2284 -0.2023 -0.1478
28530W        W45004   2.997   1.900  14.653  0.0988  0.0142  0.2903
28531W        W45005   4.674  18.381  10.926 -0.2043 -0.0218 -0.0157
28532W        W45006   7.549   4.265   0.822  0.1043 -0.0059 -0.1649
28533W        W45007   3.373   9.338  13.439  0.0694  0.2154  0.1805
28534W        W45008  15.700  13.581   5.015  0.2472 -0.2321  0.2028
28535W        W45009   4.071  12.922   1.170 -0.1200 -0.2033  0.0501
28536W        W45010   5.349  14.391   2.433  0.0744  0.1682  0.1643
28537W        W45011  14.192  15.706   4.785 -0.0034  0.0135  0.0870
28538W        W45012   0.554  14.926   0.407 -0.1006 -0.0372 -0.0792
28539W        W45013  13.192  12.939  13.967  0.0179 -0.0409 -0.0481
28540W        W45014   9.145  18.378  11.339 -0.0789 -0.0073 -0.0973
28541W        W45015  12.972  17.201  11.074  0.2007  0.1945 -0.0004
28542W        W45016  10.743  13.417   0.310 -0.0434 -0.1880 -0.1146
28543W        W45017  12.557  12.661   4.228 -0.0929 -0.1643 -0.1819
28544W        W45018   1.668  13.606   1.929 -0.1943 -0.1945 -0.0178
28545W        W45019   4.223   0.772  13.172  0.2821 -0.3388 -0.0406
28546W        W45020   2.943   8.448  13.527 -0.1051  0.2087 -0.2987
28547W        W45021   2.966   4.762  10.130  0.2709 -0.2439 -0.1292
28548W        W45022  13.016  15.770  11.748 -0.0632 -0.1954 -0.0537
28549W        W45023  13.921  12.948  14.916 -0.1341  0.3128 -0.0394
28550W        W45024   8.714  17.975   0.794 -0.4252 -0.0131 -0.0164
28551W        W45025  15.530  11.809  12.894 -0.2222 -0.4217 -0.0270
28552W        W45026   6.084   1.094  12.067 -0.0909 -0.0497 -0.1416
28553W        W45027   4.299  15.457  11.693 -0.1082 -0.3070  0.3974
28554W        W45028   6.103   9.372   1.695  0.0663  0.0095 -0.0719
28555W        W45029  16.495   1.361  11.435 -0.3354 -0.2165 -0.0253
28556W        W45030   2.891   4.175  10.935 -0.0812  0.0590  0.0922
28557W        W45031  14.646  13.150   2.861  0.1463 -0.0018 -0.1382
28558W        W45032   5.757   4.693   0.133  0.0604  0.1254 -0.1173
28559W        W45033  11.007   8.643   4.955 -0.3193  0.0881 -0.2972
28560W        W45034  15.911  16.153   4.113 -0.3829  0.3780  0.0177
28561W        W45035   4.081   9.532  13.104  0.1070 -0.2702  0.0623
28562W        W45036   3.558   0.761  15.536 -0.0824  0.1618  0.3420
28563W        W45037   6.537   9.587   5.902 -0.3794 -0.2467  0.0185
28564W        W45038  11.800  15.574   4.763  0.0128 -0.4031 -0.3819
28565W        W45039   2.268  12.324  12.034  0.0116  0.0580 -0.0769
28566W        W45040  12.833   0.686  12.417  0.1900 -0.1078  0.2264
28567W        W45041   2.721  16.480  14.871 -0.1682  0.0256 -0.1592
28568W        W45042  18.305   2.710  15.127 -0.1455  0.1637  0.0043
28569W        W45043   1.266  14.886   2.658  0.0034 -0.0642 -0.2642
28570W        W45044  15.755  13.794  13.982  0.2313  0.2483  0.0198
28571W        W45045  12.657  14.451   4.775 -0.1003  0.2016 -0.2954
28572W        W45046   0.660   1.998  15.877  0.1097  0.1845  0.1767
28573W        W45047   4.030  14.554   3.266  0.2006  0.0510 -0.0920
28574W        W45048   8.821   2.457   1.419  0.0736  0.5306 -0.0243
28575W        W45049  14.975   0.961  14.866 -0.0712 -0.2400  0.1409
28576W        W45050  14.836  15.978  11.202 -0.1604 -0.1149 -0.2882
28577W        W45051   5.537   7.332  12.364 -0.1392 -0.2121  0.0518
28578W        W45052  10.365   9.564  14.271 -0.3189  0.1101 -0.1434
28579W        W45053  16.520  12.769   4.563  0.1924 -0.1002 -0.3038
28580W        W45054   0.552   5.471  14.203 -0.0634 -0.1580  0.1326
28581W        W45055   8.596  12.391  14.972 -0.1412  0.1182  0.0057
28582W        W45056   4.380   2.733  15.923  0.0566 -0.0948  0.0603
28583W        W45057  17.463   0.223  15.444  0.0360 -0.1744  0.0417
28584W        W45058  12.950   1.799   3.320  0.1717  0.1787 -0.0414
28585W        W45059  14.150  11.835  11.602  0.0731  0.0662  0.1667
28586W        W45060  10.752   7.651   2.111 -0.1004 -0.1670  0.2976
28587W        W45061  12.489   4.505   5.327 -0.1400 -0.1894  0.2158
28588W        W45062   6.754   5.050   2.175 -0.0202  0.2495  0.2936
28589W        W45063   3.287   6.314  13.926  0.0249 -0.1631  0.2379
28590W        W45064   7.859  16.197   1.410 -0.2196 -0.0557  0.0602
28591W        W45065   4.075   2.629   2.460 -0.1358  0.2954 -0.0116
28592W        W45066  10.135   6.655  12.652 -0.0254  0.2283  0.1102
28593W        W45067   6.656  15.561   4.667  0.1033  0.1715  0.0635
28594W        W45068   5.107   4.530   3.178 -0.1761  0.0930  0.1427
28595W        W45069   5.560   4.896  15.127  0.1841 -0.4713  0.2474
28596W        W45070  12.205  15.052  14.215  0.1360  0.0506 -0.1036
28597W        W45071   1.932   3.704   3.710 -0.3813  0.1824  0.1007
28598W        W45072   2.643  12.946  13.204 -0.1920  0.4234  0.0993
28599W        W45073   1.257  17.837  15.049  0.1523  0.2814 -0.0998
28600W        W45074   4.628   8.276   5.345 -0.1267 -0.3479 -0.0041
28601W        W45075  10.784   2.120   4.499  0.2007  0.1609  0.0680
28602W        W45076   5.962  12.376  10.832 -0.2372 -0.0397 -0.1901
28603W        W45077  12.779  12.145   4.678  0.1505  0.3479  0.1615
28604W        W45078   1.396   8.513  12.816 -0.1965  0.0875  0.1091
28605W        W45079  13.227   5.587   1.427  0.0597  0.0533  0.2305
28606W        W45080  13.597   5.117   0.371 -0.0985 -0.0468  0.0714
28607W        W45081   5.001  15.633   1.203  0.0147 -0.1617  0.0070
28608W        W45082  15.587   6.298  11.613  0.3210 -0.3121  0.1092
28609W        W45083   5.069   6.115  12.104 -0.2071  0.0587  0.2128
28610W        W45084  12.526   8.682   2.821 -0.1131 -0.0638 -0.0147
28611W        W45085  17.081   7.546  13.119 -0.0259  0.0620  0.1638
28612W        W45086  17.992   3.266  11.178 -0.0611 -0.0807  0.1355
28613W        W45087   2.938   9.504  13.162  0.2594 -0.0769 -0.1341
28614W        W45088   3.283  16.637   3.267 -0.1523  0.0070 -0.0452
28615W        W45089  16.978   3.214   3.749 -0.2850  0.0673  0.2229
28616W        W45090   0.451  15.274  14.651 -0.0255 -0.0377  0.1420
28617W        W45091  17.834  11.289   4.984  0.1595  0.2319  0.0083
28618W        W45092  12.076   8.093  14.255 -0.2002  0.2037 -0.2990
28619W        W45093  13.331  15.039   2.939 -0.0314  0.0029 -0.1404
28620W        W45094  17.603   9.946  13.422 -0.0072 -0.2147  0.0232
28621W        W45095  15.541   6.681   4.378 -0.2147 -0.1956 -0.3129
28622W        W45096   3.775  14.854   0.826 -0.1627  0.3620  0.3924
28623W        W45097   6.297  17.045   9.908 -0.2217 -0.0685 -0.0114
28624W        W45098  11.157  13.016  12.257 -0.1417  0.0331  0.2400
28625W        W45099  12.635  17.022  10.048  0.1838 -0.1316  0.0503
28626W        W45100  17.509   0.847   0.277  0.3423 -0.2083 -0.1606
28627W        W45101  14.677  11.011   1.759 -0.0730 -0.0036  0.0309
28628W        W45102   2.027   8.404  13.223 -0.3343 -0.4976  0.0980
28629W        W45103   4.675  16.175  12.167  0.3129  0.0694  0.2504
28630W        W45104   4.611   7.635   2.261  0.2163 -0.1706  0.0781
28631W        W45105   5.033   3.166  14.547 -0.1044 -0.3034 -0.1833
28632W        W45106   8.486   1.245  14.449 -0.2292 -0.1386 -0.2710
28633W        W45107  13.103   5.797  11.510  0.2756  0.1077  0.0452
28634W        W45108  18.107   6.502  10.725 -0.1773 -0.2212 -0.0295
28635W        W45109  16.256  17.880  15.512 -0.1496  0.0269  0.0741
28636W        W45110   0.658   9.037  14.752 -0.1019  0.0445  0.0552
28637W        W45111  10.015   7.766   0.687  0.0409 -0.1512  0.1091
28638W        W45112   8.341   6.414   6.201  0.3157  0.0636 -0.1042
28639W        W45113   7.985  17.222   1.454  0.3079  0.1460 -0.1502
28640W        W45114   5.655  17.270  13.210 -0.0529 -0.4047  0.3384
28641W        W45115  13.931   6.717   3.073 -0.0214 -0.3225 -0.1484
28642W        W45116  14.524   6.990   4.257 -0.0933  0.2404  0.1326
28643W        W45117  15.835  10.681  15.914 -0.0520  0.1121  0.1445
28644W        W45118  15.640   9.371   4.217 -0.0902 -0.1832 -0.0078
28645W        W45119   6.854  11.716   0.357  0.2997 -0.0488  0.0268
28646W        W45120   4.129  14.648   4.660  0.2213 -0.1486 -0.2874
28647W        W45121   5.986  12.022   4.407 -0.1372 -0.0991  0.0522
28648W        W45122  14.010  17.694  12.020 -0.1842  0.2196 -0.2535
28649W        W45123   5.355   0.202  14.243 -0.0919  0.2343 -0.0968
28650W        W45124  16.666  13.215  12.088 -0.1503  0.0722 -0.0562
28651W        W45125  17.150  15.182  15.615  0.1127  0.0853  0.1015
28652W        W45126  13.243   3.873   0.971  0.1413  0.0315  0.1251
28653W        W45127   1.379  11.312   3.281 -0.1087 -0.0882  0.0945
28654W        W45128   5.147   4.189  11.903  0.1265  0.0483  0.0563
28655W        W45129  14.044  14.778  11.832  0.0393  0.1664 -0.0661
28656W        W45130  16.359   6.025  12.671  0.1939  0.1472 -0.0939
28657W        W45131  17.990   5.334  11.976 -0.0354  0.1562  0.2107
28658W        W45132  13.631  16.959   2.056  0.1198 -0.1251 -0.0969
28659W        W45133   8.299   9.257   4.173  0.2616 -0.1320 -0.2123
28660W        W45134  14.240   1.290   4.953  0.0014 -0.0405 -0.0859
28661W        W45135  11.847   2.775  12.118  0.0220  0.3003  0.1803
28662W        W45136   0.436   1.431   5.149 -0.0327 -0.1679 -0.3312
28663W        W45137  11.942  11.407   1.882 -0.0270  0.1435 -0.0610
28664W        W45138   6.603   5.569   3.503 -0.0132 -0.1887 -0.1651
28665W        W45139   6.812  16.900  15.447  0.1329  0.0619 -0.1200
28666W        W45140  18.462  11.538   0.434  0.1363  0.2460 -0.0451
28667W        W45141   5.858   5.048  12.649  0.2238 -0.2599 -0.0001
28668W        W45142  13.671   4.615  14.273 -0.1416 -0.0244  0.2472
28669W        W45143   7.490   9.787  15.469 -0.1138 -0.2462  0.0369
28670W        W45144   5.074   7.356   3.426 -0.1480  0.1397 -0.1430
28671W        W45145  15.337   9.419  15.831 -0.2762 -0.1080 -0.1590
28672W        W45146  16.771   2.703  15.249 -0.2997  0.1809 -0.0516
28673W        W45147  15.350   5.883  15.759 -0.0091 -0.4676  0.0455
28674W        W45148   5.140   5.190  11.848  0.4269 -0.1172 -0.0596
28675W        W45149  13.555  16.126   4.496  0.0460 -0.0362  0.2390
28676W        W45150   4.092  13.454  15.915 -0.0912 -0.1981 -0.0362
28677W        W45151   1.307  15.206   2.225 -0.3937  0.2873 -0.0280
28678W        W45152  13.391   6.096   0.723  0.0694  0.0739 -0.0517
28679W        W45153  14.595  17.578  14.996  0.0476 -0.0164 -0.1765
28680W        W45154   5.209  16.101   4.037 -0.0741  0.1702 -0.0429
28681W        W45155  13.440  10.483  12.592  0.0758  0.0955 -0.0098
28682W        W45156   9.171   1.523  15.437 -0.1122  0.0294 -0.1880
28683W        W45157   3.347  13.825  11.184 -0.1310 -0.1279 -0.1815
28684W        W45158  14.034  14.854   1.218  0.1518 -0.4608 -0.1810
28685W        W45159   5.771  13.347  15.915 -0.2816 -0.1056  0.1801
28686W        W45160   9.195   7.149  14.055 -0.2913 -0.2740  0.2016
28687W        W45161   0.013  14.128  15.741  0.3800  0.5579  0.0865
28688W        W45162  16.948   1.610   4.216 -0.1431  0.2400 -0.2085
28689W        W45163  16.275  13.404  12.893 -0.0933 -0.2110  0.0590
28690W        W45164  17.594  13.543   1.964 -0.3510  0.0172  0.2835
28691W        W45165   0.777   7.336   1.135 -0.0178 -0.1538  0.2270
28692W        W45166  12.229  18.029  10.916 -0.1126 -0.2653  0.0223
28693W        W45167   1.050   5.079   4.445  0.4246  0.1079 -0.0768
28694W        W45168  15.725   3.469  15.653 -0.0773  0.2607  0.1087
28695W        W45169   8.740  11.881  11.200 -0.0819  0.1716 -0.0650
28696W        W45170   5.693   9.099   3.983 -0.2437  0.4141  0.3637
28697W        W45171  18.227  12.551   4.647 -0.0687 -0.0612  0.3248
28698W        W45172  15.111  12.375  11.812  0.0282 -0.0900  0.0919
28699W        W45173   2.087  11.989  10.700  0.2043 -0.0233  0.0196
28700W        W45174   1.357  13.577   2.843 -0.1638 -0.0327  0.1384
28701W        W45175  15.404  14.520   1.185 -0.2426  0.1151  0.1783
28702W        W45176   7.172   2.832   5.116  0.0279  0.1906 -0.0461
28703W        W45177  18.147  11.237   1.837  0.2714 -0.0422 -0.2101
28704W        W45178   8.615  14.870  11.543  0.1294 -0.1675 -0.1618
28705W        W45179  14.840   2.790   1.781  0.0475  0.1682  0.2282
28706W        W45180   7.657   8.791   1.606  0.3385  0.1522 -0.2240
28707W        W45181   0.146   0.004  13.598  0.0461 -0.2715  0.0815
28708W        W45182   3.334  10.559   3.413  0.1662 -0.1928 -0.0275
28709W        W45183   2.199  18.079   5.618  0.3513 -0.3099 -0.1505
28710W        W45184  17.469  10.945  13.662  0.0473  0.1577  0.1955
28711W        W45185   1.699   4.969   2.567  0.0498  0.3533 -0.1032
28712W        W45186   7.727   0.207  15.190  0.1429  0.1163 -0.0573
28713W        W45187  14.073   1.050   1.893  0.4073  0.1740  0.1412
28714W        W45188  18.380   6.880   4.427  0.0010  0.1597 -0.0623
28715W        W45189   8.451   1.287  11.553 -0.2334  0.3570 -0.3558
28716W        W45190   6.762   5.876  12.844  0.1493  0.0715  0.2333
28717W        W45191  12.625   8.341   4.236  0.2361 -0.0422  0.2976
28718W        W45192   2.129  17.074   2.755  0.0428 -0.0012  0.0732
28719W        W45193  13.598   7.117   4.021  0.0931 -0.2104  0.0444
28720W        W45194  17.699  12.861  11.424 -0.2377  0.0097  0.0945
28721W        W45195   5.502  18.000  13.640 -0.3062 -0.2633  0.2185
28722W        W45196  10.561  17.632  11.092 -0.1079  0.0576  0.2854
28723W        W45197  13.587   1.547   1.428 -0.0079 -0.1303  0.0010
28724W        W45198   9.322  17.762  13.436  0.2288 -0.0946 -0.2149
28725W        W45199   7.586   1.996  15.367  0.1580 -0.1064  0.0241
28726W        W45200   6.067   1.364   2.402  0.1433 -0.1455  0.0361
28727W        W45201   6.163   7.533  14.024  0.1715  0.0177 -0.4238
28728W        W45202  14.429   4.939  12.809  0.0557  0.1795 -0.1477
28729W        W45203  16.813  17.560  14.208  0.2534 -0.1177  0.1728
28730W        W45204  12.555   7.290   0.584  0.1264 -0.0049  0.1806
28731W        W45205  15.119  14.966   1.323  0.3283  0.2608 -0.2783
28732W        W45206  15.460  10.733  12.079 -0.0388  0.0783 -0.0331
28733W        W45207   4.658   7.249  12.092  0.0408  0.0395  0.0334
28734W        W45208   5.768   1.671  15.389  0.2766  0.4827  0.2149
28735W        W45209   3.314   7.560   3.778 -0.0969  0.1477 -0.0511
28736W        W45210  16.658  17.684   0.712  0.0427  0.0465 -0.1348
28737W        W45211   7.784   0.364  14.713  0.0753  0.1319 -0.1629
28738W        W45212   2.186   8.254  14.819 -0.0448 -0.1491 -0.2958
28739W        W45213   0.932  13.499   3.109 -0.2335  0.2204 -0.0095
28740W        W45214  17.941   8.969  15.651 -0.1161 -0.1284  0.0752
28741W        W45215   4.950  13.541   3.794 -0.1636 -0.0333  0.0574
28742W        W45216  10.376   8.196   3.999 -0.0294 -0.1388  0.0157
28743W        W45217  11.727  11.489   3.297  0.2078  0.1658 -0.0156
28744W        W45218   0.783   2.959  11.680  0.2591 -0.1315  0.0533
28745W        W45219   0.131   6.405  14.972  0.2716 -0.1374  0.0416
28746W        W45220  18.040  17.711   0.460 -0.1434  0.0193  0.0304
28747W        W45221   9.076  17.506  11.804 -0.0298 -0.1206  0.0817
28748W        W45222   7.224   9.840   2.082 -0.2029  0.3459 -0.2204
28749W        W45223   8.932  16.143   0.573 -0.1879  0.4068  0.2716
28750W        W45224   9.944   9.398   3.045 -0.4360 -0.1562  0.2054
28751W        W45225  12.770  17.536   0.374  0.3951 -0.0187 -0.2526
28752W        W45226   4.200  10.151   0.874  0.1328 -0.0386 -0.2678
28753W        W45227   3.570  16.624  15.241 -0.0607  0.1245  0.3531
28754W        W45228  16.353   5.167  11.204  0.0533  0.0961 -0.1146
28755W        W45229   8.050  15.875   0.444  0.2052 -0.0046 -0.0536
28756W        W45230  12.223   8.149   3.894  0.0567  0.2627  0.3077
28757W        W45231   1.364   3.164  14.572 -0.2081  0.0131  0.0309
28758W        W45232   9.395   6.820  15.961  0.2372  0.0307 -0.0396
28759W        W45233   0.302  13.291  14.694  0.0061 -0.0303 -0.0450
28760W        W45234  17.414  17.258  12.227  0.1995  0.0703 -0.2634
28761W        W45235   1.392   5.424  14.670  0.3097 -0.3625 -0.0587
28762W        W45236   5.655  15.388   2.752 -0.0262  0.0919 -0.2845
28763W        W45237  14.343   6.262  13.237  0.0466  0.2695 -0.0836
28764W        W45238  17.353   8.168  14.855 -0.0116 -0.3329 -0.0690
28765W        W45239  13.733  10.974  14.013  0.1554 -0.4040 -0.1541
28766W        W45240   0.798  14.260  10.398  0.2704  0.2311 -0.0495
28767W        W45241  12.278   2.935  15.466  0.0445  0.1316 -0.0611
28768W        W45242  10.696   4.703   3.733  0.1315 -0.3637 -0.1157
28769W        W45243  16.718   1.267   5.423 -0.1792 -0.0217  0.0277
28770W        W45244   6.399   3.565  13.978  0.1194 -0.0280  0.2588
28771W        W45245  16.794   1.714  14.788  0.1587  0.0118 -0.0605
28772W        W45246   3.059  10.502   0.881  0.0203 -0.0872  0.0388
28773W        W45247   1.604  11.694   0.429  0.0029 -0.0612  0.1221
28774W        W45248  10.163   8.980   4.589 -0.1274 -0.1367  0.2893
28775W        W45249  12.299   0.863  13.642  0.0640  0.3209  0.0057
28776W        W45250   5.928  10.141   0.284  0.0662  0.0025  0.1991
28777W        W45251   3.640   4.159   2.008 -0.0575  0.0262 -0.0591
28778W        W45252   1.531  10.473   3.509 -0.0269 -0.0849  0.3429
28779W        W45253  14.835   4.957   2.232  0.1369  0.2665  0.5333
28780W        W45254  12.324   3.643  14.684  0.0276  0.3268 -0.0214
28781W        W45255   7.177   0.355  13.482 -0.3592  0.1189  0.0707
28782W        W45256   2.441   1.825   2.467  0.4412  0.4900  0.0296
28783W        W45257   2.170  16.088  15.922  0.4381  0.1895 -0.3816
28784W        W45258  15.488   3.585  13.792 -0.0431  0.0564  0.0209
28785W        W45259  15.989   0.936   3.748  0.0677  0.1734 -0.2200
28786W        W45260  14.932   6.145  14.515 -0.1392  0.2894 -0.1201
28787W        W45261  10.073   9.207  13.468  0.4322 -0.0511 -0.1261
28788W        W45262   5.838   8.270  12.462 -0.0050  0.0286 -0.5502
28789W        W45263   7.136  16.754  11.762 -0.0737  0.2346 -0.1284
28790W        W45264   5.636   7.159   3.728 -0.0747 -0.0626  0.0636
28791W        W45265   8.264  12.428   4.607 -0.2365  0.0308  0.2022
28792W        W45266   7.870  11.056   0.691 -0.0981  0.0475  0.1135
28793W        W45267  11.640  11.055  14.211 -0.1783  0.3166  0.0282
28794W        W45268   6.921  17.456   0.411 -0.1011  0.0365  0.0112
28795W        W45269  18.192  11.360   2.710  0.1794 -0.2554 -0.0115
28796W        W45270   8.161   2.145  14.254 -0.3200 -0.2449 -0.2408
28797W        W45271   5.182  16.555   0.345 -0.2714  0.0662  0.0641
28798W        W45272   8.146  14.473  10.431 -0.1452  0.3390  0.1951
28799W        W45273   6.838   4.929   3.094 -0.2078 -0.1175 -0.1314
28800W        W45274   7.704   8.826  10.995 -0.0243 -0.1656  0.1667
28801W        W45275  16.942  18.057  13.296 -0.1035  0.0340 -0.0752
28802W        W45276   9.329  15.092  14.343 -0.1527  0.5520 -0.5802
28803W        W45277  11.088   9.898   5.321  0.0751  0.2068  0.0196
28804W        W45278  17.682  12.329   3.795  0.0385  0.0216 -0.4051
28805W        W45279   2.859   7.788   1.320 -0.1016  0.1810 -0.2339
28806W        W45280  11.769  15.159  15.231  0.0972  0.1383 -0.0968
28807W        W45281  12.709   4.129   0.352  0.0157  0.2438  0.2327
28808W        W45282   3.972   4.942   2.002  0.4173  0.2370  0.0583
28809W        W45283  11.651  17.695   3.996 -0.0403 -0.0300  0.0462
28810W        W45284  14.778  12.280   1.471  0.0192 -0.0294  0.1368
28811W        W45285  12.082   4.032  14.183  0.0200  0.0605 -0.0522
28812W        W45286  17.834  11.426  12.734 -0.0397  0.2397  0.0205
28813W        W45287   8.366  16.446  12.305  0.3507 -0.2990 -0.1898
28814W        W45288   4.530  10.420  11.378  0.1027 -0.2707  0.0175
28815W        W45289   9.160  14.244   0.660  0.1189  0.4203  0.0029
28816W        W45290  12.741   4.516  12.814  0.0495  0.1905 -0.0061
28817W        W45291   1.769   2.312   3.800  0.0052  0.0697 -0.2315
28818W        W45292  18.208   8.858   0.389  0.2292 -0.1919  0.2679
28819W        W45293  11.948  14.932  13.187 -0.3116 -0.0766 -0.0506
28820W        W45294   9.798  11.187  11.390  0.2201 -0.1358  0.2324
28821W        W45295  15.030   8.425   4.671  0.1615  0.2057 -0.0745
28822W        W45296   8.170   2.552   3.042 -0.0014 -0.1100 -0.0036
28823W        W45297  15.819  12.993  14.245 -0.1098  0.0410 -0.0443
28824W        W45298  16.088   3.405   4.937 -0.0563 -0.0103 -0.0514
28825W        W45299   1.332   6.720  14.042 -0.1976  0.1247 -0.1488
28826W        W45300   6.594  10.097  11.188  0.1674  0.4239  0.2900
28827W        W45301   0.150  14.294   3.081 -0.2725  0.0628 -0.0880
28828W        W45302   8.340   8.653   5.129  0.0045  0.1249 -0.1816
28829W        W45303   4.705  16.894  11.790  0.0767  0.0060  0.0280
28830W        W45304  10.933   2.167   1.546 -0.1409 -0.1104 -0.0556
28831W        W45305   5.659  17.276   1.743  0.0723  0.1377  0.0372
28832W        W45306  17.747  15.031  15.048 -0.0768  0.0887  0.4223
28833W        W45307  11.855   1.651  12.389 -0.0835  0.2716 -0.0737
28834W        W45308  14.161  10.585  13.912  0.1797  0.1431  0.0521
28835W        W45309   4.821   6.164   3.101 -0.0378  0.1758  0.1845
28836W        W45310  11.797   2.335   3.368  0.1638  0.2189  0.0264
28837W        W45311   6.116   0.322  13.212 -0.1560 -0.0033  0.0777
28838W        W45312  17.308  15.681   5.457 -0.0126 -0.1788 -0.3306
28839W        W45313  17.220  11.557   1.578  0.3308  0.1230 -0.0712
28840W        W45314   4.056   1.248   4.622  0.1009  0.0904  0.2432
28841W        W45315   7.905  17.463   3.085 -0.1764 -0.2346 -0.0377
28842W        W45316   4.298  13.888  15.869 -0.1974  0.1825  0.0424
28843W        W45317  12.445   1.369   0.717  0.1507  0.0513 -0.0037
28844W        W45318  14.548   4.418   2.204 -0.1803 -0.0717 -0.3388
28845W        W45319   9.169   9.396   2.588 -0.0019 -0.5341  0.2621
28846W        W45320  11.492   8.527  13.973 -0.0031 -0.2752 -0.2139
28847W        W45321  12.737   8.961   4.554 -0.0200  0.0721 -0.2398
28848W        W45322  13.302   1.906   0.076  0.3885 -0.1087  0.1025
28849W        W45323   2.983   0.384   3.612 -0.1009 -0.0958  0.0533
28850W        W45324   0.068   8.391  13.303 -0.1897 -0.2059 -0.1252
28851W        W45325  13.354   1.532  14.838 -0.0363 -0.0116 -0.1726
28852W        W45326   7.989  15.584  14.419 -0.0088  0.0616  0.0269
28853W        W45327   9.188   2.175  11.600  0.1068  0.0560  0.0630
28854W        W45328   1.564   6.332   1.723  0.1703  0.0223  0.2412
28855W        W45329   0.030  10.050  11.477 -0.2434  0.1536 -0.0255
28856W        W45330  12.648   3.203  14.770  0.0529 -0.2008  0.1838
28857W        W45331   2.207  12.636  11.599 -0.3116 -0.0679 -0.0086
28858W        W45332  13.787  16.448  13.241 -0.0337 -0.0059 -0.3334
28859W        W45333  13.147  18.057  13.286  0.2765 -0.0502  0.1838
28860W        W45334   6.511  17.661   0.173  0.1189  0.2486  0.0523
28861W        W45335   2.759   9.074   1.285  0.0366 -0.3548 -0.0863
28862W        W45336   2.248   0.069   4.099  0.0775  0.2380 -0.0747
28863W        W45337   5.758  17.023   0.807  0.2422  0.2713 -0.1330
28864W        W45338   3.607   0.246   1.388 -0.0717  0.1183 -0.0543
28865W        W45339  12.212   7.973   3.390  0.1574  0.1776 -0.2268
28866W        W45340  15.903  17.661  13.094 -0.0322  0.2571  0.1313
28867W        W45341   0.033   2.715  12.604  0.2383  0.0453 -0.1890
28868W        W45342   6.247   0.255   1.358 -0.0630  0.1569  0.0520
28869W        W45343   8.889  17.110  13.785  0.0896  0.0326 -0.1895
28870W        W45344   4.465   7.548  13.770  0.2119 -0.1133 -0.1039
28871W        W45345   9.814  18.290   2.088  0.4470 -0.0025 -0.0774
28872W        W45346   6.849   5.387   1.569 -0.0827 -0.2508  0.0624
28873W        W45347  14.911  11.664  13.405  0.0376  0.1792  0.0648
28874W        W45348  16.751  15.277   3.568  0.0257  0.1907 -0.2015
28875W        W45349  16.488  12.052   3.393  0.2578  0.1479 -0.1683
28876W        W45350   1.549   1.719   5.068  0.0767 -0.2624 -0.2602
28877W        W45351   6.153   4.976   2.799 -0.0755 -0.1024  0.1353
28878W        W45352   9.826   3.722   4.002  0.0892  0.1867 -0.1711
28879W        W45353  16.585   4.506   4.872  0.0922 -0.0431 -0.2625
28880W        W45354   1.092  10.170  15.897  0.2525  0.0452  0.1325
28881W        W45355   2.953   5.346  12.178  0.1715  0.4011 -0.1608
28882W        W45356  16.749  16.078  12.881  0.0077 -0.4056 -0.1644
28883W        W45357   9.103  10.760   0.585  0.0809 -0.0885  0.0292
28884W        W45358   5.004   1.320  12.883  0.2205 -0.1154 -0.2398
28885W        W45359   9.804  10.382   1.794  0.0095 -0.0684 -0.1674
28886W        W45360  12.127   8.901  11.856  0.4262  0.1844 -0.0146
28887W        W45361  18.424  11.550   4.297 -0.2614 -0.1105  0.1301
28888W        W45362  12.933  12.677   3.400  0.0286 -0.2238 -0.0820
28889W        W45363  14.923  13.593  15.591 -0.0595 -0.1369 -0.0441
28890W        W45364  12.469  16.822   3.020  0.0541 -0.1106  0.1564
28891W        W45365  11.918  18.270  11.850  0.1767 -0.1862  0.0278
28892W        W45366   8.718  11.064   0.510 -0.0402  0.0417  0.2125
28893W        W45367  10.020  12.400  12.693 -0.0053 -0.0612  0.2105
28894W        W45368   2.342   6.914  10.621 -0.0795 -0.1277 -0.0177
28895W        W45369  16.715  17.519  15.425 -0.0455  0.2033  0.0952
28896W        W45370  14.770   2.304  14.585  0.3155 -0.2916  0.0432
28897W        W45371  17.173  14.221  13.807  0.0302 -0.0684 -0.1822
28898W        W45372   0.751   3.158   0.310  0.0039 -0.1783  0.1280
28899W        W45373  11.210  15.018   5.841 -0.1045 -0.4309 -0.0185
28900W        W45374  12.825  13.077   4.231 -0.1046  0.0704 -0.2477
28901W        W45375  12.783   5.837  15.346  0.0930 -0.1663  0.2368
28902W        W45376  10.993  10.510  13.579  0.0776 -0.2049  0.0384
28903W        W45377  17.806  12.473  15.234  0.0559  0.0381 -0.0069
28904W        W45378   3.385   2.384  15.762  0.0236  0.1582 -0.0608
28905W        W45379  18.007  14.274  14.207 -0.0648  0.2628 -0.0847
28906W        W45380   7.265  15.242  13.302 -0.0640  0.0570  0.0791
28907W        W45381   3.073   0.523  12.196  0.0308 -0.1452  0.2575
28908W        W45382  13.170   3.735   2.025 -0.0331 -0.2205 -0.1104
28909W        W45383  17.917   4.007   2.695 -0.4422 -0.0088  0.1802
28910W        W45384  13.101   7.034   4.216 -0.2779  0.0105  0.0819
28911W        W45385   2.845  10.439  11.492  0.0698  0.1254  0.0564
28912W        W45386   1.308   8.214  11.482 -0.1131  0.1141 -0.0130
28913W        W45387  12.831   0.149   5.361  0.0989 -0.0414 -0.1111
28914W        W45388  13.373   7.390   4.532  0.2494  0.1885  0.0777
28915W        W45389  13.064   6.554  11.944  0.1947 -0.1776  0.2281
28916W        W45390   7.004  17.823  14.623 -0.2195  0.1357  0.1856
28917W        W45391   6.390   9.941  15.360  0.5241  0.1064 -0.1653
28918W        W45392   1.275   6.568  15.490 -0.0580 -0.1849  0.0099
28919W        W45393  18.136   5.194   0.292 -0.0508 -0.1469 -0.0706
28920W        W45394  15.574  17.873  15.635  0.1069 -0.0295 -0.2776
28921W        W45395   8.087   1.236   0.584 -0.1207 -0.0498  0.1346
28922W        W45396  17.021  18.457   5.621 -0.3893  0.1125  0.1069
28923W        W45397   9.147  16.700  13.144 -0.0609 -0.0803  0.1137
28924W        W45398  14.675   1.423   3.924 -0.2922  0.1408 -0.0769
28925W        W45399   0.014  16.198   1.268  0.1100 -0.0036  0.3313
28926W        W45400   6.534  11.022  13.611  0.0935 -0.0479  0.0431
28927W        W45401   7.855  11.523   1.111 -0.2204 -0.0688  0.1052
28928W        W45402  14.856  11.476  14.959 -0.0025 -0.1840 -0.3105
28929W        W45403  18.198   5.824   0.394  0.0218  0.0905 -0.0007
28930W        W45404  15.542  10.698  11.340  0.0759  0.0938  0.1291
28931W        W45405  11.382   8.112  15.725  0.3898  0.1355 -0.1356
28932W        W45406  12.122  16.440   2.658  0.0456 -0.0575 -0.1247
28933W        W45407   3.703   8.141  13.153 -0.0274 -0.1031 -0.0238
28934W        W45408  11.706   3.114  10.761 -0.2441 -0.2446 -0.0090
28935W        W45409   7.249   1.745  14.162 -0.0223  0.0081  0.3672
28936W        W45410   7.616  11.904  14.710  0.0408 -0.1057 -0.0350
28937W        W45411  18.319   2.765   3.242 -0.0572  0.0394 -0.2176
28938W        W45412  11.466  13.709  13.818  0.4260 -0.0219 -0.0935
28939W        W45413   6.048  15.142  11.553  0.0634  0.2331  0.1887
28940W        W45414   1.991  12.490  15.259 -0.1416 -0.3392 -0.1823
28941W        W45415   5.494   6.730  13.219  0.2807  0.0866  0.2258
28942W        W45416   7.183   7.586   2.650  0.3198  0.0519  0.2848
28943W        W45417  11.422   1.203  14.216 -0.0791 -0.4787  0.2471
28944W        W45418  15.213  10.762   4.559  0.1299  0.1043  0.0092
28945W        W45419  16.475   3.024  12.471 -0.0172  0.0654 -0.0507
28946W        W45420   0.784  12.972   1.753 -0.0405  0.0297 -0.0570
28947W        W45421   8.614  12.024  15.935  0.2241  0.0310 -0.2524
28948W        W45422   5.528  11.349   3.390  0.0720 -0.1798 -0.2753
28949W        W45423   2.076   2.425   3.037 -0.1440  0.0240 -0.0023
28950W        W45424  11.694  18.146   2.393  0.1186 -0.1203  0.1716
28951W        W45425   0.266  16.186   0.228  0.1463  0.1966 -0.0891
28952W        W45426  12.346   4.461  14.197 -0.1735 -0.0055 -0.2070
28953W        W45427  18.345  16.970   0.615 -0.1139 -0.1949 -0.0731
28954W        W45428   9.023   3.834   3.083 -0.2532 -0.1148 -0.0563
28955W        W45429  11.269   0.500  11.067 -0.2111 -0.0807 -0.0083
28956W        W45430  13.250   2.345   5.107 -0.1309 -0.2486 -0.2865
28957W        W45431   0.093  16.856  12.423 -0.0506  0.0270  0.0652
28958W        W45432  10.096   2.662  14.758  0.2451  0.0099  0.1304
28959W        W45433  12.068  13.349   1.372  0.1535  0.3739  0.2078
28960W        W45434   6.427  13.469  14.156  0.2593  0.2955  0.2841
28961W        W45435   5.072  14.557   0.017 -0.1137  0.0781 -0.0206
28962W        W45436  14.219   7.308   2.778 -0.0953  0.2450 -0.0546
28963W        W45437   4.883  15.817   4.330  0.2559  0.1639  0.1036
28964W        W45438  11.354   9.008   4.696  0.3318  0.0925  0.1280
28965W        W45439   3.331  16.098  11.453 -0.1747 -0.2341  0.0631
28966W        W45440   1.592   4.740  15.221 -0.0175 -0.2637 -0.3335
28967W        W45441   5.047   8.583   5.159  0.2514  0.2495  0.0236
28968W        W45442   8.451   5.951  11.550  0.0019  0.0566  0.2910
28969W        W45443   2.415   1.965   0.678  0.0234  0.1073  0.2323
28970W        W45444  12.749  16.620   1.980 -0.1657 -0.1196 -0.1211
28971W        W45445   3.809   0.064  15.359 -0.0267 -0.2044  0.1856
28972W        W45446  17.318  14.977  12.995 -0.1274  0.0955 -0.0296
28973W        W45447   0.748   9.762  15.794 -0.0891  0.0151  0.2387
28974W        W45448  18.301  11.871   3.884 -0.2310  0.0544 -0.2285
28975W        W45449   4.526  15.384   1.068 -0.1707  0.0263  0.1267
28976W        W45450  15.396  12.829   3.734 -0.0415  0.0245  0.2441
28977W        W45451  16.355   1.377   1.524  0.0496  0.4092  0.0003
28978W        W45452  14.220   2.567  13.696 -0.2848  0.0598 -0.3322
28979W        W45453   8.881   9.410  14.218 -0.2646  0.1498 -0.0911
28980W        W45454   6.128   5.933  13.541  0.2745  0.2883 -0.1284
28981W        W45455   2.198  13.675  12.671  0.1271  0.0790  0.0019
28982W        W45456  11.079   0.457   2.881 -0.1499  0.1516  0.0849
28983W        W45457  16.878  14.816  13.229 -0.0142  0.0541 -0.0807
28984W        W45458  12.692  14.683   0.178 -0.0822 -0.1428  0.1046
28985W        W45459  11.535   0.874   0.248 -0.0089  0.1542  0.0311
28986W        W45460   9.435  16.839   6.068  0.0797  0.0274 -0.0433
28987W        W45461  14.145   4.417   0.670 -0.0601 -0.0169  0.2237
28988W        W45462   0.374   6.537   2.123 -0.3349  0.0041 -0.1287
28989W        W45463   2.677   2.301  14.612  0.2961 -0.0193 -0.1189
28990W        W45464   5.537  10.152  11.632  0.0382 -0.0456  0.0160
28991W        W45465   4.706   5.748   3.420  0.0116 -0.0612  0.0346
28992W        W45466   2.274   0.130   0.059 -0.1327  0.0424 -0.1009
28993W        W45467  10.054   9.117  14.338  0.0406  0.1257 -0.1833
28994W        W45468  10.611   2.253   2.626 -0.2537 -0.0158  0.1122
28995W        W45469  14.612  11.505   4.907 -0.0812 -0.2469 -0.0021
28996W        W45470   8.133   1.728  15.652 -0.2165  0.0703 -0.1109
28997W        W45471  15.359   1.667   4.855 -0.0870 -0.0742 -0.0086
28998W        W45472   9.998   7.433  12.145  0.1460 -0.0315  0.0825
28999W        W45473   9.846  14.204  11.836  0.0986  0.1917  0.1276
29000W        W45474   8.897   8.312  12.516  0.1326 -0.1345 -0.0584
29001W        W45475  11.540  10.916   2.637 -0.0282  0.0531 -0.1330
29002W        W45476   9.111   9.336   3.640 -0.0199 -0.0346 -0.1402
29003W        W45477  10.599   7.503  14.375  0.0389 -0.2142 -0.3404
29004W        W45478  13.583   1.157   2.233 -0.0586  0.0601 -0.3476
29005W        W45479  16.780   8.836   5.301  0.0090 -0.0846  0.3017
29006W        W45480   2.229   6.072   2.447  0.0630  0.4625  0.1790
29007W        W45481  10.240   1.977   0.901 -0.0867  0.0583  0.0771
29008W        W45482   8.609   8.387  15.881  0.0454 -0.1229  0.1103
29009W        W45483   2.113   3.520   0.039 -0.1245  0.0683 -0.2649
29010W        W45484   1.614   5.069   5.689 -0.0223  0.0370 -0.2657
29011W        W45485   3.512  12.528  14.807 -0.2838 -0.0399 -0.0712
29012W        W45486   6.914  15.187   2.997  0.0876 -0.0560 -0.0294
29013W        W45487   5.814   2.384   6.143  0.2613  0.0925 -0.1902
29014W        W45488   6.635   1.771  15.666  0.0954  0.0323 -0.4857
29015W        W45489  15.756   8.490  10.911  0.2860 -0.0412 -0.2818
29016W        W45490   9.351   9.738   1.242 -0.1890 -0.0220  0.4557
29017W        W45491  16.919   0.155   3.780  0.0680  0.0737 -0.1217
29018W        W45492  11.601  10.289  12.029  0.1422 -0.0128  0.1450
29019W        W45493  12.288   9.089  12.703  0.4790 -0.0876  0.0058
29020W        W45494   6.468   0.928  13.769 -0.1170 -0.1460  0.2293
29021W        W45495   0.068  15.509   3.881  0.1883  0.2714  0.0296
29022W        W45496   9.284   4.099  13.286  0.3707 -0.2426 -0.1738
29023W        W45497   0.474   9.488   1.523  0.0128  0.1350  0.0128
29024W        W45498   0.512   5.971   0.554  0.0193 -0.2952  0.2355
29025W        W45499  16.565   5.620  11.228 -0.0945  0.2683  0.1283
29026W        W45500  11.906  18.106  15.482 -0.3949  0.0290  0.1690
29027W        W45501   3.242   2.470  13.949  0.0690 -0.1503 -0.2667
29028W        W45502  12.208  11.769   1.563  0.2671 -0.3579 -0.1620
29029W        W45503  17.936   0.281  12.243  0.1290  0.2220 -0.1123
29030W        W45504   9.281  12.235  13.392 -0.0841 -0.0214  0.0863
29031W        W45505   1.070  15.554  15.468 -0.0400  0.1002 -0.2412
29032W        W45506   0.051  10.459   1.515 -0.2606 -0.1566 -0.1414
29033W        W45507   8.109  14.191  11.634  0.1458 -0.0730  0.2592
29034W        W45508   8.914   6.437   4.216 -0.0355  0.0030  0.3326
29035W        W45509   8.500   5.453   5.826  0.1480 -0.1714 -0.0249
29036W        W45510   2.234   5.732  15.798 -0.0638 -0.0895 -0.0502
29037W        W45511  15.507  17.289  13.851 -0.2922 -0.0327 -0.0881
29038W        W45512   8.255  12.396  14.162 -0.1904  0.0809 -0.0173
29039W        W45513  11.138   2.524   0.134 -0.0374 -0.0319 -0.0497
29040W        W45514  17.657   6.317  10.584 -0.0061  0.2165  0.0769
29041W        W45515  14.832   9.366  14.366 -0.0957  0.3102 -0.0613
29042W        W45516   1.564  10.010  15.375 -0.0250  0.0308  0.0773
29043W        W45517   1.071   8.388   0.863  0.3853  0.3430 -0.2858
29044W        W45518  16.415   1.847  15.442 -0.2713 -0.1514  0.2284
29045W        W45519   3.907   6.522   5.324  0.2000  0.0185  0.0647
29046W        W45520   6.071   8.032  11.098  0.1895  0.0931 -0.1898
29047W        W45521  16.153   9.973  11.309 -0.0512 -0.0652 -0.0595
29048W        W45522   1.277  10.863  13.925 -0.0174  0.2698 -0.0878
29049W        W45523  14.909   5.714   5.579 -0.0068 -0.0011 -0.0384
29050W        W45524   2.048   5.592   4.289 -0.2399  0.0186 -0.3338
29051W        W45525  16.749  15.258   0.045 -0.0776 -0.0662  0.3488
29052W        W45526  14.008  17.070   1.624  0.1797  0.2723 -0.1728
29053W        W45527  13.705   1.917  14.586 -0.0073 -0.1651  0.0153
29054W        W45528   7.554  10.911  14.298 -0.1913  0.2993 -0.0884
29055W        W45529   2.206  16.948  13.626 -0.0137 -0.0573  0.3048
29056W        W45530  12.525  13.843  12.621 -0.0527  0.0342 -0.0888
29057W        W45531   7.188   0.052   4.105 -0.0720 -0.0513  0.1989
29058W        W45532   2.631  16.901  15.161 -0.2129 -0.0438  0.2051
29059W        W45533   8.353   8.502  11.239 -0.0802  0.0207  0.1311
29060W        W45534   8.220   9.749   0.076 -0.2110  0.0210 -0.0359
29061W        W45535  14.397  16.663   0.933 -0.0182  0.0740 -0.0397
29062W        W45536  18.226  16.541   5.379  0.1525  0.1845 -0.2689
29063W        W45537  10.518   3.719  12.749  0.1460  0.0298  0.2001
29064W        W45538  16.964  13.476  13.091  0.1826 -0.1303 -0.1053
29065W        W45539   3.217  17.502   2.787 -0.2218 -0.3352 -0.1304
29066W        W45540   8.048   0.209  13.305 -0.2308 -0.6276 -0.4211
29067W        W45541   9.120  15.033  13.106  0.1251 -0.1746 -0.0589
29068W        W45542   6.385  13.227  15.008 -0.0485  0.2584  0.0911
29069W        W45543   0.044   0.036  10.933 -0.1367  0.0477 -0.3088
29070W        W45544   0.508   8.851  15.355 -0.1434  0.0912  0.0613
29071W        W45545  17.818  16.638   3.766  0.0315  0.2117 -0.1004
29072W        W45546   5.381   8.298   1.937 -0.0868  0.0858  0.1204
29073W        W45547   8.620  12.401   0.873  0.0837 -0.1190 -0.1510
29074W        W45548  17.942  16.007   3.241  0.0976 -0.1360  0.0628
29075W        W45549   6.128   8.659   4.203 -0.0058 -0.1970 -0.2773
29076W        W45550   4.067   2.133  14.546  0.1221 -0.2074 -0.3063
29077W        W45551   8.271   8.099   4.841 -0.1805 -0.0187  0.1417
29078W        W45552   4.345  13.079   5.080  0.0278  0.0544 -0.2342
29079W        W45553   7.478  10.842   4.324  0.1256  0.1243 -0.2030
29080W        W45554   8.990  17.485   4.393  0.1489  0.0730  0.0647
29081W        W45555  12.590  17.861   2.531  0.0283  0.1198 -0.0999
29082W        W45556   2.412  15.753   2.979  0.2614 -0.0916 -0.0614
29083W        W45557   7.141  15.575   4.537  0.2738  0.2965 -0.0841
29084W        W45558   7.133  14.938  14.798  0.0503  0.0404 -0.0530
29085W        W45559   3.516  15.815   2.876 -0.0309 -0.2418  0.3199
29086W        W45560   6.761   0.996   3.927  0.2224  0.2234 -0.1063
29087W        W45561   5.123   8.132   5.531 -0.0284 -0.0180  0.1290
29088W        W45562   0.831  13.123  14.206 -0.2194  0.0495 -0.2320
29089W        W45563   7.435  13.448  10.272 -0.0787 -0.0069 -0.3333
29090W        W45564   3.936   5.546   1.598  0.0306  0.2436  0.0796
29091W        W45565  10.024   8.229   3.386  0.1077  0.1869 -0.0185
29092W        W45566  12.760   7.343  15.628  0.0200 -0.0875 -0.0652
29093W        W45567  10.080   6.763   3.091 -0.3471  0.1173  0.2785
29094W        W45568  16.179  14.755  11.877  0.2244 -0.0827  0.2929
29095W        W45569   7.043   7.551  15.899 -0.4200 -0.0775 -0.0029
29096W        W45570   0.659   4.843   4.258  0.0590  0.2239 -0.0494
29097W        W45571  18.316   8.415   0.611  0.0232  0.0457  0.2948
29098W        W45572  14.036   0.775   2.373  0.1457  0.1079  0.1364
29099W        W45573   2.446  12.228   2.643 -0.3748  0.3451 -0.1591
29100W        W45574   2.803   7.169  14.821  0.0023 -0.2012  0.0660
29101W        W45575   1.587   4.446  14.826 -0.1955  0.0949 -0.0526
29102W        W45576  15.894   9.070   5.409  0.2215 -0.1804 -0.0508
29103W        W45577   4.246  17.356  11.261 -0.2613 -0.0921 -0.1753
29104W        W45578  10.474  14.371  12.269 -0.0851  0.6022 -0.2390
29105W        W45579  13.000   1.878  11.939 -0.0087  0.1663 -0.0199
29106W        W45580   3.394   2.331   1.740  0.5010 -0.0592  0.1184
29107W        W45581   7.663   6.538   0.448 -0.3615 -0.0756 -0.1713
29108W        W45582   6.477   9.337   3.535  0.1385  0.2999  0.1614
29109W        W45583  11.657  12.709  12.329 -0.0880 -0.0778 -0.1534
29110W        W45584  17.285  15.984   0.433 -0.0393 -0.1872  0.1038
29111W        W45585   6.552  18.394   0.173 -0.1233 -0.1941 -0.0306
29112W        W45586   4.247   5.421  12.170 -0.0112  0.4408  0.3552
29113W        W45587   7.436   0.317   2.833 -0.0896  0.0130 -0.0453
29114W        W45588   9.088  11.400   4.247 -0.0447 -0.1490  0.3180
29115W        W45589   2.076   9.934  14.541 -0.2159 -0.1030 -0.1783
29116W        W45590   4.216   0.940   2.798  0.1301  0.0163  0.1452
29117W        W45591   9.541  14.209   4.406  0.4266  0.0100 -0.0835
29118W        W45592   8.743   4.627  10.104 -0.0093  0.1001  0.3843
29119W        W45593  17.760  12.647   4.564  0.0259 -0.0459  0.0403
29120W        W45594   2.500   3.853   2.720  0.3384 -0.0983 -0.3787
29121W        W45595   1.374  16.650  13.621  0.0908  0.1172 -0.2672
29122W        W45596  13.309  15.161  14.979 -0.0946  0.2188  0.0267
29123W        W45597  10.226   1.859  13.115  0.0226 -0.0464  0.1028
29124W        W45598  12.239   4.887   0.880  0.1800  0.0359  0.0804
29125W        W45599   7.395  10.470   2.777 -0.0886  0.0026 -0.4404
29126W        W45600   3.955  16.506   0.982 -0.1358  0.1269  0.0680
29127W        W45601   4.963  14.385  13.753 -0.0145  0.0258  0.0992
29128W        W45602  10.600   5.760  12.533  0.0337 -0.0538  0.1082
29129W        W45603   9.965   9.473   4.355 -0.1555  0.0151 -0.0199
29130W        W45604   3.583   5.545  10.961 -0.0371 -0.0175  0.3071
29131W        W45605  12.170  11.046   3.422  0.1565  0.1030  0.1035
29132W        W45606  14.938   5.819  12.804 -0.4304 -0.1285 -0.2374
29133W        W45607   2.973  11.675   4.094 -0.1465  0.0513  0.1152
29134W        W45608  16.125   4.744   2.837 -0.2661 -0.0369  0.0062
29135W        W45609  14.890  16.263  11.662  0.0936 -0.1911 -0.0355
29136W        W45610  16.358   2.568  14.406 -0.1606 -0.2943  0.2550
29137W        W45611   1.092  10.117  14.357 -0.0921  0.2297 -0.2636
29138W        W45612   8.585   6.639   2.038  0.0628 -0.0770 -0.1366
29139W        W45613  16.400   7.793  13.353 -0.2228  0.2525 -0.1043
29140W        W45614   3.509   3.031  12.614 -0.0052 -0.0279 -0.4576
29141W        W45615   2.043   2.283   0.874  0.2016 -0.0215  0.0196
29142W        W45616   8.145  11.188  12.155  0.3745  0.3014 -0.1442
29143W        W45617   2.823   4.055  11.842  0.1765 -0.0205 -0.1580
29144W        W45618   0.699  18.375  14.398 -0.0839 -0.0114  0.0872
29145W        W45619   1.890  16.360  10.550 -0.1224  0.0956  0.2588
29146W        W45620  10.615  18.277  15.892 -0.0158 -0.1286 -0.4495
29147W        W45621  11.049   6.528   5.183  0.2305 -0.0642  0.0902
29148W        W45622  10.329   5.537  14.570  0.0350  0.0371  0.2054
29149W        W45623  15.518   1.901   4.235 -0.1334 -0.1757 -0.2292
29150W        W45624   0.340  13.386  10.291  0.1261 -0.0676  0.0085
29151W        W45625   8.035  18.100   5.677 -0.2872 -0.1147  0.0171
29152W        W45626   1.887   3.531   2.095 -0.0683 -0.2851  0.0582
29153W        W45627  13.070   7.117   3.738  0.2742  0.1363  0.0166
29154W        W45628   9.054  17.003  12.712 -0.0038  0.0405 -0.0592
29155W        W45629  11.024  15.621  11.612  0.0158 -0.0090  0.0403
29156W        W45630   3.389   7.719  11.606 -0.0316 -0.1118 -0.0453
29157W        W45631  15.205   2.340   0.488  0.0010 -0.0851  0.1064
29158W        W45632   0.581  17.945   3.294 -0.0795  0.2120 -0.1327
29159W        W45633   2.972   8.910  10.713 -0.1797 -0.1454 -0.0511
29160W        W45634  12.485  17.559  11.021 -0.1313 -0.2346  0.0114
29161W        W45635  11.018  16.045   0.651 -0.1114  0.2185 -0.1654
29162W        W45636  14.367   8.262  15.144 -0.0502  0.0238 -0.0370
29163W        W45637  14.815   0.103   5.326  0.2608 -0.1420  0.2055
29164W        W45638  15.255  16.885   2.737 -0.1757  0.0659 -0.0181
29165W        W45639   0.732   4.850  13.756 -0.1740 -0.1280 -0.1146
29166W        W45640  14.035  16.471  12.491  0.2310  0.0075  0.3563
29167W        W45641   7.504  13.464   9.793  0.1882 -0.0459  0.1691
29168W        W45642   1.125   9.080  10.003  0.3184 -0.0698  0.0657
29169W        W45643   1.807  11.886  12.749 -0.0127  0.1733 -0.3588
29170W        W45644  14.525   7.281  11.210  0.1253 -0.1792  0.0508
29171W        W45645  10.641  13.451   1.934 -0.1508  0.1574  0.0818
29172W        W45646   8.131   3.312   3.880  0.0738 -0.1652 -0.0531
29173W        W45647   7.442   0.759  14.400  0.2129 -0.0501 -0.0397
29174W        W45648  10.446  16.420   3.268 -0.2122 -0.1189 -0.1045
29175W        W45649  12.855   0.023  14.440  0.0658  0.0313 -0.0690
29176W        W45650   3.592   8.081   1.622  0.0397  0.0824 -0.3098
29177W        W45651  15.222   2.567  15.407 -0.0308 -0.3384 -0.1198
29178W        W45652  12.679  12.695   1.358 -0.0067 -0.2581 -0.4271
29179W        W45653  16.254  17.456   2.583 -0.0135 -0.0626  0.1212
29180W        W45654   7.295   5.180  12.336 -0.0706 -0.2861 -0.2814
29181W        W45655  13.210  10.169  13.832 -0.0219 -0.1392 -0.1516
29182W        W45656  12.221  15.610  13.554 -0.1067 -0.0680 -0.0883
29183W        W45657  16.763  15.393   4.903  0.2076  0.0619 -0.0916
29184W        W45658   8.321  12.415  12.995 -0.2495  0.1211  0.1158
29185W        W45659   2.112   9.252  12.820  0.0742 -0.0671  0.1754
29186W        W45660  11.253  11.051   1.097  0.2082 -0.0188 -0.0862
29187W        W45661   6.967   5.444   3.172  0.0605 -0.1941 -0.0195
29188W        W45662   6.536  11.204  11.331  0.0397  0.1902 -0.3366
29189W        W45663  18.295  15.052  10.231  0.0166  0.1812 -0.0731
29190W        W45664  13.811   3.809  12.255  0.0776  0.0987  0.1764
29191W        W45665   6.418  10.379   2.487  0.1173 -0.1047 -0.1022
29192W        W45666   1.322   3.511  13.892 -0.2205  0.0162  0.1697
29193W        W45667   0.357  12.838   1.481  0.1996 -0.0262 -0.0647
29194W        W45668   3.990   7.061  15.509  0.0363 -0.1882 -0.3032
29195W        W45669   6.913   7.161  15.565  0.2004 -0.1274 -0.2079
29196W        W45670   5.209   9.039   3.784 -0.1113 -0.2473 -0.1112
29197W        W45671  14.922   1.405   4.372 -0.1566  0.0773  0.4506
29198W        W45672  15.255   7.225   1.026  0.2428 -0.0483  0.1525
29199W        W45673   5.217  11.540   4.996  0.0329  0.0284 -0.2278
29200W        W45674  15.902  17.093   5.094  0.0364 -0.0136  0.1411
29201W        W45675   5.569  10.340  14.260  0.0051 -0.3809 -0.1067
29202W        W45676  12.310   2.389  15.081 -0.0506 -0.0374 -0.0257
29203W        W45677   8.232   1.163   2.542 -0.0657  0.0542  0.1035
29204W        W45678   3.091  17.640   4.841 -0.0502 -0.2180 -0.2125
29205W        W45679  14.688   7.061  13.425  0.1486  0.1111  0.3211
29206W        W45680   5.992  14.642  13.737  0.2485 -0.0811  0.1512
29207W        W45681  15.616  12.070   3.304  0.0195  0.0122  0.2287
29208W        W45682   8.323  17.664  14.369  0.0821 -0.0909 -0.0742
29209W        W45683   6.081   9.031  15.874  0.1609 -0.0959  0.2426
29210W        W45684  17.880  11.133   0.608 -0.3270 -0.1059  0.1307
29211W        W45685  18.040  16.935  13.086  0.1897 -0.0105 -0.1925
29212W        W45686  11.589  11.761  12.078  0.0177  0.0101 -0.1312
29213W        W45687  11.495  13.932   4.861 -0.1786 -0.3781 -0.2316
29214W        W45688  15.427  18.082   0.148 -0.1826 -0.2930  0.0549
29215W        W45689   8.945   4.090  12.835  0.2207 -0.0369  0.0015
29216W        W45690   6.603   0.087   3.810  0.1864  0.2162 -0.1106
29217W        W45691   0.581   7.524   4.666  0.0394  0.1919  0.0361
29218W        W45692   6.495   0.917  10.191  0.3417 -0.2711 -0.2941
29219W        W45693   7.447  15.323  15.553  0.1518  0.2492  0.2018
29220W        W45694  14.016   9.447  10.908  0.1448  0.1805 -0.0186
29221W        W45695   7.018   6.700   2.487  0.2184 -0.1371  0.0185
29222W        W45696  10.739  14.891  14.062 -0.0343  0.1663  0.0156
29223W        W45697   8.003   3.374   0.513 -0.1456  0.0034 -0.1268
29224W        W45698   3.986   2.584   4.698 -0.0702 -0.2713  0.0029
29225W        W45699  14.953   7.512   3.484  0.2514  0.1868  0.1188
29226W        W45700   9.427  12.919   4.612  0.0014 -0.0482 -0.0458
29227W        W45701   0.069  12.036  14.629  0.0308  0.1976  0.1046
29228W        W45702  11.348   4.924  11.863 -0.0792  0.4409  0.1250
29229W        W45703   3.303  18.354  14.999  0.5055  0.2980 -0.1163
29230W        W45704  13.234   5.790  12.069  0.1133  0.1256  0.1762
29231W        W45705  11.870   0.917   1.939  0.1041  0.1545  0.1854
29232W        W45706  15.387   2.404   0.961  0.0587 -0.0516  0.1662
29233W        W45707   8.692  11.584   1.778  0.1224  0.1005 -0.0328
29234W        W45708  10.011  14.460  12.779  0.2494  0.1414  0.0649
29235W        W45709  12.777   8.585   5.546  0.1045  0.0316  0.0575
29236W        W45710  11.243  10.015  12.838  0.0000 -0.1435 -0.1863
29237W        W45711   3.247   5.836   5.213 -0.1119  0.2868  0.2537
29238W        W45712  17.623   2.064   0.124  0.2083  0.0082  0.2623
29239W        W45713  10.387   3.348  11.939  0.0876 -0.2702 -0.0524
29240W        W45714   5.803   6.888  11.513  0.4998 -0.2435 -0.2056
29241W        W45715  17.367   6.969   5.274 -0.3313  0.1532 -0.2831
29242W        W45716  12.031   3.508  10.961  0.1497 -0.0254  0.1335
29243W        W45717  10.623   0.063  12.405 -0.1567  0.2584  0.0676
29244W        W45718   2.504   2.941   0.965  0.3315  0.1610 -0.1711
29245W        W45719  14.400  10.113   4.706 -0.3447  0.3605 -0.0213
29246W        W45720   0.944   0.420   3.896  0.3714 -0.3517  0.0385
29247W        W45721  11.325  10.810  10.395  0.0096  0.0140 -0.4751
29248W        W45722   6.617  15.905  13.461  0.1385 -0.2110 -0.0216
29249W        W45723  12.225  10.991  10.766  0.0767 -0.0125  0.2744
29250W        W45724   3.002  15.704  13.675  0.1635  0.0043 -0.0693
29251W        W45725  14.645  10.299  11.771 -0.3656 -0.1477  0.4901
29252W        W45726   5.479  17.762  12.580  0.1898 -0.0034  0.2592
29253W        W45727   6.776  13.386  12.716 -0.2930  0.1002  0.1422
29254W        W45728   0.021  14.497   4.795  0.1811  0.0937  0.3854
29255W        W45729  10.421  11.210  11.543  0.1263  0.0179  0.1866
29256W        W45730  18.113   0.164  13.559 -0.1780 -0.2023 -0.0557
29257W        W45731  17.293  15.176   2.921 -0.1367 -0.1504 -0.0500
29258W        W45732   6.366   6.692  14.770  0.1851 -0.0493 -0.1043
29259W        W45733  18.447   9.920   0.468  0.3018 -0.1877 -0.0461
29260W        W45734   4.884   8.590  11.808  0.0198 -0.1891  0.1010
29261W        W45735   9.663   9.035   4.500 -0.1201 -0.4225 -0.0958
29262W        W45736  12.718  16.041  15.706 -0.0367  0.3062 -0.2342
29263W        W45737  14.673  16.701   6.289 -0.1615  0.0342  0.1652
29264W        W45738   0.953  15.012  14.655  0.0546 -0.3374 -0.0643
29265W        W45739  17.637   4.391   3.794 -0.2673 -0.1119  0.2529
29266W        W45740  14.537   2.337  11.317  0.2387  0.3130  0.3745
29267W        W45741  16.889  10.260  15.640  0.1504  0.0676 -0.1558
29268W        W45742   4.147   4.539   4.013  0.0305  0.1705 -0.1075
29269W        W45743  10.397  14.172  12.746  0.1297 -0.0042  0.0196
29270W        W45744  11.640  16.638   3.207 -0.2545 -0.2974 -0.3035
29271W        W45745   7.944   8.914   4.322 -0.0332 -0.0576  0.3832
29272W        W45746  15.681   7.398  11.353  0.0655 -0.1116  0.0021
29273W        W45747   4.659  10.200  10.962 -0.0612  0.2618  0.3668
29274W        W45748   7.861  13.553  15.046  0.1148  0.0271 -0.2445
29275W        W45749  17.822  12.881   5.046 -0.1064  0.2576 -0.1228
29276W        W45750   5.260  16.053   5.596 -0.0885 -0.0514 -0.1509
29277W        W45751   1.937   4.639  14.550 -0.3622 -0.2971 -0.1639
29278W        W45752  10.460  10.337   0.229 -0.0431 -0.0568  0.4006
29279W        W45753  18.418   3.669   1.396 -0.1301  0.2187  0.1495
29280W        W45754  15.255  17.756  15.232 -0.0541  0.4304  0.0021
29281W        W45755  13.028   5.368   4.605 -0.0100  0.1169  0.0258
29282W        W45756  16.591   3.293   4.823 -0.3344 -0.1833 -0.1573
29283W        W45757   2.560  18.279  12.517 -0.1301 -0.2334 -0.1888
29284W        W45758  17.339   3.437  14.440 -0.0445  0.1150 -0.0685
29285W        W45759  10.163   0.908  11.070 -0.4171  0.0543 -0.2823
29286W        W45760  17.511  11.191   1.357  0.3105  0.3823  0.0009
29287W        W45761   5.420   1.218  12.517  0.1327  0.0658  0.0757
29288W        W45762   0.751  13.725  14.412  0.1871  0.0290 -0.1468
29289W        W45763   0.974   3.098   0.759 -0.0420  0.0487 -0.1035
29290W        W45764   1.703  14.831   3.931 -0.2896  0.0238 -0.1834
29291W        W45765   6.560  15.539   1.096 -0.1621  0.0638  0.2694
29292W        W45766  11.056  15.340  13.288 -0.3195 -0.1474 -0.0616
29293W        W45767   8.571  16.079  15.613 -0.2298  0.2473  0.1827
29294W        W45768   2.729   8.123   2.795 -0.2092 -0.0223  0.0250
29295W        W45769  16.715  10.989   0.821 -0.2708  0.0429 -0.0423
29296W        W45770  16.871  11.614  12.776 -0.0683  0.1277  0.2859
29297W        W45771   3.600  14.496  12.438 -0.1874  0.0865  0.0264
29298W        W45772   6.760  13.998  14.524  0.1805 -0.0269  0.1918
29299W        W45773   5.177  13.989  11.166 -0.2066  0.1879 -0.2357
29300W        W45774  16.282   6.718  12.577  0.0951  0.0749 -0.0532
29301W        W45775  10.537   2.972  14.602  0.0647 -0.4518  0.1423
29302W        W45776  17.209   2.651   2.657 -0.0474  0.1827 -0.2804
29303W        W45777   0.153   4.800   1.226 -0.2611 -0.1030 -0.3366
29304W        W45778   4.842  16.570   2.766 -0.1156  0.1276  0.0181
29305W        W45779   1.898   9.743  12.352 -0.0644 -0.1175 -0.0187
29306W        W45780  13.253  12.851  15.713 -0.1555 -0.3322  0.0398
29307W        W45781   1.356  11.570  12.684 -0.0731  0.1562  0.0921
29308W        W45782  16.232   1.265   0.703 -0.0085  0.0032  0.1354
29309W        W45783   2.808   4.602   3.076  0.1283 -0.4667  0.0504
29310W        W45784   6.586  10.899   3.959  0.0973  0.0549  0.1750
29311W        W45785  15.247  12.635   0.659  0.1265  0.0650 -0.3190
29312W        W45786  15.489   3.559   3.211  0.0175  0.2840  0.0698
29313W        W45787  12.151   5.874   0.663  0.1629  0.0544  0.1421
29314W        W45788   0.734   0.734   4.327 -0.0609 -0.2682 -0.1728
29315W        W45789  15.599  11.050  13.334 -0.0063 -0.2225  0.1310
29316W        W45790  13.947  12.010   6.282  0.0959  0.2863  0.0958
29317W        W45791   3.699   2.600  14.831 -0.0448 -0.4079  0.3766
29318W        W45792  18.223  14.146   4.594 -0.0939  0.2243 -0.2183
29319W        W45793  13.192   2.010   2.548  0.1148  0.0174  0.3041
29320W        W45794  10.615  11.639  13.114 -0.4140  0.1691 -0.2347
29321W        W45795   9.366   9.213   0.837  0.0048 -0.0765 -0.7147
29322W        W45796  17.402   3.527   4.197 -0.0490  0.0102  0.2684
29323W        W45797   8.364   8.144   5.290 -0.0625 -0.2139 -0.1701
29324W        W45798  12.397   8.084  11.471  0.1040 -0.0241 -0.0918
29325W        W45799   3.628   1.761  15.365 -0.0069 -0.0841 -0.0601
29326W        W45800  11.283   1.398   1.528  0.2777 -0.0141 -0.1926
29327W        W45801  14.887  17.948   2.269  0.3118  0.1030  0.0664
29328W        W45802  17.867   0.874  12.248  0.2390  0.1151  0.2850
29329W        W45803  13.103   5.503  14.477 -0.1361 -0.0314  0.1515
29330W        W45804  11.072   6.927   2.887  0.1185 -0.1532  0.2787
29331W        W45805   0.613   8.675   4.732 -0.1362 -0.2501  0.2718
29332W        W45806   6.232   4.665  14.600  0.2404 -0.0730 -0.0858
29333W        W45807  10.439  16.963  13.236  0.0528  0.0815  0.2326
29334W        W45808   7.386  14.340   9.941 -0.2746 -0.0916 -0.2524
29335W        W45809  14.380  13.013  13.363  0.0340 -0.1050 -0.0033
29336W        W45810  18.473  17.888   0.159 -0.0668 -0.3758 -0.1576
29337W        W45811   8.202   3.883  11.404 -0.1597  0.0724  0.1261
29338W        W45812  16.036   4.215   2.020 -0.0955 -0.1098 -0.1268
29339W        W45813  10.256   6.746  15.711  0.0930  0.1592 -0.3127
29340W        W45814  15.212  12.449   1.705 -0.1445 -0.2520 -0.3636
29341W        W45815   5.227  14.376  13.323  0.2830  0.0634 -0.0329
29342W        W45816   3.388  15.955  14.386  0.0936 -0.1674 -0.3538
29343W        W45817   8.050   3.740   4.163  0.1876 -0.2511  0.1258
29344W        W45818   8.410  16.715   3.414 -0.1073 -0.0156 -0.0754
29345W        W45819   8.629  13.710  14.335  0.1902  0.2062  0.0815
29346W        W45820   2.111  14.700   3.522  0.1519  0.0534 -0.0880
29347W        W45821   9.796   7.991  12.963  0.1505 -0.2021 -0.1231
29348W        W45822  14.099   8.057   1.560 -0.1627  0.0469 -0.0688
29349W        W45823   1.822   1.008   2.598  0.1018  0.0279 -0.3008
29350W        W45824  16.840   9.578  12.929 -0.3141 -0.2873  0.0656
29351W        W45825   7.032   1.895   4.914 -0.1165 -0.1635 -0.1271
29352W        W45826   6.027  18.382  11.517 -0.0631  0.1712  0.0761
29353W        W45827  16.299  14.803   4.355 -0.0378 -0.1788  0.0397
29354W        W45828  11.861   8.516  14.461  0.0765 -0.1876  0.2396
29355W        W45829   9.265  11.711   2.433 -0.1383 -0.3157  0.2566
29356W        W45830   5.658  14.603   5.154 -0.1619 -0.1510  0.1005
29357W        W45831  10.645   4.877  15.343  0.1399  0.1018  0.0110
29358W        W45832   8.062   0.636   3.409  0.2106 -0.2362  0.0260
29359W        W45833   5.285   8.334   4.214  0.1785  0.1228  0.1351
29360W        W45834  17.650  14.052  13.937  0.1127  0.0663 -0.0011
29361W        W45835   3.136  14.204   2.047  0.1900  0.3051 -0.0701
29362W        W45836  14.999   8.042   2.821  0.0502 -0.0273  0.0913
29363W        W45837   7.877   5.084  15.267  0.2704 -0.2955  0.1700
29364W        W45838   0.936  17.517  14.697 -0.3442 -0.0208  0.2696
29365W        W45839   5.431  11.639  15.873  0.3372 -0.3882  0.2644
29366W        W45840  17.974  14.575  12.677 -0.0861 -0.0109  0.1036
29367W        W45841  11.474   3.303   1.171 -0.3423 -0.0712 -0.1272
29368W        W45842   5.127   1.656  12.485  0.1147 -0.0860 -0.0686
29369W        W45843  14.153  15.627   3.877 -0.1085 -0.0850  0.0211
29370W        W45844   2.732  10.427   0.410  0.2195  0.2702  0.0267
29371W        W45845  11.075   9.096  11.654  0.1489 -0.0862  0.1373
29372W        W45846  18.218   2.375  13.355 -0.1449  0.1704 -0.0156
29373W        W45847   0.127  10.519  13.647 -0.0969  0.2239  0.0143
29374W        W45848   6.352   4.267  14.253  0.0885 -0.0737  0.0152
29375W        W45849   6.827   7.832   1.790  0.1294 -0.1387 -0.0935
29376W        W45850   3.371   1.074   1.558 -0.2104  0.2935  0.3220
29377W        W45851   5.790   7.048   5.354 -0.1922 -0.3135  0.0965
29378W        W45852  10.484   4.057  15.776 -0.1793 -0.1637  0.2154
29379W        W45853   3.355   4.881   3.696  0.1032  0.0324 -0.1253
29380W        W45854  15.334   9.677   0.650  0.0440 -0.2450  0.2129
29381W        W45855   3.724  14.727   3.666  0.2077  0.1837  0.0763
29382W        W45856  15.327   8.627   2.140  0.0634  0.0667 -0.1432
29383W        W45857  15.391   7.514  14.519 -0.0421  0.0774  0.4164
29384W        W45858   2.744   1.318  13.426 -0.1668 -0.3528  0.3443
29385W        W45859   7.751  18.238   4.807 -0.1456 -0.0738  0.3306
29386W        W45860  16.006   0.015   2.559  0.2107 -0.1745 -0.1372
29387W        W45861  17.509   1.702   1.580 -0.2174  0.1947 -0.0931
29388W        W45862   1.763  10.476   3.083 -0.3421 -0.0708 -0.1674
29389W        W45863   9.627   9.498  14.967 -0.3337 -0.1604  0.0732
29390W        W45864  17.337   7.432   5.066 -0.0706  0.0737  0.1439
29391W        W45865   4.770   9.809  15.538 -0.0698  0.2463 -0.0476
29392W        W45866   9.622  13.496   3.910  0.0719 -0.0478  0.2834
29393W        W45867  12.584  15.740  13.261 -0.0828  0.0921  0.1361
29394W        W45868   5.047   9.688   3.523  0.0747  0.1273 -0.2121
29395W        W45869   9.921  17.713  10.946  0.0120 -0.2255  0.0093
29396W        W45870   6.631  15.221  12.507  0.1309 -0.0395 -0.0949
29397W        W45871   1.523   8.400  13.272 -0.1824  0.1202 -0.1045
29398W        W45872   5.938   3.943  14.050  0.0210  0.0094  0.1041
29399W        W45873  12.594  10.537  12.591  0.0469 -0.1485  0.2905
29400W        W45874   0.080  15.507  15.815  0.0790 -0.1335 -0.3919
29401W        W45875   5.825   7.876  14.131  0.1070 -0.0679 -0.0785
29402W        W45876   5.065  18.301  12.768 -0.0392 -0.0035  0.4781
29403W        W45877  12.293   3.674  12.843  0.2734 -0.3717 -0.1983
29404W        W45878   2.023  17.776  15.589  0.0495  0.0785  0.0713
29405W        W45879  11.542  15.873   2.566 -0.1434  0.1516 -0.1556
29406W        W45880  13.960   6.922  12.828 -0.0024 -0.0507  0.0146
29407W        W45881  14.676   3.056   4.859  0.2001 -0.2217 -0.3324
29408W        W45882  11.192   5.535  13.278  0.0316  0.2061  0.1372
29409W        W45883  18.259  16.156  14.463  0.1116 -0.2036 -0.0031
29410W        W45884   4.410   7.988   5.011 -0.0635  0.2127  0.1711
29411W        W45885   1.628   5.775  12.353 -0.2663  0.0237  0.0452
29412W        W45886   6.881   2.901   2.317  0.0005 -0.0921  0.1322
29413W        W45887   3.224   7.066  13.747  0.0410  0.3599  0.2484
29414W        W45888  15.684  13.458  10.716  0.1952  0.2112  0.1061
29415W        W45889   0.331  17.222  13.716  0.0146 -0.1745 -0.2490
29416W        W45890   3.298  17.739  13.720 -0.2791 -0.0965 -0.0691
29417W        W45891   4.663  13.962   3.779  0.1253 -0.1915 -0.0578
29418W        W45892  13.834   6.567   5.550  0.1327  0.0422 -0.1786
29419W        W45893  16.364   7.688   2.949  0.2392 -0.1780 -0.2224
29420W        W45894   0.316  18.379   1.016 -0.1936 -0.3279  0.0443
29421W        W45895   5.110   9.402  14.065  0.0586 -0.0124 -0.0265
29422W        W45896  10.285  13.778   2.780  0.0209 -0.0104 -0.1195
29423W        W45897   7.461  12.741   3.257  0.0247 -0.0791  0.1459
29424W        W45898  17.988   4.575  13.176 -0.2192 -0.0867 -0.1539
29425W        W45899   1.111  17.826   3.302  0.4587  0.1471 -0.0596
29426W        W45900  13.758   8.479  11.429 -0.1244  0.0264 -0.1930
29427W        W45901   6.031  13.720   3.249  0.0049 -0.0346  0.0580
29428W        W45902  12.779  14.027   4.236 -0.0471 -0.0373 -0.0294
29429W        W45903   8.445   8.669  14.409 -0.3286  0.0355 -0.1916
29430W        W45904  15.646   0.949   2.798 -0.0345  0.0432  0.1868
29431W        W45905   0.576   3.346  14.813 -0.0032 -0.1031  0.1139
29432W        W45906   4.976  17.444  11.229 -0.1069  0.1409 -0.0748
29433W        W45907   9.663  15.386   2.962  0.1538 -0.4097 -0.0086
29434W        W45908   3.248   1.557  14.178  0.0455 -0.2339  0.0323
29435W        W45909  17.805   2.585   0.063  0.2419 -0.0158 -0.1079
29436W        W45910   7.814  13.610   0.335 -0.0439 -0.3308 -0.0726
29437W        W45911   5.132  10.080   0.026 -0.0023  0.2398 -0.0600
29438W        W45912  14.800  12.947  15.109  0.0819  0.1512 -0.1033
29439W        W45913  17.104   5.219  12.406  0.2876  0.0839  0.0684
29440W        W45914   1.344  15.298  14.830  0.1985  0.1264  0.1005
29441W        W45915  16.804  13.573   4.097 -0.2072  0.1430  0.0721
29442W        W45916  15.022   7.060   1.690  0.1818 -0.1210 -0.1368
29443W        W45917   4.657   9.649  10.923 -0.0574 -0.2567  0.0742
29444W        W45918  12.469  14.705  12.593  0.0738 -0.1844  0.1263
29445W        W45919  14.595  15.170  12.745  0.0290 -0.0197  0.3372
29446W        W45920  16.641   6.964  14.978  0.0336  0.2481 -0.3180
29447W        W45921  12.973  10.381   3.577  0.1226  0.1281 -0.1334
29448W        W45922  10.131   5.878  10.020 -0.1756 -0.0899  0.2244
29449W        W45923   8.955  18.207   1.661 -0.0424  0.0569  0.2097
29450W        W45924   2.936   5.903  14.618  0.1907 -0.0098 -0.0491
29451W        W45925   5.463   1.587   0.551 -0.2476 -0.2451  0.0424
29452W        W45926   2.750  13.454  12.581 -0.0420 -0.1519 -0.1449
29453W        W45927   3.609  18.005  11.007 -0.0287  0.1376 -0.0520
29454W        W45928   9.296  14.667  14.731 -0.0336 -0.0491  0.3600
29455W        W45929  16.363   5.471  15.815  0.0277 -0.0633 -0.3584
29456W        W45930   3.959   3.962  12.417  0.2115 -0.0122  0.2782
29457W        W45931   0.094  17.403  15.884 -0.0316  0.0919 -0.1083
29458W        W45932   5.102   9.065   1.311  0.1240 -0.0658 -0.0269
29459W        W45933   6.671  14.643  13.226 -0.0694  0.1819  0.1992
29460W        W45934  18.388  16.090   0.690 -0.1188 -0.1231  0.3259
29461W        W45935  12.123   0.035  10.901  0.3231  0.2411 -0.0104
29462W        W45936   2.197   4.199  13.421  0.2194  0.2303  0.2824
29463W        W45937   4.705   4.316   5.381 -0.1078  0.0494 -0.1932
29464W        W45938   8.135   3.008  15.244  0.0601  0.2759  0.3120
29465W        W45939   5.707   3.870  15.070 -0.0860 -0.1687 -0.4166
29466W        W45940   4.338   3.044   0.860  0.2404 -0.0824 -0.1665
29467W        W45941  14.652   2.119  13.675  0.3595 -0.1895  0.0183
29468W        W45942   6.171   8.909  13.234  0.1280  0.3034  0.0746
29469W        W45943   2.388  18.075   4.908  0.1193 -0.1930  0.2743
29470W        W45944   9.234   7.420   3.901 -0.0564  0.1028  0.0216
29471W        W45945  17.666  13.251   2.420 -0.0805 -0.1012  0.2545
29472W        W45946  16.892  12.929   4.188  0.1773  0.0324  0.0781
29473W        W45947  16.936  10.141  14.768  0.2464 -0.0742  0.0707
29474W        W45948   1.591   3.218   4.618 -0.1969 -0.0517  0.1032
29475W        W45949  15.123   8.164   4.071 -0.0398  0.0868 -0.1280
29476W        W45950  14.788   3.357  13.606 -0.1528  0.0449 -0.0622
29477W        W45951  14.210  12.392   0.172  0.0866  0.2909  0.1380
29478W        W45952  15.717  14.727   1.993 -0.0596  0.0027  0.2953
29479W        W45953  12.124   7.601  14.991 -0.1298  0.0912 -0.2278
29480W        W45954  17.491  14.696   1.568 -0.0917  0.0401 -0.2919
29481W        W45955   4.146   5.058  15.445  0.2353  0.0087  0.0913
29482W        W45956  12.012   6.196   1.405  0.0528  0.1109 -0.1511
29483W        W45957   9.038  12.527  14.720  0.1785 -0.0722 -0.0395
29484W        W45958   9.820   6.856   3.997  0.1237  0.2644 -0.1176
29485W        W45959   0.892   6.895   3.324  0.2687 -0.0727 -0.1395
29486W        W45960   3.151   0.095   1.266 -0.1931 -0.1578 -0.3341
29487W        W45961   7.957  13.344   4.450 -0.2054  0.0566 -0.0335
29488W        W45962   1.550   5.381  13.402  0.2143  0.1573  0.0382
29489W        W45963  13.388   9.738  14.988 -0.0455  0.1693 -0.2958
29490W        W45964   6.160   7.880  10.124  0.1038 -0.1977  0.1995
29491W        W45965  13.071   0.963  11.222 -0.0322  0.1623 -0.1281
29492W        W45966  17.387   6.485   3.458 -0.1309 -0.1824 -0.0830
29493W        W45967  17.831  10.424   2.260  0.0160 -0.3275  0.0820
29494W        W45968  15.925   8.076   0.417  0.3175  0.1070 -0.0947
29495W        W45969   6.340   1.178   3.727 -0.2198  0.1083  0.0154
29496W        W45970   5.202   4.672   3.725  0.5742  0.3024 -0.0880
29497W        W45971   8.267   7.081  13.470 -0.0843  0.1344 -0.2828
29498W        W45972  13.253  14.048  15.071 -0.0101  0.3847 -0.1741
29499W        W45973   2.601  12.422  12.840 -0.2702 -0.0393 -0.2439
29500W        W45974  18.008  17.228  13.484  0.3214 -0.2857  0.0809
29501W        W45975   8.441  15.293  11.807  0.1516 -0.1014 -0.0701
29502W        W45976   3.952   3.200   4.541 -0.1043  0.0317 -0.1999
29503W        W45977  12.091  16.825  12.674  0.0978  0.1527 -0.3160
29504W        W45978   9.093  10.029  15.508  0.1058  0.3697  0.0646
29505W        W45979   9.238  17.469   0.246 -0.0824  0.0240  0.2986
29506W        W45980   7.986   6.683  10.681  0.2486 -0.0109 -0.1183
29507W        W45981  17.383   1.797   3.497  0.0586  0.0212 -0.0134
29508W        W45982   4.925   3.918  15.757  0.0316 -0.2639 -0.1629
29509W        W45983   1.081   7.593   3.306  0.0973  0.0391  0.2011
29510W        W45984   7.290  18.139  15.787 -0.0629  0.0844  0.1092
29511W        W45985  12.156  16.115   1.809 -0.3822  0.0105  0.1059
29512W        W45986   5.400   2.827  11.815 -0.0520  0.2591 -0.0496
29513W        W45987   1.108   3.338  13.460  0.1580 -0.0245  0.1813
29514W        W45988   4.718   1.348  14.791 -0.0833  0.0105  0.3846
29515W        W45989  16.184  11.289   3.124 -0.0131 -0.2007 -0.0008
29516W        W45990   7.045  11.436   2.210  0.2360  0.3004 -0.0607
29517W        W45991  16.197   0.901   1.507 -0.1705 -0.2611  0.3331
29518W        W45992  13.226  16.184  15.865 -0.0865 -0.2758  0.2224
29519W        W45993  12.476   1.620  10.867 -0.0293  0.1612 -0.1032
29520W        W45994   3.330   9.000  13.011 -0.0968  0.2611 -0.1586
29521W        W45995   3.732   0.837  11.604  0.1142  0.1805  0.1033
29522W        W45996   9.914  12.516  13.984 -0.0674  0.1978 -0.0963
29523W        W45997   5.907   7.228  15.447  0.0073  0.0217 -0.0744
29524W        W45998   4.777  17.403   5.216 -0.0098  0.0346 -0.1264
29525W        W45999   4.171   7.305  10.389  0.2101  0.2244 -0.0906
29526W        W46000   2.266  13.179   2.633  0.2661 -0.5485 -0.2424
29527W        W46001   1.903   2.428  13.843 -0.1411  0.1415 -0.0351
29528W        W46002   2.875   7.535  11.655  0.0213 -0.3892  0.0505
29529W        W46003  17.480  12.862   3.854  0.1333 -0.0132  0.2239
29530W        W46004  11.573   3.631  10.763  0.3243  0.0476 -0.2281
29531W        W46005   4.574   1.442   5.490 -0.1225  0.0146 -0.4149
29532W        W46006  12.272  17.375   5.177  0.2688  0.1455  0.1101
29533W        W46007   4.779   4.213  12.774  0.0529 -0.0409  0.4537
29534W        W46008   9.284  10.918  15.632 -0.0423  0.1638 -0.2584
29535W        W46009  10.249  10.636  10.141  0.1303 -0.0717 -0.1039
29536W        W46010   0.615  10.771  11.220 -0.2161 -0.2382  0.0992
29537W        W46011   7.918  14.374  11.192  0.0261  0.1805  0.2747
29538W        W46012   1.781   7.828  12.055  0.0073 -0.0377 -0.1344
29539W        W46013  17.174  16.402  13.346  0.1088  0.2731 -0.3500
29540W        W46014   0.117   7.608   1.087 -0.2336 -0.0487 -0.0562
29541W        W46015  11.319  13.148   0.627 -0.0453  0.1555 -0.0081
29542W        W46016   0.012  16.500   3.350  0.1000 -0.2031 -0.1016
29543W        W46017  12.547   7.232  14.253 -0.0300 -0.2137  0.1240
29544W        W46018  13.652  10.293  15.478  0.0396 -0.1864 -0.1400
29545W        W46019  12.173  10.346   0.077  0.1188 -0.1034 -0.0412
29546W        W46020  17.795   5.745  12.862  0.2510  0.0084 -0.0790
29547W        W46021   9.666   2.783  14.990  0.0950 -0.3173 -0.1403
29548W        W46022   7.944  16.826   0.017 -0.2819  0.0210 -0.0820
29549W        W46023   7.623   7.116  14.456 -0.0614 -0.1146 -0.0227
29550W        W46024  15.517   4.306   5.252 -0.2846 -0.0816 -0.1322
29551W        W46025   4.701  11.562   5.446 -0.1461 -0.0330  0.1169
29552W        W46026  11.061   6.307   3.788  0.0311 -0.2290  0.2960
29553W        W46027   1.965   1.313   4.934  0.1677  0.1555 -0.1816
29554W        W46028  13.506  17.971   1.826  0.0453  0.0638 -0.0607
29555W        W46029  16.104  11.670  14.779  0.3698 -0.1529  0.0984
29556W        W46030  17.264   8.588  12.406 -0.1900 -0.0566 -0.0313
29557W        W46031   3.783   5.593  13.553 -0.1175  0.2588 -0.2060
29558W        W46032   5.123  11.322  15.643  0.2821  0.0458 -0.0020
29559W        W46033  13.963  11.741  11.141 -0.1085  0.0547 -0.0036
29560W        W46034  17.130  15.059   4.767  0.0351 -0.1252  0.0244
29561W        W46035  17.309   0.487   4.032  0.2237  0.0983 -0.2899
29562W        W46036  15.286   1.097  13.236 -0.1341  0.3596 -0.1238
29563W        W46037  18.058  14.752   4.511  0.2336 -0.0463  0.1920
29564W        W46038   0.718   4.130  13.242  0.1113 -0.3326  0.1316
29565W        W46039  10.923  15.018   5.219  0.0749 -0.2174  0.0689
29566W        W46040   8.507  14.561   3.097  0.0935  0.2308 -0.0673
29567W        W46041  17.287  13.893   2.069  0.1100 -0.0326  0.1991
29568W        W46042  11.801   3.110   4.781 -0.1959  0.1796 -0.0293
29569W        W46043  16.986  11.338  13.264  0.0635 -0.0057  0.1444
29570W        W46044  12.700  10.198  13.844  0.1681  0.1040  0.1380
29571W        W46045   1.465   1.368  12.735 -0.1795 -0.0491  0.0296
29572W        W46046  15.276   8.312  12.070 -0.0268 -0.0656  0.0788
29573W        W46047  15.889  13.731   3.888  0.0761  0.0740 -0.1907
29574W        W46048   2.763   1.243  15.274 -0.3074 -0.1003 -0.1463
29575W        W46049  11.888   6.973  12.714 -0.2761  0.1758  0.1542
29576W        W46050  18.462   2.416   5.682  0.0786  0.0371  0.3039
29577W        W46051   5.404   6.749   2.191 -0.2394  0.1024 -0.0371
29578W        W46052   4.382  17.136   5.405  0.0669 -0.0218  0.1599
29579W        W46053   7.963  10.926  15.594 -0.3634  0.1098 -0.2176
29580W        W46054  14.975  12.862   1.799 -0.1655  0.2433 -0.0131
29581W        W46055  10.493  18.034  14.709  0.0526 -0.0142 -0.1879
29582W        W46056  17.392   2.919  12.569 -0.1386  0.1329  0.3030
29583W        W46057  14.662   4.239   0.203  0.1160  0.0333 -0.1433
29584W        W46058   3.939  10.795  12.381  0.0677  0.0160  0.0177
29585W        W46059   2.840  18.069  11.618 -0.0774  0.1496 -0.1644
29586W        W46060  15.672  18.417  15.723 -0.1818 -0.0757  0.2288
29587W        W46061  10.606   0.921   1.932  0.1573 -0.2942  0.2152
29588W        W46062   1.523  14.556   0.394  0.1483 -0.0771  0.0602
29589W        W46063   9.280   1.470  13.547  0.0182  0.2836  0.2232
29590W        W46064  18.068  18.137  13.308  0.0438 -0.1232 -0.2988
29591W        W46065   0.224  15.369  11.729 -0.1102  0.1390  0.0259
29592W        W46066  18.058   1.015   1.610  0.0169  0.0381 -0.1108
29593W        W46067   6.091  11.382   0.947 -0.0079 -0.3417 -0.2692
29594W        W46068  13.471   2.749  12.371 -0.1427 -0.0360  0.1411
29595W        W46069  12.757   9.200   2.085  0.0845  0.0901 -0.0666
29596W        W46070  10.439   9.310   2.949 -0.2079 -0.0935  0.0756
29597W        W46071  16.952   6.904  15.378 -0.0595 -0.1807  0.1723
29598W        W46072   0.597  13.786  12.622  0.2712  0.0973 -0.2590
29599W        W46073  11.771   8.360   0.409  0.0474 -0.0771 -0.3019
29600W        W46074  14.508   0.071   4.391 -0.0540 -0.0435 -0.0318
29601W        W46075   3.767   4.421   3.268  0.2070  0.1427 -0.0628
29602W        W46076   9.029  12.381  15.202  0.3113  0.0507 -0.0084
29603W        W46077  16.866  13.694  15.236 -0.0340  0.2349  0.0200
29604W        W46078   5.737  13.775   0.103 -0.1316  0.0958  0.1661
29605W        W46079   2.705   9.871   3.998  0.1434 -0.0476  0.4195
29606W        W46080  13.596  15.418   3.713  0.3229 -0.0885  0.0378
29607W        W46081  12.038  11.450  11.555  0.3888 -0.0112 -0.2599
29608W        W46082   3.479  17.281  12.984  0.0603 -0.2600 -0.3984
29609W        W46083   7.206   9.951   1.559  0.0089  0.0355  0.1767
29610W        W46084   2.068  13.842   1.792  0.4058 -0.4003  0.1982
29611W        W46085  15.203   3.852   5.054 -0.1292  0.0491 -0.0205
29612W        W46086  13.791   8.144  12.720 -0.0452 -0.0465  0.0372
29613W        W46087   0.544   6.915  14.417  0.0824  0.1213 -0.1122
29614W        W46088  12.723  10.805   0.737 -0.3057 -0.0860  0.1262
29615W        W46089   4.789   6.300   4.122 -0.2555 -0.3606  0.3426
29616W        W46090  13.695  14.590   1.532  0.4141 -0.1395  0.0860
29617W        W46091   2.607  10.281   1.769 -0.0199  0.0188 -0.2956
29618W        W46092  11.505  16.289  13.640 -0.1409 -0.0700 -0.0644
29619W        W46093   1.893  10.155   2.351 -0.0552 -0.0554 -0.0309
29620W        W46094   0.225   4.440   5.702 -0.0401  0.0416  0.0704
29621W        W46095   4.536   3.825   4.389 -0.1405 -0.2117 -0.0489
29622W        W46096  17.927   5.082  15.837  0.2079 -0.2407 -0.0272
29623W        W46097   6.058   2.651  13.956 -0.0072  0.4505 -0.1885
29624W        W46098  17.445   0.451   2.043  0.0599  0.0233  0.1172
29625W        W46099   6.907  10.727   4.380  0.0158 -0.2626 -0.1501
29626W        W46100   9.769   1.224   2.523  0.1072  0.2011  0.1538
29627W        W46101   5.460  14.839  12.443  0.0474  0.0066  0.1550
29628W        W46102  12.852   8.196   3.651 -0.5472  0.0506  0.1026
29629W        W46103  17.169   4.717  15.290  0.0042  0.1828 -0.2430
29630W        W46104  17.510  10.076  14.570  0.1573 -0.1046 -0.3494
29631W        W46105  12.275   9.808   4.179  0.1982 -0.2412 -0.0543
29632W        W46106  12.415   2.980  13.293 -0.1825  0.3740  0.0900
29633W        W46107  14.338   5.319  14.469 -0.0330  0.0101 -0.2324
29634W        W46108  17.997  14.200   2.360  0.4158  0.2077  0.0097
29635W        W46109  11.289   8.578   1.597  0.0955  0.2291 -0.0582
29636W        W46110   5.414   3.352  10.113 -0.0366 -0.1455  0.0218
29637W        W46111   8.993  18.148  10.916 -0.1225  0.1325  0.1153
29638W        W46112  12.611  13.003  12.101  0.0576  0.2961  0.1620
29639W        W46113   8.745   2.321  11.409 -0.0269  0.0034  0.0041
29640W        W46114  11.362   6.488   0.226 -0.2882  0.0857 -0.2542
29641W        W46115   8.476  14.790  12.119 -0.2669 -0.1562 -0.0012
29642W        W46116  14.986  15.514   0.493 -0.0390  0.0587 -0.1146
29643W        W46117   6.007   8.774   2.651  0.2359 -0.2810  0.0884
29644W        W46118   8.202   8.104   1.485  0.0986 -0.2539 -0.0085
29645W        W46119   7.185  16.610   1.808 -0.2238  0.0351 -0.1853
29646W        W46120  16.052   7.375   4.935 -0.3324  0.1055  0.1602
29647W        W46121   4.708  11.618   1.689  0.0388  0.3878 -0.2554
29648W        W46122   5.047   3.153  12.017  0.1675  0.1341 -0.0268
29649W        W46123  14.054  10.428   2.819  0.1577  0.1035  0.1278
29650W        W46124  11.349   8.974   1.939  0.0265 -0.0135  0.1214
29651W        W46125   3.132  14.976   4.376  0.0527  0.2542  0.2227
29652W        W46126  15.945   5.709   0.591  0.0545  0.1147 -0.1689
29653W        W46127  17.104   5.075   5.209  0.2501 -0.1393  0.3197
29654W        W46128  17.443  14.860   0.601  0.0353 -0.1730 -0.3009
29655W        W46129  15.608   8.338  13.279  0.1706 -0.2632 -0.2308
29656W        W46130   6.947   4.842  11.425 -0.0566  0.1752 -0.2083
29657W        W46131  13.416  15.799  13.803 -0.0001  0.0445  0.2370
29658W        W46132  15.656   2.605   2.676 -0.0606 -0.1996  0.3589
29659W        W46133   6.610   4.158   1.102 -0.2335 -0.1177  0.1254
29660W        W46134   2.290  14.123  15.898 -0.0912  0.0174  0.0925
29661W        W46135   1.313   7.622  13.461  0.2032 -0.0473 -0.2937
29662W        W46136  12.084   7.136  15.193 -0.0376 -0.0548  0.2798
29663W        W46137  15.391   6.275  12.540  0.0154  0.3105  0.0210
29664W        W46138  10.570  15.317   4.069 -0.0517 -0.1805 -0.0352
29665W        W46139  18.306  17.259   4.642  0.0353  0.1448  0.2009
29666W        W46140  17.988   5.054  13.537 -0.2570  0.1716 -0.4882
29667W        W46141   4.277  15.979  11.813 -0.1948  0.2608 -0.0242
29668W        W46142  11.348  16.232   4.113  0.1169  0.1370 -0.0971
29669W        W46143  14.109   3.628  13.243 -0.0263  0.3366 -0.0071
29670W        W46144  17.574  15.065   4.442 -0.2685  0.1212 -0.4719
29671W        W46145   8.579   6.250   3.041 -0.1211 -0.0938 -0.1120
29672W        W46146   3.736  12.592   3.274 -0.1380  0.2301  0.2855
29673W        W46147   1.812   4.844   0.086 -0.2572 -0.3975  0.0732
29674W        W46148   7.948  12.857  12.854  0.0537 -0.1711 -0.0086
29675W        W46149   9.595   9.325   3.430 -0.2996  0.0195  0.1875
29676W        W46150  17.634   5.788   5.030  0.0820  0.3641 -0.3218
29677W        W46151   6.251  15.466  11.251 -0.0994  0.0020  0.0058
29678W        W46152   2.539   0.723   5.701  0.2891  0.4399 -0.0406
29679W        W46153   8.655   2.402  13.382 -0.3117 -0.1424 -0.1746
29680W        W46154  10.461   2.441   4.788  0.0551  0.3444 -0.0918
29681W        W46155  13.640   5.184   5.417  0.3043  0.0248 -0.0030
29682W        W46156   0.146  18.222   9.634  0.1304 -0.0986  0.0993
29683W        W46157   6.360  13.390   3.370 -0.0208 -0.4217 -0.1153
29684W        W46158   8.405  13.931   0.117  0.2582 -0.1797 -0.2955
29685W        W46159  12.709   4.687   3.043  0.0290 -0.0128  0.0902
29686W        W46160   8.734   7.842  12.279 -0.0792  0.1177 -0.1049
29687W        W46161  10.475  16.171  12.069 -0.2469 -0.0509 -0.1257
29688W        W46162   8.606   8.422   3.334  0.0872 -0.3725 -0.3498
29689W        W46163   4.658  17.501  12.771 -0.1008 -0.1289 -0.3705
29690W        W46164   7.986  12.163   2.561  0.2965  0.0609 -0.2095
29691W        W46165  13.649  14.859  12.187 -0.1403 -0.0305  0.1994
29692W        W46166   1.655  17.272  15.393  0.1317  0.2190 -0.2058
29693W        W46167   0.327   8.465  14.586 -0.3522  0.1585  0.1741
29694W        W46168  15.926   8.224  15.657 -0.0771  0.1942 -0.0203
29695W        W46169  18.330   4.050  12.734  0.2182  0.1423 -0.1151
29696W        W46170   9.001  11.385   1.392  0.2159  0.0717  0.1800
29697W        W46171  14.371  17.382  12.323  0.0713 -0.1630 -0.0938
29698W        W46172   8.871   5.999  11.939 -0.0770  0.0469  0.0649
29699W        W46173   6.969  16.711  13.196  0.0011 -0.1043 -0.0495
29700W        W46174  16.238  15.376  12.963  0.1218  0.0608 -0.0242
29701W        W46175   2.258   4.031   1.825  0.1291 -0.0311 -0.1166
29702W        W46176   2.599  12.526   4.361  0.2866  0.2478 -0.1615
29703W        W46177  17.278   1.485  11.806 -0.0685 -0.1436  0.0760
29704W        W46178   7.064  11.912  14.016  0.2524 -0.1345 -0.0761
29705W        W46179   0.618  12.655  12.587  0.2608  0.0955  0.1960
29706W        W46180   4.536   4.033   2.268 -0.1507  0.3589  0.4102
29707W        W46181  14.488  15.979  15.530  0.1767  0.0729  0.3314
29708W        W46182  16.075  15.135   0.958 -0.1585 -0.1059 -0.0621
29709W        W46183   7.083   9.380   3.177 -0.3675  0.0179 -0.0751
29710W        W46184   5.384   7.840  11.157 -0.1056 -0.2238  0.0203
29711W        W46185  14.284  13.414  13.070  0.2960  0.0613  0.1416
29712W        W46186   0.599  13.785   4.502  0.1822  0.1515  0.0481
29713W        W46187   5.428  17.262   3.857  0.1839 -0.0010 -0.2106
29714W        W46188  10.912   7.685   3.353  0.0869  0.2485 -0.1673
29715W        W46189  12.060   2.726   3.183 -0.0127  0.0646 -0.1277
29716W        W46190   0.489  16.214   2.717 -0.0572  0.2059  0.0669
29717W        W46191   5.376  11.701  12.829 -0.0174  0.2475  0.0150
29718W        W46192  10.043  12.168   4.508  0.0515 -0.1986  0.0257
29719W        W46193  17.730   0.957  15.705 -0.1363  0.1884  0.0806
29720W        W46194   3.578  12.515  12.847  0.0900 -0.0060 -0.0745
29721W        W46195  15.332   3.482  12.457 -0.1471 -0.2282  0.0077
29722W        W46196   7.338   0.626   2.322  0.2765  0.2581 -0.1316
29723W        W46197   9.772  13.807  11.509 -0.1063 -0.1225 -0.1208
29724W        W46198   1.082  11.793  14.522  0.1133  0.0715  0.3221
29725W        W46199  13.858   7.813   1.964 -0.0849 -0.0222  0.1690
29726W        W46200  12.937  14.853  13.511  0.2878  0.3298 -0.3054
29727W        W46201   3.718  16.674  11.401 -0.0064  0.0710  0.0474
29728W        W46202  13.476  15.979   3.678 -0.3875 -0.0874 -0.1793
29729W        W46203   4.911   0.615   2.252  0.2510 -0.4278 -0.3467
29730W        W46204  12.265  12.171  11.573 -0.2415  0.1197  0.3018
29731W        W46205   9.630   8.017   3.184  0.1053  0.3634 -0.0605
29732W        W46206  18.339   6.614   0.210  0.0560  0.1617  0.0097
29733W        W46207  13.741  11.998   2.883 -0.2918 -0.2555  0.1764
29734W        W46208   7.441   3.883   3.796 -0.0519  0.1649 -0.1239
29735W        W46209  12.993   1.273  15.413 -0.2702 -0.0991 -0.3042
29736W        W46210   7.383   5.795   2.102  0.0697 -0.0886 -0.0770
29737W        W46211  18.034   3.409   0.197 -0.1219  0.0418  0.3504
29738W        W46212  13.773  10.016  15.075  0.2188  0.1272  0.1462
29739W        W46213  16.691  10.376  15.170 -0.0808 -0.0361 -0.1062
29740W        W46214   7.069  14.578   1.769 -0.2665 -0.1666 -0.0284
29741W        W46215  15.050   6.688   4.180 -0.0804  0.0219 -0.3649
29742W        W46216  10.115   7.483  11.264  0.4537 -0.1196  0.1986
29743W        W46217   3.129   5.728   2.117  0.0624 -0.1744 -0.1459
29744W        W46218   0.736   9.474  11.783 -0.0615 -0.0551  0.1747
29745W        W46219   8.478   8.890   5.945 -0.2979  0.1726  0.2658
29746W        W46220  17.695   0.236   3.271 -0.0418 -0.0923 -0.2441
29747W        W46221   5.171  12.976  13.663 -0.2194 -0.2419  0.1283
29748W        W46222   9.045   9.904   2.295 -0.2299 -0.2184 -0.1881
29749W        W46223   7.001  16.598   2.279 -0.2152  0.0459 -0.0726
29750W        W46224   7.540   8.807   0.561  0.1711  0.1252  0.2539
29751W        W46225   1.321   4.721  14.454  0.1184 -0.1206  0.2115
29752W        W46226  15.980   4.461  12.898  0.2495 -0.2017 -0.1731
29753W        W46227  10.257   3.494  15.900 -0.0242 -0.1192 -0.0887
29754W        W46228   8.343   6.664   5.778  0.1345  0.0181  0.2461
29755W        W46229  15.421  12.726   4.988  0.2315  0.0150  0.1360
29756W        W46230  10.108  13.865   4.985 -0.0336 -0.2375  0.0870
29757W        W46231   4.343  14.868  14.020  0.2558 -0.0337 -0.0719
29758W        W46232   5.271   6.243  11.227 -0.1686  0.3278 -0.0639
29759W        W46233  16.315   7.146  11.536 -0.1379 -0.0656  0.1970
29760W        W46234   6.609   6.730   2.722 -0.3115 -0.0422 -0.1714
29761W        W46235  10.560   1.806   1.736 -0.0131 -0.2193  0.0480
29762W        W46236  13.766   1.607  12.208  0.2253  0.1274  0.0743
29763W        W46237  17.186   4.657  13.902 -0.0049 -0.0415 -0.4132
29764W        W46238   6.600   9.349   4.628 -0.0376 -0.1803 -0.1641
29765W        W46239   3.802  16.410   3.545  0.0049 -0.0140  0.0329
29766W        W46240  11.209   5.928  10.137 -0.0798  0.3634 -0.1172
29767W        W46241  17.580  11.714  13.928 -0.4915 -0.1895  0.4410
29768W        W46242   2.635  17.868  15.013  0.0239  0.0862  0.1061
29769W        W46243   2.800   0.370   1.577  0.1131  0.0435  0.0971
29770W        W46244   8.119  12.117  14.825  0.1629  0.0804  0.1698
29771W        W46245  11.512   1.715  15.187  0.3254  0.0474  0.1586
29772W        W46246  18.155  10.426   3.884 -0.1462  0.0469  0.0124
29773W        W46247   3.636   5.305   0.211 -0.1476  0.0109 -0.1227
29774W        W46248  10.797   0.868   3.069 -0.1312 -0.4134  0.2148
29775W        W46249   9.419   9.627   2.131 -0.0648 -0.3123  0.1139
29776W        W46250  17.622   4.684   0.159  0.3624 -0.1312 -0.3555
29777W        W46251   4.463   3.357  13.799  0.1496  0.1466  0.1544
29778W        W46252  12.855  14.935   3.193  0.1547 -0.1259  0.0516
29779W        W46253   2.424   6.859   4.652 -0.0440 -0.0153 -0.0031
29780W        W46254   0.844   6.728  15.748  0.0059  0.0677 -0.1021
29781W        W46255  12.872   4.615   5.053 -0.0176 -0.2719 -0.0191
29782W        W46256  13.530   2.164  13.322 -0.1270 -0.2931  0.0151
29783W        W46257   0.225  13.999  13.655 -0.2266  0.2012  0.4218
29784W        W46258  11.145  15.891   5.232  0.6376  0.0294  0.0302
29785W        W46259  11.236  13.128   4.903  0.3698  0.1164 -0.0184
29786W        W46260  16.930   9.073  13.209  0.1937 -0.1002 -0.1493
29787W        W46261   5.367   2.816   4.398  0.0164 -0.1705 -0.0903
29788W        W46262  15.592   2.351  15.153  0.0359  0.1238  0.0271
29789W        W46263   7.150   9.650  13.332  0.3761  0.1983 -0.0128
29790W        W46264   0.690  12.428  13.001 -0.0407 -0.0314 -0.2596
29791W        W46265   3.038  11.473   2.607 -0.2004 -0.0543 -0.0427
29792W        W46266  12.333   7.801  14.563 -0.1281  0.0313 -0.0763
29793W        W46267  13.773  14.119   3.199  0.3474 -0.0249  0.0454
29794W        W46268   8.553  14.313   1.980  0.0514 -0.1093 -0.1410
29795W        W46269  16.274   5.720   5.539 -0.1610  0.2735  0.0733
29796W        W46270   5.927   9.722   5.172 -0.3918 -0.2629 -0.2268
29797W        W46271  18.410  17.677  11.573 -0.0852 -0.1654  0.1709
29798W        W46272  11.275   5.577  15.701 -0.4380 -0.1100 -0.0956
29799W        W46273   4.974  13.184   2.742 -0.0663  0.0839  0.1961
29800W        W46274  17.220   6.429  14.431 -0.0356 -0.1148 -0.3345
29801W        W46275   8.261  16.699  10.115  0.1615 -0.1233  0.0870
29802W        W46276  16.667  13.805  15.718 -0.0356  0.1263  0.1278
29803W        W46277   0.471   2.322  14.011 -0.1717  0.0060  0.0050
29804W        W46278   9.113   5.726   4.972  0.2685 -0.0642 -0.1649
29805W        W46279   9.034  18.011   2.105  0.0879  0.0698 -0.3301
29806W        W46280  11.454   1.399   3.090 -0.0168 -0.0553  0.0162
29807W        W46281  17.678  10.799   1.079 -0.0691 -0.0921  0.2574
29808W        W46282   7.685  14.424   4.835 -0.0499  0.0576 -0.0024
29809W        W46283  12.875  16.605  15.766  0.1895  0.0534  0.0822
29810W        W46284  16.257  13.653   5.498 -0.0118  0.0874  0.0628
29811W        W46285  16.369  14.246   2.370  0.0146 -0.0102 -0.1347
29812W        W46286   1.555  13.727   4.919  0.1296  0.2245  0.1266
29813W        W46287   8.113  13.520   2.449 -0.0977  0.0311 -0.2852
29814W        W46288  13.463   6.433   3.114 -0.0345  0.1502  0.4356
29815W        W46289   7.592  10.782   1.678 -0.0021  0.3431 -0.1263
29816W        W46290  14.627  17.719   1.839  0.4273 -0.2975  0.0491
29817W        W46291  15.753  17.693   0.859 -0.0478 -0.0278  0.0752
29818W        W46292  17.438  12.572  13.509  0.2185 -0.0291  0.0699
29819W        W46293   0.629  11.139  15.369 -0.1747  0.0100 -0.1031
29820W        W46294   9.465  17.647   4.228  0.1844  0.1904  0.1082
29821W        W46295  14.554  13.874  11.563  0.2147 -0.1868 -0.0263
29822W        W46296   2.598   2.673  12.486 -0.0500 -0.0286  0.3956
29823W        W46297   1.967   6.027  15.185 -0.0641  0.0863  0.0431
29824W        W46298   6.519   1.014   2.842  0.3134  0.0791  0.0095
29825W        W46299  15.941   1.747   3.712  0.1618  0.0081 -0.2114
29826W        W46300   5.852   2.209   1.252  0.0373 -0.2990  0.0517
29827W        W46301   3.119   9.152   1.712 -0.0937  0.1668 -0.3637
29828W        W46302   2.554   0.126   2.926 -0.1823 -0.0460 -0.2314
29829W        W46303   0.621   1.680  11.307 -0.3027 -0.0065  0.1075
29830W        W46304   4.568  10.845   0.215 -0.1715 -0.0611  0.0229
29831W        W46305  16.992  12.636   0.596 -0.0933 -0.0857  0.1169
29832W        W46306   4.019  10.596   0.579  0.1581 -0.0022  0.1549
29833W        W46307   2.409   4.088   3.167 -0.1321  0.1310 -0.2061
29834W        W46308  11.857   8.696  13.079 -0.1027  0.1645 -0.0363
29835W        W46309  11.201  10.798   1.992 -0.2756  0.3255 -0.1504
29836W        W46310  13.110   6.164   3.375 -0.0495  0.2107  0.1287
29837W        W46311  13.738  11.708  11.967 -0.2251  0.1046  0.0585
29838W        W46312  17.209   2.983  15.221  0.1786  0.3757  0.3801
29839W        W46313   8.909   8.393  14.554  0.0847  0.0876  0.0995
29840W        W46314   6.669   5.401  14.208 -0.0098  0.0081  0.0671
29841W        W46315   4.276  11.749   2.564  0.2597  0.5305  0.0494
29842W        W46316   5.150  15.422   4.575  0.1829 -0.3033 -0.1078
29843W        W46317  11.178  18.472  11.229 -0.1560 -0.1588 -0.0425
29844W        W46318   9.886  13.979   5.396 -0.2098  0.2489 -0.2890
29845W        W46319   7.895   0.800  14.597  0.0525 -0.1270  0.1101
29846W        W46320   9.444   0.276  15.407 -0.1338  0.1565 -0.3004
29847W        W46321  12.385   9.817   1.342 -0.1191  0.3583 -0.2973
29848W        W46322   6.541  15.503  12.998 -0.0779  0.2347  0.0828
29849W        W46323  13.750  11.106   0.537 -0.1210  0.1601 -0.0713
29850W        W46324   2.603  14.782   3.505  0.1978 -0.2927 -0.0304
29851W        W46325  16.610   5.135  10.181  0.0874 -0.2687 -0.0197
29852W        W46326   2.636   0.254  12.355 -0.0625  0.0850  0.1555
29853W        W46327   4.638  10.544   4.696 -0.0536 -0.2007  0.2516
29854W        W46328  10.725   0.845  11.907 -0.1888 -0.1426 -0.0727
29855W        W46329  13.066  10.384   1.742  0.3696 -0.1426  0.0426
29856W        W46330  17.270   9.500  12.555  0.3310 -0.1493 -0.4354
29857W        W46331  14.824  13.891  12.428  0.1129 -0.3726  0.0952
29858W        W46332  13.771   9.750   3.143  0.0265 -0.0780 -0.1158
29859W        W46333  10.187   9.502   0.709  0.2072  0.0365  0.3508
29860W        W46334  11.690  12.914  15.374 -0.0052 -0.0652  0.1733
29861W        W46335  14.199  16.550  13.417 -0.1167 -0.0096 -0.0637
29862W        W46336  11.012  13.315  15.889 -0.0826  0.0740 -0.1346
29863W        W46337  12.975  10.229  12.321  0.0326  0.1073  0.1323
29864W        W46338   8.764   5.074   4.937  0.2124 -0.0198 -0.0338
29865W        W46339   6.963  11.274   2.706  0.1808  0.2755  0.2281
29866W        W46340  10.612   3.190   2.093  0.1987 -0.0036 -0.2668
29867W        W46341   4.558   6.267  11.994 -0.2693 -0.2343  0.1076
29868W        W46342   7.066  10.304  11.302 -0.1100  0.0912 -0.0244
29869W        W46343   4.482   3.393   0.531  0.1027 -0.0208  0.1011
29870W        W46344   9.274   4.506   3.144  0.0311 -0.0914 -0.0698
29871W        W46345  16.053   1.538  15.220  0.1504 -0.0273  0.0806
29872W        W46346  11.755  16.911   4.457  0.0029 -0.1920  0.1569
29873W        W46347   1.173   5.482  11.590  0.1527 -0.2298 -0.0722
29874W        W46348   8.130   6.775   3.920 -0.0003  0.2504  0.0892
29875W        W46349  16.533   3.699  13.161  0.1630  0.0262 -0.0574
29876W        W46350   2.848   5.711  14.141 -0.1816  0.3033  0.1650
29877W        W46351   2.754   7.381  10.370 -0.1074  0.1081 -0.0599
29878W        W46352  12.427   0.452   3.273  0.0727  0.0438  0.0034
29879W        W46353   5.363   3.959   4.823 -0.1621 -0.0871  0.2974
29880W        W46354   2.312   9.758   3.717  0.3041  0.0813  0.0716
29881W        W46355   8.721   2.785  11.726  0.3590 -0.1646  0.1478
29882W        W46356  17.097  16.461   2.218 -0.2797  0.0517 -0.1214
29883W        W46357  17.866  12.504   0.241  0.1236  0.1676 -0.4927
29884W        W46358   4.805  10.887  13.064 -0.2321 -0.1338 -0.0200
29885W        W46359  11.363   1.805  12.317 -0.0727  0.1638 -0.1235
29886W        W46360  13.412  17.012  15.158 -0.5040  0.3850  0.1272
29887W        W46361  18.457  13.084   2.210 -0.0460  0.1580 -0.0053
29888W        W46362  14.829   6.458   2.685 -0.1356  0.3548 -0.0325
29889W        W46363  10.929  18.006  12.532  0.1171  0.0786 -0.1821
29890W        W46364   5.961   7.137   4.454  0.1050 -0.1035  0.0308
29891W        W46365   2.271   2.302  14.154 -0.0509  0.0111 -0.1455
29892W        W46366   3.686  14.280  11.230 -0.1828  0.0880  0.1010
29893W        W46367   2.494   6.432   0.016 -0.1021  0.1096  0.0875
29894W        W46368   2.792   4.056   0.384 -0.0100  0.2198 -0.1667
29895W        W46369  14.259   9.575  13.108 -0.1382 -0.0606  0.2380
29896W        W46370  10.587  15.991  13.436  0.0656  0.0432  0.0687
29897W        W46371   7.415  11.148   3.458  0.1888  0.0545 -0.0402
29898W        W46372  12.105  14.165  13.998  0.1604  0.0598  0.2280
29899W        W46373   4.177   1.249   1.334 -0.3069 -0.0031 -0.0230
29900W        W46374   3.888  12.198   0.454  0.0376  0.1029  0.0414
29901W        W46375   3.896   8.007   2.004 -0.2576  0.1375 -0.0452
29902W        W46376  15.609   4.036   3.504  0.1599 -0.2317  0.3418
29903W        W46377   7.403   8.374  12.183 -0.3884 -0.1969 -0.2063
29904W        W46378   7.705  17.030  15.345  0.1134  0.1109 -0.0659
29905W        W46379  15.474   7.377  14.994  0.1518  0.1964 -0.1540
29906W        W46380   2.331  15.340  14.630 -0.1160  0.4565  0.0454
29907W        W46381  13.237   1.524  12.174  0.0215  0.1221 -0.1153
29908W        W46382  10.042   8.284   0.238  0.0385  0.1919 -0.0709
29909W        W46383   0.367  16.244   3.617  0.0140 -0.0621  0.0708
29910W        W46384   4.439   4.089   3.955  0.2502 -0.0529 -0.0005
29911W        W46385  12.975  10.009  14.241 -0.0778  0.2162  0.1707
29912W        W46386  17.832  11.987   0.101  0.1481  0.2290  0.1126
29913W        W46387  14.116   8.913   3.477 -0.1154 -0.1130  0.1282
29914W        W46388   6.020   5.405   3.813 -0.0826  0.0189  0.2040
29915W        W46389   5.142   8.006   0.430  0.0799  0.1036 -0.1837
29916W        W46390   2.639   6.670   3.687  0.0940 -0.0393  0.2522
29917W        W46391  12.261  17.018   2.532 -0.1265 -0.0782  0.0412
29918W        W46392  16.515   7.305  13.226  0.2067  0.1912  0.0019
29919W        W46393   4.285   1.209  12.257  0.2114  0.0766  0.0574
29920W        W46394   4.650   3.593  11.101 -0.0644 -0.2909  0.0978
29921W        W46395  10.015   2.876  11.245  0.0501  0.0874  0.1816
29922W        W46396   4.088   0.550  15.409  0.3551  0.0206  0.1142
29923W        W46397   2.248   1.765  14.034 -0.3363 -0.2810  0.0156
29924W        W46398   7.676  11.281  15.240 -0.1771  0.2549  0.1867
29925W        W46399  18.072  13.650   4.644  0.3609 -0.2971 -0.0980
29926W        W46400  16.671   5.008  10.805  0.2115  0.2278 -0.1476
29927W        W46401   2.430   5.978  13.852  0.2187  0.2138  0.1013
29928W        W46402   4.950   0.280   1.861 -0.0319  0.0854 -0.2191
29929W        W46403   1.043   9.913  15.321  0.0102 -0.0727  0.1338
29930W        W46404   8.691  15.818   0.993 -0.0670 -0.1342 -0.0254
29931W        W46405   0.302   1.347  11.168  0.1534  0.0110 -0.0450
29932W        W46406   4.188  17.754   1.666  0.1562 -0.3318  0.3405
29933W        W46407   9.106   0.068  14.901  0.1512  0.2732  0.1769
29934W        W46408   5.497  14.822  11.509 -0.0233 -0.0044 -0.1882
29935W        W46409  16.306  14.476  13.226  0.2050 -0.1461  0.1577
29936W        W46410   3.702  17.173   4.233  0.2438 -0.0299 -0.0857
29937W        W46411   3.895   2.209   1.120 -0.0147  0.1183 -0.0708
29938W        W46412   9.439  12.194   2.493  0.0302 -0.0060  0.1397
29939W        W46413   3.875   8.756  15.884  0.0252 -0.0166  0.1662
29940W        W46414   2.473  15.724  13.900 -0.0074 -0.0380  0.0168
29941W        W46415  14.342  15.848   1.787  0.0295 -0.1150 -0.0897
29942W        W46416   4.494   3.113  11.288  0.1436 -0.3454 -0.0139
29943W        W46417  11.637   6.159   0.515 -0.0305  0.2396  0.2637
29944W        W46418   2.481  11.388  12.280  0.1038  0.0819 -0.2848
29945W        W46419  10.487   7.421   6.140 -0.3568  0.0202  0.0627
29946W        W46420  10.388  12.711   4.059  0.1359  0.2086 -0.1511
29947W        W46421  12.721   5.968  14.867 -0.0574 -0.2306 -0.1329
29948W        W46422   9.454  17.095   2.454  0.0856 -0.3307 -0.0779
29949W        W46423  15.906  14.921  12.756 -0.1394  0.1055  0.4956
29950W        W46424  17.411  12.659  14.932  0.1844 -0.0333  0.3447
29951W        W46425   3.528   5.772   3.954  0.1842 -0.0644  0.0233
29952W        W46426  12.183  13.715  14.625 -0.0935  0.1982  0.1143
29953W        W46427  10.475  16.055   1.955  0.1972  0.0355  0.3060
29954W        W46428  17.039   8.405   3.310 -0.0815 -0.0434 -0.4042
29955W        W46429  17.807  14.249  10.162  0.2472 -0.0760 -0.1386
29956W        W46430  11.159  17.482   0.308  0.1022 -0.0168  0.2072
29957W        W46431   1.360  11.953  13.010 -0.1350  0.0520  0.0918
29958W        W46432  12.870   8.998   0.674  0.0195 -0.1591 -0.0616
29959W        W46433  17.415  13.686   4.742 -0.0257  0.4071  0.0173
29960W        W46434  10.416   0.128  14.596 -0.1553 -0.2476  0.1483
29961W        W46435  15.124   9.572  15.407  0.2755 -0.1999 -0.1026
29962W        W46436  10.043   0.763   4.188 -0.1014 -0.1468  0.3593
29963W        W46437  17.940   6.040  11.415  0.1541  0.0167 -0.1099
29964W        W46438   6.453  11.366   4.259 -0.1499 -0.1481 -0.0390
29965W        W46439   6.540   3.859   1.644  0.0388 -0.0724  0.0105
29966W        W46440   7.712   1.538  15.194  0.1127 -0.0641 -0.2934
29967W        W46441  10.867   7.356  13.228  0.1837  0.1155 -0.0520
29968W        W46442  15.079   1.376   3.524 -0.0556 -0.2100  0.0499
29969W        W46443  13.354  11.745   2.610 -0.2313 -0.1538  0.4332
29970W        W46444  15.775   3.637  13.308 -0.2426 -0.1605 -0.0508
29971W        W46445   5.220  17.125  13.485 -0.0335  0.0817 -0.0521
29972W        W46446   3.938   1.219   0.803  0.0437 -0.0305 -0.1292
29973W        W46447   0.680   8.781  14.322  0.3677  0.1801 -0.3093
29974W        W46448   7.393   0.003  13.788  0.0866  0.0621  0.0226
29975W        W46449   9.823  15.167  14.120  0.0809 -0.0376 -0.1063
29976W        W46450   7.238  10.372   4.167  0.2053  0.1938  0.1049
29977W        W46451  11.615  17.523  12.292  0.2452  0.0146  0.1316
29978W        W46452   9.966  17.113  12.983  0.2726 -0.2067 -0.4394
29979W        W46453   0.012   8.553   1.628 -0.0764 -0.1638 -0.1653
29980W        W46454  16.074   6.565   0.955 -0.1294  0.0802  0.3736
29981W        W46455   3.970   7.156  11.275 -0.0048 -0.0351 -0.1502
29982W        W46456   5.226   0.341   1.002  0.1132 -0.0608 -0.3967
29983W        W46457  11.144   4.618   4.619 -0.0671  0.0347 -0.0879
29984W        W46458  11.424  15.289   1.086 -0.0580  0.2911 -0.0900
29985W        W46459   5.141  15.850   0.410  0.0847  0.1735  0.2004
29986W        W46460   3.563  14.755   5.057  0.0665 -0.3381  0.0900
29987W        W46461  13.571  17.448   3.593 -0.3443  0.2102 -0.0222
29988W        W46462  13.676   7.755   1.487 -0.2088  0.0599  0.3228
29989W        W46463   6.198  12.828   0.566 -0.1389 -0.2350  0.1951
29990W        W46464   6.924  11.213   4.312 -0.0661 -0.1498  0.0419
29991W        W46465   9.727   2.463  10.486 -0.1735 -0.2416 -0.2292
29992W        W46466   4.948  12.433   3.939 -0.1050  0.1132 -0.3954
29993W        W46467   7.573   1.660  15.747  0.1463  0.2491 -0.1858
29994W        W46468  15.246  15.105   2.691  0.0953 -0.0874  0.0979
29995W        W46469  10.290   9.679   2.600  0.1333 -0.0487 -0.2218
29996W        W46470   0.193  11.354   2.621 -0.1601 -0.0133  0.1050
29997W        W46471   4.957   7.523  11.122  0.0635 -0.0612  0.1033
29998W        W46472   5.432  12.055  15.649 -0.4078 -0.1248  0.0172
29999W        W46473  18.405  11.843  11.378 -0.0263  0.3895 -0.2409
30000W        W46474  13.693   8.514   5.144  0.3697  0.0185 -0.2408
30001W        W46475   7.918   1.351   2.206  0.0265 -0.3006  0.2363
30002W        W46476   1.596  13.508   3.731 -0.1712 -0.2223  0.4426
30003W        W46477  16.830   4.881   3.377 -0.1843  0.1881 -0.1627
30004W        W46478   1.270   2.544   3.361 -0.1378  0.0056  0.0994
30005W        W46479  10.676   3.717  13.303 -0.0001  0.4158 -0.0060
30006W        W46480   9.170   7.182   1.476  0.1691  0.0606  0.2692
30007W        W46481   1.207   8.119  14.666 -0.2515  0.2128  0.1284
30008W        W46482  14.158  17.459  11.269 -0.2045  0.1859  0.1792
30009W        W46483   4.693  10.068   0.950 -0.0895  0.2898  0.1292
30010W        W46484  11.739   4.194   3.879  0.2636  0.1527 -0.1240
30011W        W46485   7.462  16.683  15.777 -0.0584 -0.1765 -0.0445
30012W        W46486   7.655   4.483  13.220 -0.3317 -0.2140 -0.1460
30013W        W46487   1.104   6.696   2.849 -0.1266  0.0403 -0.1162
30014W        W46488  16.737   1.978   4.546 -0.1030  0.0211 -0.2576
30015W        W46489   7.117  11.823  15.532  0.1744 -0.1521  0.1352
30016W        W46490   3.086   1.550  12.065 -0.1645  0.2026 -0.0097
30017W        W46491  13.342  12.002   3.355 -0.2680 -0.2352  0.2209
30018W        W46492  18.181  14.111  12.568  0.1158 -0.2289 -0.1557
30019W        W46493   2.145   1.995   2.063  0.1706 -0.2685 -0.2173
30020W        W46494  16.647   2.232  14.000 -0.3163 -0.4181 -0.1760
30021W        W46495  18.349   8.583   2.656 -0.0474  0.0388  0.0426
30022W        W46496   0.069   6.317  15.725  0.0484  0.2270 -0.1232
30023W        W46497   3.993   1.212  11.862 -0.0939 -0.0959 -0.1264
30024W        W46498  12.513  10.771   0.012 -0.1210  0.1780 -0.0749
30025W        W46499   8.471  14.676  14.279  0.3642 -0.0187 -0.2119
30026W        W46500   8.787   0.238  15.328  0.1388  0.2161  0.0499
30027W        W46501  14.883   9.207  11.134  0.4500  0.2220  0.2117
30028W        W46502   3.921   2.336   2.915  0.0790  0.0365  0.2210
30029W        W46503   0.276   1.688  14.430 -0.0964  0.0923 -0.1431
30030W        W46504   6.224   8.200   1.497  0.0769 -0.0546 -0.0197
30031W        W46505   9.052   9.712   1.724  0.2413  0.2009  0.1092
30032W        W46506  13.627  15.960  15.669  0.2735  0.0306  0.2801
30033W        W46507   0.693   8.262  12.608  0.1873  0.1066 -0.0503
30034W        W46508   3.661  11.352  14.813  0.2121 -0.0921 -0.3462
30035W        W46509  16.870   3.492   1.448  0.1347 -0.0335  0.2834
30036W        W46510  13.011   8.529  14.399  0.3259 -0.0897  0.3125
30037W        W46511  17.611   1.196  15.040  0.0798  0.1971 -0.0286
30038W        W46512  14.582   2.999   3.846  0.0722  0.1711  0.2352
30039W        W46513  12.629   4.570   1.254 -0.0857 -0.1763 -0.1149
30040W        W46514   6.701  11.480  12.314  0.4629 -0.0043  0.1222
30041W        W46515   4.348  10.994  13.157 -0.2249  0.0604 -0.0185
30042W        W46516  12.543   5.444  15.382 -0.0547  0.1293 -0.1410
30043W        W46517   9.476  14.692  12.907  0.1084  0.2424  0.1615
30044W        W46518  12.145   0.462  15.669  0.2531  0.0616  0.0342
30045W        W46519  15.904   3.873  15.442 -0.0073  0.4289  0.3146
30046W        W46520  11.936   6.058  12.591 -0.2680 -0.0514  0.0531
30047W        W46521   3.185  15.092   5.237  0.2553  0.0211 -0.1248
30048W        W46522   6.792   5.014  15.672  0.1865 -0.1403  0.1013
30049W        W46523  10.021  10.785  15.498  0.0435 -0.0596  0.0477
30050W        W46524   4.354  15.596   0.568 -0.0288  0.1183  0.1681
30051W        W46525   2.421   6.825   1.558  0.3417 -0.0088 -0.2117
30052W        W46526   7.132   1.351   1.354 -0.1140  0.0274 -0.2347
30053W        W46527   8.419  16.780  13.808  0.1972 -0.1937  0.1505
30054W        W46528   1.085  13.733   0.444 -0.0128 -0.2808 -0.1212
30055W        W46529   6.926  18.111   3.227  0.0055 -0.4060 -0.1899
30056W        W46530   9.375  13.995   2.547  0.1192  0.3068 -0.1314
30057W        W46531  17.401   2.375   2.291  0.2314  0.1436 -0.3378
30058W        W46532   8.274  10.087  13.954 -0.1407  0.0805  0.0351
30059W        W46533  11.970   2.786  11.541  0.1641  0.0955  0.0374
30060W        W46534   7.294  15.409  15.031 -0.0537 -0.1526 -0.0094
30061W        W46535   4.974  15.687  14.864  0.1236  0.0434 -0.1324
30062W        W46536   1.908  13.374  12.998 -0.0432 -0.3627 -0.4990
30063W        W46537  14.655   3.445   4.538 -0.2720 -0.2094  0.1797
30064W        W46538   1.263   3.180   0.202  0.2878  0.0117 -0.3781
30065W        W46539   2.989  16.546   1.275 -0.0920  0.2539 -0.3425
30066W        W46540   2.325   3.082   5.860 -0.0132 -0.5296  0.0644
30067W        W46541   9.460   7.691   2.307 -0.2081  0.1029 -0.0385
30068W        W46542  12.081  10.842  14.356  0.5093 -0.3756 -0.2089
30069W        W46543   7.113  13.538   1.378  0.3367  0.2231 -0.2712
30070W        W46544   2.422  16.060   1.044 -0.4330 -0.0672 -0.0858
30071W        W46545  15.247   3.083   2.111  0.0077  0.0365 -0.1370
30072W        W46546   7.756  14.650   4.093 -0.1740 -0.1756  0.0905
30073W        W46547  14.315   1.027   0.890  0.4581  0.0601 -0.3632
30074W        W46548   0.542   4.992   3.748  0.0559 -0.0373  0.1105
30075W        W46549   9.714   0.582   1.809 -0.0073 -0.2573  0.1259
30076W        W46550   3.277  12.717   2.539  0.2164  0.3525 -0.1338
30077W        W46551  16.623  12.044   4.392 -0.2323  0.0784  0.2060
30078W        W46552   3.728  14.749  11.570  0.2409 -0.0453 -0.1092
30079W        W46553   4.719   0.054   2.794  0.0612  0.2163  0.0420
30080W        W46554   9.119  15.585  13.673 -0.0909  0.3637 -0.0270
30081W        W46555  11.872  12.415   3.231  0.3778 -0.1835  0.0324
30082W        W46556   1.245  15.917  14.350  0.1952 -0.0906  0.0422
30083W        W46557  12.207  17.301   3.683 -0.0928  0.2473  0.1111
30084W        W46558   4.511   3.545   3.970 -0.1904  0.0339  0.1600
30085W        W46559   1.229   1.651   3.383 -0.0720 -0.0835 -0.0718
30086W        W46560  17.793  17.744   5.357 -0.0654 -0.2389  0.3073
30087W        W46561  13.260   9.012  15.318  0.0087 -0.1234 -0.2957
30088W        W46562  12.235   5.440  14.380  0.1620 -0.1241 -0.3113
30089W        W46563   7.601   6.343   4.890 -0.1448 -0.1650 -0.0961
30090W        W46564   2.588  18.273  13.876 -0.1382  0.1656  0.0845
30091W        W46565  14.985   2.158   3.051  0.1031  0.3027 -0.0225
30092W        W46566  10.137   9.977  15.891 -0.1439  0.0013  0.1921
30093W        W46567   6.426   8.594  12.405  0.1831 -0.2896  0.0324
30094W        W46568  17.591  12.047  15.564  0.2141 -0.1746  0.2803
30095W        W46569   5.452  12.053   0.270 -0.0200 -0.2569  0.0444
30096W        W46570   1.617   8.212   4.587  0.0576 -0.5212  0.0136
30097W        W46571   4.156   8.973   3.580 -0.1261  0.0269 -0.4515
30098W        W46572  16.129  15.347   6.078  0.1640  0.0170  0.0732
30099W        W46573  15.679  15.648   6.163  0.0970 -0.0756  0.0788
30100W        W46574   1.270   1.243  15.579  0.2571  0.1364  0.0472
30101W        W46575  13.555   6.646  11.946  0.0977 -0.0592  0.2005
30102W        W46576  12.667  17.746  13.726  0.1048 -0.0002 -0.0257
30103W        W46577  17.141  17.519  15.700 -0.0258 -0.1292 -0.2188
30104W        W46578   2.098  12.863   5.192 -0.1598  0.0975  0.0856
30105W        W46579   0.438   1.745   2.626 -0.0812  0.2320 -0.0365
30106W        W46580   2.981  16.580   2.807 -0.0592  0.2911 -0.0099
30107W        W46581  15.994   3.577  14.053 -0.0643 -0.1111 -0.2517
30108W        W46582  17.828   7.188   3.124 -0.2738 -0.0191 -0.0878
30109W        W46583  14.595  12.891  12.359 -0.1408  0.0149 -0.0014
30110W        W46584   6.089  17.685   3.019 -0.2176 -0.1533 -0.2493
30111W        W46585   8.389   7.646   5.242 -0.0121 -0.0442  0.0467
30112W        W46586   3.760  13.212  13.367 -0.2204 -0.2161  0.0406
30113W        W46587   8.415  16.181   0.242  0.3287 -0.0042  0.1737
30114W        W46588  14.798  11.255  14.479 -0.3486  0.1560 -0.0935
30115W        W46589   4.329  10.102   1.351  0.0990 -0.1711  0.4371
30116W        W46590  14.867  10.773   5.407 -0.1714  0.0012  0.1054
30117W        W46591   2.587  10.088   9.827  0.0570 -0.1000  0.2016
30118W        W46592   8.557  18.087  10.444  0.3061  0.2619 -0.0397
30119W        W46593   6.222   2.578  12.672 -0.4059  0.2080  0.0302
30120W        W46594   1.468   2.219  12.624 -0.2348 -0.1574  0.0896
30121W        W46595   8.809   7.819   5.072  0.1095 -0.1053 -0.4175
30122W        W46596   0.263   5.499  13.337  0.0626  0.1717 -0.2326
30123W        W46597  15.172  17.595   0.151  0.1861 -0.1033 -0.2669
30124W        W46598   7.034   9.159  11.449  0.1594  0.0400  0.4849
30125W        W46599  14.975   3.771  12.171  0.0605 -0.0262 -0.1607
30126W        W46600  12.629  13.056  12.665  0.1257 -0.0791 -0.2383
30127W        W46601   0.192   5.983   3.442  0.0232  0.1413 -0.1140
30128W        W46602  11.517   4.537  13.302 -0.0404 -0.0709  0.2160
30129W        W46603  11.350   4.554  14.745 -0.0885  0.5191  0.0103
30130W        W46604   4.253   9.007   4.064 -0.1110  0.0498 -0.1522
30131W        W46605  13.953   3.614  14.508  0.1441 -0.0194 -0.1671
30132W        W46606  14.392   4.250   1.738 -0.3357 -0.2456  0.0616
30133W        W46607   8.470  14.044   5.280  0.0787 -0.2375  0.1466
30134W        W46608   6.574   2.255  12.471  0.1436  0.1884  0.1715
30135W        W46609   4.787   6.609   1.810 -0.1371 -0.1796 -0.0643
30136W        W46610   2.899  15.426   2.267  0.0568 -0.4241  0.0110
30137W        W46611   2.923  15.382  11.186 -0.3218  0.1133  0.0637
30138W        W46612  13.912  13.901  11.962 -0.0214 -0.1542 -0.1675
30139W        W46613   1.465  14.842  14.528  0.0542  0.1020  0.2085
30140W        W46614   0.632   9.037   2.745 -0.0639  0.1794 -0.0836
30141W        W46615   3.426  11.553   1.154 -0.1870 -0.3552 -0.3133
30142W        W46616   5.743   2.103  12.066  0.0150  0.1003  0.0030
30143W        W46617   2.978   1.821  12.868  0.0507  0.1184 -0.0201
30144W        W46618  18.240  14.249   5.165  0.1243 -0.0466 -0.1767
30145W        W46619   8.081   0.964   6.036  0.1748  0.1335  0.1917
30146W        W46620  13.801  17.008  11.502 -0.1394  0.1643 -0.3011
30147W        W46621   1.883  10.933   1.843 -0.1816  0.2605  0.1326
30148W        W46622   2.817   0.119  14.713  0.2868 -0.1042 -0.0966
30149W        W46623   2.856  18.188  12.084  0.0583 -0.1155 -0.2855
30150W        W46624   4.777   5.895  11.687  0.3018  0.2036 -0.1042
30151W        W46625   3.570   4.866  12.079  0.1780 -0.0318  0.0744
30152W        W46626   0.875  10.194   2.017  0.0393  0.0313 -0.1966
30153W        W46627   7.018   9.065  14.502 -0.1438  0.2650 -0.1109
30154W        W46628  14.773  16.001   3.474 -0.1474 -0.0306 -0.0466
30155W        W46629   9.077   0.139  10.829 -0.0743  0.1854 -0.0383
30156W        W46630   9.136  12.959  10.769  0.2043 -0.0575 -0.1039
30157W        W46631  18.230  10.007  12.641  0.1380 -0.1598 -0.0494
30158W        W46632  12.463   4.486   4.803 -0.0488 -0.0904  0.0103
30159W        W46633  16.296   4.307  11.652 -0.3391 -0.1355 -0.0695
30160W        W46634   5.877   2.033  15.003  0.1930  0.1797  0.1560
30161W        W46635   3.260   2.745   5.201  0.3220  0.1435  0.1769
30162W        W46636  17.367   6.015  11.536  0.1740  0.1524  0.1404
30163W        W46637  10.305   4.572  12.322 -0.2859 -0.0448  0.0130
30164W        W46638   9.746   4.097  13.029  0.3526 -0.0365  0.1077
30165W        W46639  10.574   4.598   1.758 -0.0084 -0.2702 -0.1971
30166W        W46640   5.387   5.604   3.119 -0.1447 -0.0845  0.0213
30167W        W46641  17.655   8.152  14.090  0.3628  0.2226 -0.0379
30168W        W46642   8.968   6.601   2.829 -0.0527 -0.2567  0.1699
30169W        W46643  16.150  13.741  13.281 -0.2563  0.3297  0.2622
30170W        W46644  17.113   9.940   2.719 -0.0071 -0.1193  0.6301
30171W        W46645   5.873  13.612  14.141  0.1415 -0.2531 -0.0957
30172W        W46646  16.926   2.588  14.226 -0.0746 -0.3557  0.0498
30173W        W46647   3.701   3.855  11.991  0.2009  0.0146 -0.2757
30174W        W46648   5.203   8.876  15.215  0.0393 -0.0130  0.2503
30175W        W46649   0.144  10.463  14.997 -0.0270 -0.1410  0.0301
30176W        W46650   7.817  17.002   4.945 -0.0040  0.3249  0.1747
30177W        W46651  10.403  14.728   5.299 -0.2477  0.1333 -0.1576
30178W        W46652   3.404  15.319  13.628  0.0179 -0.3271 -0.0713
30179W        W46653   4.945   5.536  14.243 -0.1854 -0.0973 -0.0064
30180W        W46654  14.454  13.615   4.835  0.1381 -0.0148 -0.2879
30181W        W46655   0.371  12.085   5.550 -0.1252  0.1358 -0.1024
30182W        W46656  15.123   3.165  11.005 -0.1509  0.1399  0.3566
30183W        W46657  11.747   6.977  12.241  0.0779  0.1285 -0.2262
30184W        W46658   3.106  10.884   3.701 -0.0137 -0.0898  0.1155
30185W        W46659  10.540   4.191   2.168  0.0407 -0.3796  0.1556
30186W        W46660  12.965   6.795   0.053 -0.0421  0.2056  0.0105
30187W        W46661   4.831  15.656   0.710  0.0271 -0.1678 -0.2173
30188W        W46662   5.687  10.573  12.798 -0.1182  0.0326 -0.2401
30189W        W46663   0.266  10.112   4.468  0.1429 -0.1349 -0.0447
30190W        W46664   9.095   8.926   3.927 -0.0258 -0.0793  0.1174
30191W        W46665   2.630   6.385  11.365  0.0272 -0.0958  0.0423
30192W        W46666   0.870  11.296   5.650  0.1332 -0.2279  0.0331
30193W        W46667   4.733   2.749   1.768 -0.1864 -0.1901  0.0858
30194W        W46668   2.772  15.425  13.333 -0.0111  0.0934 -0.0171
30195W        W46669   6.148  15.357  15.869  0.3093  0.0851  0.3314
30196W        W46670  17.465   9.158  13.632  0.1511  0.0999 -0.0267
30197W        W46671  15.888  16.452  11.632  0.4270 -0.2128  0.1797
30198W        W46672  10.179  13.502  11.467 -0.0563  0.4267 -0.1777
30199W        W46673  17.637  13.571   5.731 -0.1705 -0.0073 -0.0033
30200W        W46674   7.703  14.496  14.887 -0.0359  0.4098  0.3956
30201W        W46675   1.265   7.888   5.888 -0.0390 -0.1742 -0.3641
30202W        W46676   9.146   8.411   5.420  0.0933  0.0282 -0.2517
30203W        W46677   3.104  10.685  15.252 -0.0420 -0.3279 -0.0618
30204W        W46678   3.730  15.783  15.573  0.0955  0.4089 -0.0045
30205W        W46679   3.406   0.112  12.222 -0.2079  0.0132 -0.2430
30206W        W46680  14.117   6.972  14.041 -0.2674 -0.0659 -0.0840
30207W        W46681   3.522   1.534   3.508  0.0857  0.4424  0.1660
30208W        W46682  15.977  11.542   4.865 -0.0795 -0.0977 -0.2272
30209W        W46683  11.979  18.339   4.965 -0.2461 -0.1109  0.1196
30210W        W46684   6.872   4.344   2.199  0.1976  0.0407 -0.2396
30211W        W46685   8.729  10.040  13.659  0.2194  0.0845  0.0067
30212W        W46686   7.590  14.614   3.569  0.0275 -0.3035  0.1861
30213W        W46687   3.094  14.905  15.230  0.1170  0.0140  0.3197
30214W        W46688   4.453   3.876   2.763 -0.0361  0.1637  0.0081
30215W        W46689  15.758   4.688   0.362  0.0773 -0.1156 -0.1468
30216W        W46690  16.258  11.444  15.547 -0.2273  0.0265  0.0552
30217W        W46691   6.246  11.241  14.251  0.0642 -0.0426 -0.2477
30218W        W46692   2.273  12.939  15.164 -0.3412 -0.0797 -0.1990
30219W        W46693  13.882   8.234   5.993 -0.1634 -0.1286  0.1976
30220W        W46694  11.138   4.929   4.201 -0.0767 -0.1429 -0.0787
30221W        W46695  14.806   8.211  13.075 -0.1123  0.1475 -0.1816
30222W        W46696   4.040  13.343   3.751 -0.0214 -0.5351  0.2737
30223W        W46697  14.412  12.228   4.901 -0.2553  0.1061  0.1259
30224W        W46698   8.012   3.936   4.623 -0.2313 -0.3105  0.0422
30225W        W46699  10.675   4.952   4.666  0.1793  0.1911  0.2057
30226W        W46700   3.312  11.263   3.970 -0.2252  0.1510 -0.0560
30227W        W46701   0.921   8.694  12.689 -0.1718  0.3058  0.2477
30228W        W46702   8.335   5.156  11.628 -0.0934 -0.0003  0.1703
30229W        W46703   0.392  14.198   1.130  0.2312 -0.0056 -0.1932
30230W        W46704  12.867   6.703   3.475  0.1694 -0.0671 -0.0853
30231W        W46705  16.243   6.889   3.739  0.0044 -0.4128  0.5631
30232W        W46706   0.035   6.028  12.221 -0.1831 -0.3401  0.1153
30233W        W46707   4.712  13.163  14.517 -0.0735  0.0578 -0.2575
30234W        W46708   9.444   2.573   0.734 -0.0485 -0.0314 -0.1454
30235W        W46709   0.764   0.614   0.497  0.1274  0.1982  0.1326
30236W        W46710   2.019  17.760  13.578 -0.0898 -0.1374  0.0631
30237W        W46711   1.550   3.382   3.820  0.0540 -0.1414  0.2250
30238W        W46712   4.440   4.752   4.400 -0.1917  0.0029 -0.1605
30239W        W46713   9.084  17.479  12.373 -0.2554  0.0778  0.1155
30240W        W46714   6.631   2.847   3.274  0.2829 -0.2120 -0.1984
30241W        W46715   1.695   6.613   2.190  0.0052 -0.2619 -0.5401
30242W        W46716  14.771   0.250  15.605 -0.0800 -0.1148 -0.0390
30243W        W46717   6.397   4.550  13.848 -0.1655 -0.1580  0.1032
30244W        W46718  13.588   4.245  14.788  0.1808  0.0652  0.1582
30245W        W46719   2.520  15.122  11.359  0.0717  0.2445 -0.1563
30246W        W46720  18.297   5.650   4.455 -0.0238  0.2979  0.2196
30247W        W46721   3.166  15.427  15.128  0.0434  0.1002 -0.0061
30248W        W46722   3.005  13.344   3.258  0.0118  0.1421 -0.3925
30249W        W46723  17.350  11.274   4.621  0.2066 -0.2495  0.1025
30250W        W46724   3.281  14.381   0.297  0.1444 -0.0782 -0.0844
30251W        W46725   9.250   6.675   1.588 -0.2167 -0.4541 -0.3007
30252W        W46726  14.926  18.424  12.660 -0.1662 -0.1311  0.3341
30253W        W46727  10.326  13.298   4.963  0.0716  0.2117  0.1153
30254W        W46728  18.179  13.872   0.575 -0.1754  0.2392  0.1359
30255W        W46729  17.438   2.346  13.687  0.1715 -0.2339  0.1704
30256W        W46730   0.327   0.245   5.199 -0.0609 -0.0392 -0.0032
30257W        W46731   3.318   3.326  15.902 -0.1740 -0.1915  0.3270
30258W        W46732   3.623   4.459  11.722  0.0156  0.0478  0.1854
30259W        W46733   9.857  13.669   1.578 -0.4542  0.0955 -0.3361
30260W        W46734   5.804   1.116   1.102 -0.1224  0.0015 -0.0095
30261W        W46735   8.894   8.869   1.981 -0.0618 -0.1546  0.0348
30262W        W46736   4.602   6.431  14.129 -0.3998 -0.0556 -0.0831
30263W        W46737   0.252   5.528   3.622 -0.0331  0.0456  0.1849
30264W        W46738   8.940   9.894  12.846 -0.3037 -0.3062  0.1248
30265W        W46739   2.390   0.251  15.451  0.1684 -0.2436  0.0176
30266W        W46740  15.999   8.652  14.983  0.0676 -0.1273  0.2426
30267W        W46741  13.411   7.040  11.642  0.0736 -0.1486  0.0218
30268W        W46742   1.878   8.219  14.406 -0.2346  0.1689 -0.2303
30269W        W46743   9.150   6.228  15.459 -0.1735 -0.0925  0.1230
30270W        W46744   0.551   3.862  12.003 -0.1225  0.0992  0.4513
30271W        W46745  14.767  16.649  15.953  0.0537  0.0490  0.3249
30272W        W46746  10.886  12.546   2.923 -0.3377 -0.1428 -0.0746
30273W        W46747  14.600  17.449   1.005  0.3244  0.1985  0.0959
30274W        W46748  16.215  15.689   0.887 -0.0364 -0.2486 -0.2286
30275W        W46749   5.422  13.981   0.477  0.0049 -0.0997 -0.3247
30276W        W46750   8.255   0.073   5.704  0.1915  0.0343  0.2278
30277W        W46751  13.778  14.719   5.621  0.0121 -0.0689  0.1416
30278W        W46752   9.835   0.428   3.838  0.2749 -0.0711 -0.1372
30279W        W46753  14.627  11.767   5.498  0.0979 -0.1974 -0.0980
30280W        W46754  17.406  13.540  13.508 -0.2294 -0.0647 -0.2123
30281W        W46755   2.140   3.085  12.145  0.0323 -0.0602  0.1127
30282W        W46756   3.494   7.593   4.707  0.0306 -0.3159  0.0996
30283W        W46757   2.029  11.792  11.326 -0.1743  0.1008  0.4025
30284W        W46758   8.707  10.521  15.242  0.0056 -0.0229 -0.0564
30285W        W46759  11.800  14.545   4.178 -0.0252 -0.1129 -0.2056
30286W        W46760  13.339   2.444  14.103  0.0177  0.1315  0.2076
30287W        W46761   9.045  15.937  15.575 -0.1411 -0.0919 -0.0457
30288W        W46762  15.381  11.702   2.349 -0.0739 -0.2965  0.3837
30289W        W46763   7.499   3.404   0.577 -0.1124  0.0869  0.0379
30290W        W46764   2.201   2.435   4.090 -0.3396  0.1475 -0.1292
30291W        W46765   6.409   1.673   0.683  0.1276  0.0607  0.3280
30292W        W46766  14.149   7.133   3.228  0.0273  0.2654  0.0924
30293W        W46767   2.335  17.350  14.813  0.1115 -0.2581  0.2396
30294W        W46768  17.669   7.824   0.203  0.1332 -0.0601 -0.0581
30295W        W46769   6.804  11.846   2.452 -0.0834  0.5514 -0.1812
30296W        W46770  14.273  11.169  13.084  0.0085  0.0555 -0.0203
30297W        W46771   1.218  12.227  11.095 -0.1241 -0.2657 -0.2088
30298W        W46772  16.411  10.859  15.368 -0.2813 -0.2407 -0.1430
30299W        W46773  15.728  15.893  15.058  0.0894 -0.0627 -0.0681
30300W        W46774  16.737   9.156   1.970 -0.0491  0.2740  0.1721
30301W        W46775  12.528   0.360  12.850 -0.1161  0.2712  0.1909
30302W        W46776   7.573  11.760  15.655  0.0223 -0.4101  0.0238
30303W        W46777  14.506   5.707   0.988 -0.1990 -0.1719  0.1440
30304W        W46778   8.510  10.671  14.364 -0.0238  0.1074  0.0300
30305W        W46779  17.748  13.353  15.756  0.2179  0.0289  0.1926
30306W        W46780   8.148   3.633   0.145 -0.0569 -0.0573  0.3367
30307W        W46781   2.834   5.932   5.040  0.2057 -0.2207 -0.2141
30308W        W46782  13.495  17.427  14.867 -0.1005  0.0974  0.2671
30309W        W46783   9.714  12.456   2.126 -0.3557 -0.0063  0.0395
30310W        W46784  13.346  14.242   1.750  0.0502  0.1921  0.0336
30311W        W46785  11.953   8.430   1.047 -0.2412 -0.0390  0.0256
30312W        W46786  14.751  17.506  14.027  0.0180  0.3075 -0.1044
30313W        W46787  11.598  14.845  13.774 -0.1631 -0.0319 -0.1557
30314W        W46788  13.997   2.759  10.311 -0.2024 -0.0531 -0.1361
30315W        W46789   2.324  12.038   1.709  0.0388  0.0373 -0.2462
30316W        W46790   0.575  13.539   3.546 -0.1151  0.0931  0.0626
30317W        W46791   6.759  12.731  15.181  0.0024  0.4999 -0.1829
30318W        W46792  13.597  14.367   4.429 -0.1660 -0.0826  0.0768
30319W        W46793  13.580   0.548  13.570  0.1976  0.2706 -0.2283
30320W        W46794   4.126  13.081  14.458 -0.0005 -0.3572 -0.2126
30321W        W46795  16.008  14.383  15.316 -0.0247 -0.2115 -0.0545
30322W        W46796  13.784  12.487   3.005  0.0008  0.0149 -0.0144
30323W        W46797   0.156  10.270  12.571 -0.0828 -0.0976  0.0463
30324W        W46798   1.353  11.353   0.760  0.1417  0.1472  0.2515
30325W        W46799   7.420  16.660  11.239 -0.1401  0.1045 -0.1756
30326W        W46800   9.408   0.088   1.935 -0.1031 -0.0728 -0.4410
30327W        W46801   5.626   5.155  11.935  0.0612 -0.2105 -0.1220
30328W        W46802  17.612  18.094   5.023  0.0089 -0.0481  0.0986
30329W        W46803   2.879   4.494   0.039 -0.1310 -0.0160  0.2920
30330W        W46804  12.528   1.276   3.084  0.0665  0.0968  0.1249
30331W        W46805  12.032   6.868  14.308 -0.3956 -0.0477 -0.0969
30332W        W46806  13.903   3.622   3.960 -0.0233 -0.0252 -0.2180
30333W        W46807  14.095   4.482  14.543 -0.3790  0.0681  0.0151
30334W        W46808   3.238  18.362   3.804 -0.1478  0.0712  0.1444
30335W        W46809   8.088  10.147   2.134 -0.1621  0.2829 -0.2314
30336W        W46810   5.014  11.310  12.794 -0.0310 -0.0114  0.0298
30337W        W46811   2.137   4.747  12.820  0.3780  0.0538  0.0431
30338W        W46812  10.212   2.930   2.375 -0.0304  0.1963 -0.0470
30339W        W46813   8.719   7.922   3.274  0.0965  0.0512  0.2658
30340W        W46814   0.054  13.899  11.169  0.1032  0.4423 -0.1037
30341W        W46815   5.836   3.680   1.193 -0.0187 -0.1729 -0.3048
30342W        W46816  17.230  17.136  15.408  0.2049  0.0273 -0.0142
30343W        W46817   1.592  11.678   4.148  0.2098 -0.0133  0.0977
30344W        W46818   7.467   3.840  12.651  0.4179  0.2701  0.0445
30345W        W46819   9.993  14.897   2.788  0.0450 -0.1469  0.1022
30346W        W46820   3.573   4.006   3.698 -0.2387 -0.4385 -0.1948
30347W        W46821   8.561   3.131   3.687  0.3590 -0.0064  0.0806
30348W        W46822  18.147   0.265   2.290  0.1227  0.0181  0.4304
30349W        W46823  11.885   9.634  12.179 -0.0846 -0.0717 -0.0726
30350W        W46824  12.477  12.804   0.079 -0.0710 -0.0391  0.1704
30351W        W46825   6.714  12.638   4.307  0.0650  0.3388 -0.0711
30352W        W46826  11.729  12.346   4.887  0.2334 -0.1923  0.2167
30353W        W46827  17.587   9.292   4.202  0.3046 -0.2240  0.1069
30354W        W46828  10.686  15.837  13.943 -0.2635 -0.0919 -0.2266
30355W        W46829   3.096  14.345   4.209  0.1990 -0.2935  0.1431
30356W        W46830  17.421   4.803  14.368 -0.2659  0.1395 -0.0307
30357W        W46831  12.107   2.703   1.618 -0.0918 -0.2142 -0.3250
30358W        W46832   8.494  16.303   3.734 -0.1400 -0.1157  0.2225
30359W        W46833  11.689  12.416  12.800 -0.0795  0.0665 -0.1358
30360W        W46834   1.136   0.440  12.895  0.1718 -0.0355  0.0603
30361W        W46835   5.933   7.218  11.096 -0.2500  0.1262  0.1350
30362W        W46836   8.743  14.137   2.934  0.0341 -0.1645  0.1549
30363W        W46837  11.714  15.834   1.770  0.2147  0.0051  0.1221
30364W        W46838   7.621   3.373   5.676 -0.1409 -0.0092  0.1852
30365W        W46839  10.575  15.483  13.531 -0.4861 -0.2603  0.1590
30366W        W46840   9.457   0.394  10.725 -0.0201  0.0798  0.0487
30367W        W46841  18.445  16.282   4.489 -0.2184 -0.4111 -0.0393
30368W        W46842  13.910  15.964   2.059 -0.1209  0.0028  0.0492
30369W        W46843   0.537   3.039   3.090 -0.0701  0.4253  0.0350
30370W        W46844   9.538   6.374   5.388  0.1458  0.0632 -0.0530
30371W        W46845   8.807   0.570   4.234  0.2796  0.0233  0.2568
30372W        W46846  13.571   7.711  14.132  0.0891 -0.1915 -0.0001
30373W        W46847   9.339   3.875  11.013  0.1912 -0.1564  0.1864
30374W        W46848  18.132   6.409  11.805  0.0954 -0.1580  0.0299
30375W        W46849   7.127  17.075  14.176  0.5453 -0.2431 -0.0689
30376W        W46850  14.434  15.725  12.792 -0.0228  0.2074  0.2839
30377W        W46851  10.262   0.220   3.990 -0.3089 -0.2486 -0.2241
30378W        W46852  18.051   7.018  11.332  0.2081  0.0194 -0.1928
30379W        W46853   3.873  17.416  13.698  0.1024  0.1208 -0.3969
30380W        W46854   2.598   6.945  15.863 -0.1916  0.1780  0.0691
30381W        W46855   9.139   3.636   2.186 -0.0781  0.2438 -0.2547
30382W        W46856  18.189  13.992   2.894  0.3620 -0.1916  0.0262
30383W        W46857  16.842   9.064   0.724  0.0061 -0.0250  0.0426
30384W        W46858  11.583   5.006   1.300 -0.1374  0.2160 -0.0460
30385W        W46859   8.874  10.470  11.290 -0.0653 -0.0859  0.1033
30386W        W46860   4.530  13.109  11.497  0.1633 -0.0025  0.1186
30387W        W46861  16.450   2.132   5.460  0.0935  0.1669  0.0197
30388W        W46862  10.689   0.161   3.653  0.0653  0.1912  0.1889
30389W        W46863  10.371  15.462   4.546 -0.0354 -0.0586 -0.1876
30390W        W46864  11.271   4.013   3.847  0.0302  0.0982  0.0153
30391W        W46865   6.998   3.052  11.270 -0.1130  0.1021  0.1320
30392W        W46866   4.002   9.407   0.759  0.0031  0.3277 -0.0603
30393W        W46867   6.145   8.494  10.964  0.4854 -0.1364  0.2573
30394W        W46868   4.699  12.522  12.674  0.0486 -0.1298 -0.1358
30395W        W46869  13.077  13.829  10.424 -0.3240 -0.2152 -0.1331
30396W        W46870   9.236  12.165  14.413 -0.0973 -0.4470  0.0640
30397W        W46871   2.018   3.542  11.537  0.1561  0.1254 -0.0126
30398W        W46872   3.218  14.127   2.947  0.2269 -0.3695 -0.0458
30399W        W46873   4.870   3.295   4.280 -0.3416 -0.1234  0.1682
30400W        W46874   1.740  17.472  15.859 -0.1631  0.0718  0.1710
30401W        W46875  16.298  11.108  11.805  0.1420 -0.0186 -0.1188
30402W        W46876   0.477  16.659  14.107 -0.3681 -0.0232  0.4549
30403W        W46877  13.498   1.668  13.275 -0.1009  0.0490 -0.2075
30404W        W46878   2.171   0.038   0.959 -0.1845 -0.2156 -0.0470
30405W        W46879  14.740   0.508  15.056 -0.2489 -0.2335 -0.1918
30406W        W46880  10.288   7.541  13.847  0.1047 -0.0048  0.3049
30407W        W46881  12.954  17.855   1.806 -0.0490 -0.0903 -0.0227
30408W        W46882   3.641  15.487  12.901 -0.0557  0.0583  0.3696
30409W        W46883  11.637   8.193   3.155  0.1112  0.0303  0.0723
30410W        W46884   4.067   8.238   1.531  0.0261  0.1658  0.0211
30411W        W46885  13.734   8.499   0.903  0.0646  0.0153  0.4410
30412W        W46886   8.287  16.270  15.288 -0.1698  0.0172 -0.0536
30413W        W46887  10.569   2.512   0.467 -0.1281 -0.1995 -0.1121
30414W        W46888   4.221  17.254  12.595 -0.1909 -0.1869 -0.0756
30415W        W46889  11.797   4.205   0.757 -0.1555 -0.0853 -0.0618
30416W        W46890   8.911  12.616  13.624 -0.0071  0.0458  0.3264
30417W        W46891  18.221   9.719  11.066  0.1417  0.2355 -0.1481
30418W        W46892   7.283   6.965  15.254 -0.3232  0.1288 -0.3615
30419W        W46893   0.318   8.745  15.843  0.1386 -0.0579 -0.0019
30420W        W46894   5.045  12.701   2.577 -0.2394 -0.1736  0.1762
30421W        W46895   1.034   2.250  12.972 -0.1762 -0.0265  0.0003
30422W        W46896  15.797  10.511  13.486 -0.1809  0.1464 -0.1731
30423W        W46897  15.506   2.815  13.500  0.3541  0.1514 -0.0463
30424W        W46898   7.285  10.515   4.660  0.1806  0.0698  0.2568
30425W        W46899   7.670   5.858  13.235 -0.2289 -0.0357  0.0046
30426W        W46900   7.302   0.448  15.339 -0.2294 -0.2390  0.1266
30427W        W46901  10.154   9.936   4.580 -0.1194  0.0331 -0.0532
30428W        W46902  16.956  10.140   1.489 -0.0441  0.0866  0.1610
30429W        W46903   9.749   4.134  13.723 -0.2237  0.1321 -0.0364
30430W        W46904  12.501   2.607  14.600  0.1194 -0.1783 -0.0473
30431W        W46905   4.936  12.252  13.009 -0.0197 -0.1564 -0.1565
30432W        W46906  10.893  12.927   0.316 -0.0996 -0.2043 -0.0558
30433W        W46907   9.522   0.516  13.269  0.3907  0.1386 -0.1587
30434W        W46908   6.863   2.335  11.952 -0.0608  0.0207  0.1512
30435W        W46909  15.998   5.011   1.816  0.1375 -0.0111 -0.1102
30436W        W46910   9.546  11.122  11.908  0.3217 -0.0905 -0.2126
30437W        W46911  14.895  10.036  14.060 -0.1067 -0.2448  0.0997
30438W        W46912   1.206  16.786   2.061 -0.0791 -0.1063  0.0691
30439W        W46913  18.305   3.252  12.639  0.1182 -0.2468 -0.0914
30440W        W46914  10.468   5.073  12.276 -0.2413 -0.0924  0.2409
30441W        W46915   5.377  10.663  11.584  0.1379 -0.2413  0.0067
30442W        W46916  15.262  14.026  12.680 -0.2981 -0.0233 -0.0186
30443W        W46917   9.608   5.846   1.212 -0.0988  0.0120 -0.1994
30444W        W46918   6.645  14.737   1.912 -0.0266  0.0408 -0.2675
30445W        W46919   6.668  13.282   3.745 -0.1493 -0.3858 -0.2326
30446W        W46920  17.754   9.703  15.575  0.0835  0.3656  0.1446
30447W        W46921  15.557   9.949  12.043  0.1224 -0.1083 -0.2383
30448W        W46922   2.984  17.130  13.048  0.0958  0.1041  0.1537
30449W        W46923   2.802   8.391   3.807 -0.1892 -0.2629 -0.0354
30450W        W46924   4.102   2.614   5.900 -0.1537  0.0069 -0.1245
30451W        W46925   4.874   2.700   3.670  0.0939 -0.3893  0.1415
30452W        W46926   9.503  11.527  11.140 -0.2167 -0.1046  0.2525
30453W        W46927   7.330  15.297   1.355 -0.1194  0.1036  0.0723
30454W        W46928   9.780   7.295   0.857  0.0569  0.1516 -0.0257
30455W        W46929   8.172   7.218   3.727 -0.0049 -0.1019  0.0081
30456W        W46930   7.889  18.002  11.178  0.0777  0.1028 -0.0063
30457W        W46931   2.142   6.665   1.973  0.2306 -0.0451  0.0229
30458W        W46932  14.016   8.563  15.341 -0.2034 -0.2531  0.1076
30459W        W46933   0.126   8.140   1.960  0.0107  0.1019  0.1254
30460W        W46934  11.037   6.048  12.501 -0.2605  0.2110  0.0106
30461W        W46935   7.424  11.423  14.851  0.1108  0.0532 -0.1218
30462W        W46936   1.234   7.154  14.833  0.1323 -0.0675  0.0070
30463W        W46937  15.975   8.408  13.617 -0.0469  0.1195  0.2923
30464W        W46938  13.224  17.696   0.748 -0.3260 -0.1979  0.1831
30465W        W46939   2.847   5.284   2.415  0.0432 -0.2253 -0.0788
30466W        W46940  17.648  11.453  11.791 -0.0579 -0.2438 -0.1292
30467W        W46941   6.799  18.458  12.668  0.1477 -0.1522 -0.1061
30468W        W46942   5.348   4.951  13.032 -0.2916  0.0770 -0.2405
30469W        W46943   2.507   3.581  11.308 -0.0608  0.1798  0.2587
30470W        W46944  17.903  14.533  15.249 -0.1728  0.0441  0.1595
30471W        W46945   8.158   8.580  15.661  0.3547 -0.2485  0.0815
30472W        W46946   7.691   5.508  15.511  0.1091  0.0479 -0.1443
30473W        W46947  15.596  10.097   1.317 -0.2721 -0.0085 -0.0925
30474W        W46948  11.732   3.369   0.169  0.0075 -0.1647  0.2287
30475W        W46949   2.487   5.879  14.813  0.1056  0.1183 -0.0523
30476W        W46950   9.741  17.012   4.330  0.0740 -0.0139  0.0007
30477W        W46951  12.026  16.361  14.859 -0.0348 -0.0672 -0.3351
30478W        W46952  16.610  14.405   4.228 -0.1967  0.2023  0.0187
30479W        W46953  18.322  12.792   0.856 -0.3108  0.2570 -0.2917
30480W        W46954   7.749   7.114   3.218 -0.0433 -0.0461  0.0280
30481W        W46955   4.565   0.713  15.276  0.1648  0.1151  0.1039
30482W        W46956   8.476  14.800   3.745  0.1194 -0.2822  0.1338
30483W        W46957  10.889   9.505  14.637 -0.0484 -0.0583 -0.2599
30484W        W46958   1.309   3.527  15.785  0.2059  0.1714 -0.1004
30485W        W46959   9.107  17.416   2.192  0.0663 -0.1667 -0.0261
30486W        W46960   3.200  15.433  13.099  0.1077 -0.0208  0.0225
30487W        W46961  15.998   5.124   1.168 -0.3090  0.0989  0.1333
30488W        W46962   2.757   4.981  15.737 -0.2062 -0.1087 -0.1274
30489W        W46963   6.069   0.374  11.557  0.2362  0.2131  0.1284
30490W        W46964   6.292   6.750  13.706 -0.3695  0.2382 -0.1475
30491W        W46965  17.193  14.537   0.311  0.2106 -0.0460 -0.1228
30492W        W46966   1.494   6.332   3.060  0.1086 -0.1319 -0.2536
30493W        W46967   4.709   9.975   1.595 -0.0466 -0.1808  0.2636
30494W        W46968  17.356   6.627   3.950 -0.1776 -0.0253  0.2059
30495W        W46969   2.272   9.666  14.071  0.0822  0.0224  0.0908
30496W        W46970   9.759  15.324  15.597 -0.1126  0.0414  0.1701
30497W        W46971   8.971   0.297  12.968  0.2467  0.3672 -0.0382
30498W        W46972  11.051   8.805  14.109 -0.2027 -0.0858 -0.2463
30499W        W46973  16.923   6.447   2.365  0.1759 -0.1751  0.1573
30500W        W46974   8.710   9.577   2.507 -0.0202 -0.1225 -0.1054
30501W        W46975   6.934   1.239  11.414  0.1926  0.0268 -0.0876
30502W        W46976   1.191   5.040  13.457  0.0053  0.0412  0.2539
30503W        W46977   8.380   0.748  14.415  0.1908 -0.0031 -0.0000
30504W        W46978  17.718  12.120   1.584  0.1563  0.0537  0.0195
30505W        W46979   0.532   0.257   2.230  0.1538  0.0960  0.2798
30506W        W46980  16.840  10.735   4.521  0.4612  0.1568  0.3091
30507W        W46981  15.767  14.592  13.082  0.3090  0.1379  0.0354
30508W        W46982  16.984   6.074  11.819  0.0620 -0.0184 -0.0179
30509W        W46983  13.665  15.366   2.511 -0.2672 -0.0298  0.0452
30510W        W46984  15.633  16.971   4.661  0.0993  0.0889 -0.1098
30511W        W46985  14.530   1.557  12.827  0.2073  0.1928  0.2102
30512W        W46986   1.684   7.425  14.160 -0.2541  0.1729  0.1213
30513W        W46987  15.933   7.480   4.462  0.0994  0.0841  0.0001
30514W        W46988   9.489   0.452  11.735  0.1813  0.3579 -0.1141
30515W        W46989  10.082   2.372   0.608  0.1344  0.2018 -0.0076
30516W        W46990   8.929  13.657   4.534  0.2322 -0.1818 -0.0629
30517W        W46991   7.968   2.480  12.207 -0.0730  0.5536  0.1758
30518W        W46992  14.152  13.106  10.845 -0.1814 -0.1058  0.0987
30519W        W46993   6.837  11.911  11.117 -0.1680 -0.1375  0.0199
30520W        W46994   9.097  11.284   0.324  0.2801  0.0185 -0.3196
30521W        W46995  11.098   4.481   3.966 -0.2466 -0.0801 -0.0909
30522W        W46996  14.309  10.635   1.718  0.1155 -0.1046 -0.2234
30523W        W46997   4.963  15.283   3.785 -0.1193 -0.1466  0.0699
30524W        W46998  14.167  12.126   3.240  0.1532  0.0145  0.2577
30525W        W46999   2.113   6.862  15.171  0.2126  0.4318 -0.0658
30526W        W47000   6.319  11.417   5.135 -0.3056 -0.0603  0.3269
30527W        W47001  16.547  18.391  15.317 -0.3245  0.0277 -0.0455
30528W        W47002   5.473  15.896  14.431 -0.1680 -0.0851  0.1465
30529W        W47003  17.843   7.688  11.420 -0.2310 -0.0505  0.3961
30530W        W47004  16.954   3.119   0.213 -0.2614 -0.1111 -0.0304
30531W        W47005   2.319   9.885  12.570  0.0344  0.2342 -0.2828
30532W        W47006  14.182  12.446  15.623  0.0600  0.0422  0.0686
30533W        W47007  12.496  15.032   1.077  0.2355 -0.2851 -0.5354
30534W        W47008  10.674  17.891  13.573  0.1865 -0.0204  0.2501
30535W        W47009   0.756  15.366  13.446  0.0904  0.1544 -0.4189
30536W        W47010   8.752   7.122  12.807  0.2101  0.0937  0.0186
30537W        W47011   8.348   5.688  11.931 -0.3898  0.2027  0.1114
30538W        W47012  10.664   1.169   2.355 -0.0405 -0.1043 -0.4306
30539W        W47013  16.330   5.092  13.508 -0.3411  0.1726  0.3304
30540W        W47014   7.250   3.474   1.012 -0.0293  0.1277 -0.2025
30541W        W47015   2.316   6.225   3.987 -0.0162 -0.4072 -0.2597
30542W        W47016  11.579   9.068   3.669 -0.1059  0.4867 -0.0155
30543W        W47017  14.269  12.990  11.960  0.0836 -0.1145 -0.0362
30544W        W47018  12.919  12.215  12.840  0.1066  0.1599  0.0664
30545W        W47019   6.748   3.373  15.439 -0.0414 -0.1230  0.1865
30546W        W47020  16.166  10.605  12.754 -0.2372  0.2788  0.1246
30547W        W47021   1.542  11.068  12.591  0.0082  0.1388  0.0285
30548W        W47022   4.630   3.950   1.051  0.2573 -0.1762 -0.0761
30549W        W47023  16.690   2.472   4.633 -0.2399  0.1262  0.0631
30550W        W47024  14.305   5.511   3.674 -0.0744 -0.0946  0.0182
30551W        W47025  13.412  10.852   4.191  0.0475 -0.1442 -0.3268
30552W        W47026  13.070  17.682   3.738  0.0570  0.1311  0.1844
30553W        W47027   1.648   8.843   5.309  0.1644  0.3123 -0.1107
30554W        W47028   5.692   8.756   4.492  0.0535  0.2636  0.0746
30555W        W47029  13.449  17.966  12.586  0.1364  0.0004 -0.2493
30556W        W47030  14.372  13.504   1.478  0.0182 -0.1838  0.0387
30557W        W47031  15.822   8.869   2.079  0.0226  0.0958  0.3853
30558W        W47032  11.764   6.743  15.571 -0.1476 -0.3628  0.2283
30559W        W47033  12.359  17.382  13.924 -0.3697 -0.1283 -0.2621
30560W        W47034  11.064   0.373   2.300 -0.2300  0.0772 -0.0946
30561W        W47035  17.469   2.377  14.191 -0.0133  0.1676  0.0011
30562W        W47036  10.700  14.550   4.866 -0.0276 -0.0417  0.4243
30563W        W47037   8.157   8.897  14.705 -0.1166 -0.0103 -0.0581
30564W        W47038  12.801  17.694  12.001  0.0487 -0.3028 -0.1067
30565W        W47039  15.247   9.791   4.446 -0.0097 -0.2178 -0.0717
30566W        W47040  14.343   5.844  12.727  0.1678 -0.2010  0.0673
30567W        W47041  17.754   2.375   0.993 -0.1038  0.1902 -0.3193
30568W        W47042   2.739  16.348   0.756 -0.0254  0.3106  0.1550
30569W        W47043   4.280  13.836  10.721 -0.0007 -0.0439  0.0380
30570W        W47044  11.389  17.745   0.652  0.3383  0.0758  0.0572
30571W        W47045  10.844  13.911  14.749 -0.1802 -0.0001 -0.0124
30572W        W47046   6.598   0.112  10.805  0.1938 -0.0641  0.3577
30573W        W47047  17.691  17.138   5.324 -0.1256 -0.0706 -0.3182
30574W        W47048  13.626   1.947   0.981  0.0372 -0.3992  0.0723
30575W        W47049  10.600  16.800  10.291  0.1364  0.2165  0.1674
30576W        W47050   0.012   9.490   1.734 -0.0601 -0.2234  0.1899
30577W        W47051   5.430   4.373  14.779 -0.0940 -0.2227 -0.1199
30578W        W47052   2.647   0.507  11.828 -0.0652 -0.1868 -0.0927
30579W        W47053   9.811   7.925   2.047  0.0341  0.2421 -0.0535
30580W        W47054   7.693  17.929   4.430  0.1547  0.0034  0.0367
30581W        W47055   9.382  15.508  13.226  0.0929  0.2096 -0.1151
30582W        W47056  10.728  18.189   5.310 -0.0237 -0.2347  0.0033
30583W        W47057  11.749   6.959   1.978 -0.1850 -0.0360 -0.1396
30584W        W47058   8.418  17.493   1.352 -0.0243  0.2182  0.2059
30585W        W47059  18.413  13.550   1.448  0.0745  0.1686 -0.0119
30586W        W47060   7.730   2.389  14.470 -0.2049  0.0256 -0.3059
30587W        W47061   1.061   2.548   3.849  0.1891  0.0071  0.3836
30588W        W47062   9.929  13.841  12.780  0.0720 -0.1529  0.1503
30589W        W47063  11.125   0.893   0.574  0.2023 -0.0446  0.2189
30590W        W47064   4.116   8.332  15.706  0.1010 -0.1906  0.0254
30591W        W47065  11.608  10.403  12.648 -0.4421 -0.2455  0.1022
30592W        W47066  15.514   0.232   1.832  0.1089  0.1415  0.0405
30593W        W47067  12.327   0.107  14.825  0.0555 -0.0064  0.1421
30594W        W47068   4.585  16.731   4.042 -0.0431  0.3173 -0.1639
30595W        W47069  16.674  11.180   1.544  0.2962 -0.1681 -0.1102
30596W        W47070   2.093  18.150   0.254 -0.0866  0.3053 -0.0924
30597W        W47071   0.564  16.144   4.091  0.1701  0.3092  0.0584
30598W        W47072   3.855  12.084  12.984 -0.1649  0.0074 -0.0026
30599W        W47073  15.681   2.697  12.559  0.0661  0.0235 -0.1714
30600W        W47074   7.177  13.250   3.847 -0.1032 -0.2605 -0.2852
30601W        W47075  10.003  16.646  13.210  0.1219 -0.1457  0.2410
30602W        W47076  16.106  15.462  13.450  0.0517  0.2471 -0.2763
30603W        W47077  18.056  16.595  12.018 -0.1386 -0.0396 -0.1900
30604W        W47078  12.402  14.532  14.154  0.3299  0.1520  0.3837
30605W        W47079   2.948   8.189   0.424  0.1883  0.0604  0.0383
30606W        W47080  10.740  17.082  12.827 -0.0002 -0.0102  0.2879
30607W        W47081  13.951  11.525   5.562  0.2181  0.1865  0.0507
30608W        W47082   4.699   0.327  15.018  0.1052  0.1083  0.1943
30609W        W47083  13.044  15.389   1.802 -0.0804 -0.0138  0.0663
30610W        W47084  16.381  13.643  12.415 -0.0984  0.0370 -0.4442
30611W        W47085  10.941   8.411  13.861  0.2054  0.2304 -0.0737
30612W        W47086  14.011   6.578  15.657  0.2444 -0.3508 -0.0609
30613W        W47087   3.386   0.775  14.029  0.1530  0.1316  0.2289
30614W        W47088  11.200   8.382   2.016 -0.0429 -0.2426  0.0183
30615W        W47089   2.768  14.944  14.783 -0.2243 -0.1608 -0.0826
30616W        W47090  10.307   9.487  13.074 -0.0752 -0.1310 -0.1970
30617W        W47091  11.729  16.094   1.316 -0.1609 -0.3283  0.3157
30618W        W47092   4.248  13.607   4.509 -0.4110  0.0560  0.3771
30619W        W47093   2.228  12.368  12.573 -0.1845  0.0808  0.1179
30620W        W47094  15.627  16.655   5.305 -0.0568  0.0047 -0.0650
30621W        W47095  11.758   3.760   0.498  0.0313  0.2147  0.0597
30622W        W47096  16.144  12.944   4.289  0.0792 -0.2828 -0.1639
30623W        W47097   3.104   7.463   1.546 -0.2135  0.2507 -0.2066
30624W        W47098  12.531  14.274  12.920  0.0943 -0.0500 -0.0589
30625W        W47099  10.641   4.548  14.665 -0.2017 -0.1178 -0.0480
30626W        W47100   5.708   5.697   0.463 -0.1845 -0.2025 -0.2722
30627W        W47101   9.294  11.132   2.139  0.1027 -0.2530  0.0281
30628W        W47102   9.806  17.965   0.240  0.0151 -0.2147  0.1481
30629W        W47103  17.495   0.093  12.157 -0.0056 -0.0001 -0.1356
30630W        W47104   6.972  13.025   4.617 -0.0944  0.3886  0.0158
30631W        W47105   4.138   4.825  12.957  0.0773 -0.0464  0.0043
30632W        W47106   8.294   2.783  11.309  0.0232  0.0295 -0.0150
30633W        W47107  17.440   3.801   3.754 -0.0343  0.1567 -0.0351
30634W        W47108   2.330   4.962   4.513  0.1371  0.0033 -0.0704
30635W        W47109   9.382   8.141  12.659  0.2041  0.3652 -0.0267
30636W        W47110   4.805  13.678  14.490  0.0555 -0.1072 -0.0266
30637W        W47111  16.838  11.374  14.118  0.0486  0.1750 -0.1281
30638W        W47112  14.876   9.400  15.891  0.2991 -0.0554  0.0200
30639W        W47113  13.870  11.273   2.327  0.3709 -0.0998 -0.0206
30640W        W47114  14.498  14.276   1.968  0.1745  0.0128 -0.1043
30641W        W47115   3.219  17.297  15.728  0.1506  0.2737  0.1562
30642W        W47116   0.218  10.984  15.021  0.2875 -0.3589  0.0475
30643W        W47117  16.648  15.566   2.068 -0.0313  0.0820  0.1646
30644W        W47118  11.954   7.719   4.669 -0.1273 -0.0427 -0.1683
30645W        W47119  11.837  14.999  14.659  0.4029  0.1382  0.0597
30646W        W47120   8.316   6.333   3.863 -0.0103  0.0529  0.0002
30647W        W47121   1.533  17.643   0.674  0.0058 -0.2950  0.0389
30648W        W47122  10.789  11.580   3.488  0.2372  0.2865 -0.2334
30649W        W47123  17.992  15.917   1.492 -0.2250 -0.1933  0.1122
30650W        W47124   5.616   6.943   0.346 -0.1480  0.1846  0.1195
30651W        W47125   0.250   7.167  11.754 -0.1205 -0.1798 -0.0447
30652W        W47126   9.743   0.078   1.545 -0.0738 -0.1929 -0.2500
30653W        W47127  15.800  13.445   5.499 -0.2625 -0.1166  0.1264
30654W        W47128  17.637   8.512   3.524  0.1636 -0.0417 -0.2430
30655W        W47129   3.971  16.602  13.893  0.2002 -0.2997  0.3044
30656W        W47130   7.401  15.872  15.236  0.0460 -0.2010 -0.0206
30657W        W47131  16.234  16.944   1.851 -0.0921 -0.1482  0.3814
30658W        W47132   8.561  11.067   2.581  0.1239  0.0484 -0.1632
30659W        W47133   0.832  15.952  15.618  0.2647  0.0013 -0.0529
30660W        W47134  15.906  11.667   2.686  0.1754 -0.0213  0.0631
30661W        W47135   1.013   8.541   3.812  0.1083 -0.0532  0.0582
30662W        W47136   0.096   3.290   3.245 -0.3316  0.1589  0.3392
30663W        W47137   3.305  17.179   0.704  0.1408  0.1451 -0.1438
30664W        W47138   4.148  14.818   2.809  0.0732  0.0968  0.2546
30665W        W47139   8.561   0.166   4.976 -0.1843 -0.0742 -0.0099
30666W        W47140   5.426   0.376   1.588 -0.2724 -0.0919 -0.1794
30667W        W47141   8.195   4.823   5.658 -0.1888 -0.0458  0.0719
30668W        W47142  15.680  17.829  14.930 -0.0698  0.3199 -0.0158
30669W        W47143   4.339  10.953   4.735 -0.1743 -0.0612  0.0481
30670W        W47144   7.886   4.054   2.091 -0.1568  0.0435 -0.2106
30671W        W47145  13.317  16.589   0.948 -0.1127 -0.2208  0.1141
30672W        W47146   6.725   8.007  12.515 -0.1471  0.0776 -0.1053
30673W        W47147   2.055   5.301   0.754 -0.0470  0.2153  0.3195
30674W        W47148   0.074  11.921   1.587 -0.0509  0.0854  0.0359
30675W        W47149  18.207  14.104   3.410 -0.1745  0.2808 -0.1685
30676W        W47150  13.970   0.509   4.677 -0.2715 -0.0549 -0.0049
30677W        W47151  14.850  15.596  15.129 -0.0465  0.4015  0.1023
30678W        W47152  16.870   3.487  14.555 -0.0052 -0.1360  0.1492
30679W        W47153  17.033   9.285  15.719  0.1941 -0.1492  0.0968
30680W        W47154  17.297   8.273  15.351 -0.0093  0.5183 -0.0644
30681W        W47155  15.948  17.274   0.487  0.2213  0.1489  0.1803
30682W        W47156   3.166   4.423   1.987  0.0155  0.3982 -0.2858
30683W        W47157   4.499   6.953  15.390  0.2739  0.2535  0.2901
30684W        W47158  16.785  13.434   6.317  0.3912 -0.1331  0.3890
30685W        W47159   9.852  15.661  14.120  0.0267  0.0065  0.0797
30686W        W47160  13.148   6.982  11.239  0.0756 -0.2112  0.3238
30687W        W47161   0.895   6.547  14.211 -0.1485  0.0273 -0.0849
30688W        W47162  10.889  13.996  12.876 -0.1740 -0.2295 -0.0110
30689W        W47163  17.493   8.500   3.022  0.1208  0.0694  0.3032
30690W        W47164  10.143  14.308   2.795 -0.0704  0.1423  0.2405
30691W        W47165   4.339  12.811   1.663 -0.0206  0.1489  0.0339
30692W        W47166   5.507  16.826  14.950  0.1138  0.1910 -0.1746
30693W        W47167   4.280  11.704   3.084 -0.0257 -0.1387  0.3442
30694W        W47168   8.128   1.376   1.789  0.1846  0.0055  0.1103
30695W        W47169   9.870  14.893   1.628  0.1401  0.0267  0.0430
30696W        W47170   1.242   4.226   4.227 -0.0914  0.3587  0.0335
30697W        W47171   8.613  17.443   0.875 -0.3391  0.1954 -0.1704
30698W        W47172   6.547  17.328   3.412 -0.0519 -0.1040  0.1779
30699W        W47173   4.586  13.052  13.180 -0.0650 -0.1535  0.2143
30700W        W47174  11.916   6.295  11.269  0.2627  0.2727  0.0241
30701W        W47175  11.542  18.141  11.015  0.0770  0.3038 -0.0250
30702W        W47176   1.510  11.474  14.476  0.2673 -0.1677 -0.0324
30703W        W47177  15.445  13.073   0.315 -0.2604 -0.3074  0.2507
30704W        W47178   2.113  16.590   3.840  0.0954  0.2835  0.3200
30705W        W47179  11.234   3.597   4.761  0.0604 -0.1313 -0.0164
30706W        W47180  13.384   2.955   3.750 -0.0467 -0.0555 -0.1091
30707W        W47181   8.299  13.895   2.803 -0.2237  0.2304 -0.0254
30708W        W47182   3.560   1.610   2.901 -0.5532  0.0942  0.1483
30709W        W47183   0.595   6.061   1.156 -0.3177  0.0043  0.1170
30710W        W47184   1.747  13.470   4.575 -0.1417  0.0021 -0.0215
30711W        W47185   8.755   1.423   4.329 -0.1329 -0.0417 -0.2611
30712W        W47186   8.344   8.145   1.927 -0.0444 -0.0433  0.0240
30713W        W47187   1.922  11.866   2.306  0.2445 -0.4211 -0.2912
30714W        W47188   1.597   2.163   3.372  0.0319 -0.0287  0.3045
30715W        W47189   0.097  13.165  11.191 -0.0093  0.0808  0.1429
30716W        W47190   3.866   9.334  15.438  0.0241  0.1129  0.0814
30717W        W47191   0.264  16.836   0.944 -0.0385 -0.1912  0.1169
30718W        W47192  14.203  13.671   2.634  0.0237 -0.2500 -0.1070
30719W        W47193  17.083   8.801  15.479  0.2096 -0.0663  0.0808
30720W        W47194  10.853  14.807   1.879  0.0278  0.3072 -0.0051
30721W        W47195   3.185   2.871   4.670 -0.3599 -0.0537  0.1840
30722W        W47196  15.565  15.749   5.683  0.1025  0.1019  0.1451
30723W        W47197  15.885   2.705  13.094 -0.0063  0.0515  0.2310
30724W        W47198   6.768   2.688  12.682 -0.0808 -0.0128 -0.5566
30725W        W47199  10.479  16.772   3.685  0.1821  0.1741 -0.1841
30726W        W47200   3.629   8.211  10.705 -0.1410  0.0958 -0.3878
30727W        W47201   8.714   0.837   2.766  0.2884  0.0213  0.0879
30728W        W47202  11.951  13.389  15.380 -0.0291  0.0839 -0.4049
30729W        W47203  10.548   9.410   5.219  0.0967  0.1688  0.1574
30730W        W47204  10.050  13.226  13.471  0.3300 -0.0735  0.1047
30731W        W47205   7.301  15.433   1.852 -0.1709  0.0635 -0.2266
30732W        W47206   0.729   8.938  11.887 -0.2384  0.1790  0.1636
30733W        W47207   3.921  17.140  13.312  0.0410 -0.1544  0.1866
30734W        W47208   8.003   1.182   3.355 -0.1957 -0.2527 -0.0401
30735W        W47209  11.481   2.469  13.726  0.0334 -0.0774 -0.0045
30736W        W47210  17.770   1.673  15.760  0.1323  0.0563 -0.1735
30737W        W47211   4.863   2.608  11.695  0.2246 -0.4288  0.1904
30738W        W47212   1.297   6.457  11.633  0.0596  0.4084 -0.1295
30739W        W47213   3.229  12.877  15.021 -0.0181 -0.1208 -0.2022
30740W        W47214  11.615   5.449   1.589 -0.2597 -0.0341  0.3021
30741W        W47215  13.523   6.335  14.446 -0.0923 -0.0249 -0.1741
30742W        W47216   5.734   0.456  12.259  0.1461  0.0200 -0.1138
30743W        W47217  15.559  16.109  14.606 -0.0989 -0.1578  0.1050
30744W        W47218   2.031  10.134   0.984 -0.1655  0.2927  0.2555
30745W        W47219  17.417  12.638   0.378  0.0490  0.1794 -0.0403
30746W        W47220   1.206   8.860   0.241 -0.0468 -0.4577 -0.1597
30747W        W47221   1.987  11.432   0.566  0.1878  0.2522  0.2854
30748W        W47222  11.238  12.046   4.682 -0.0104 -0.1033 -0.1683
30749W        W47223   9.874   1.983   5.154  0.1805 -0.1618  0.2297
30750W        W47224   6.570   1.287   2.227  0.3253  0.0678 -0.0243
30751W        W47225  10.738  16.514  15.723 -0.1330  0.1455 -0.0709
30752W        W47226  10.547  11.991   6.308 -0.3476  0.2436  0.0301
30753W        W47227  14.646   6.571  11.218  0.1932 -0.2841 -0.1600
30754W        W47228   7.127  10.332   1.858  0.0494 -0.5072  0.4775
30755W        W47229   6.033  15.145  13.864  0.2423  0.0881  0.0500
30756W        W47230   6.338  12.210  14.977  0.0305 -0.0061 -0.1086
30757W        W47231  10.437  11.527   1.354 -0.1090  0.1765  0.0227
30758W        W47232   3.596   1.591   0.218 -0.1532 -0.0441  0.2456
30759W        W47233   1.504   4.190   3.467 -0.2570  0.1044 -0.0354
30760W        W47234   0.010  13.718   5.964  0.0515 -0.2751  0.1295
30761W        W47235  10.274   6.022  13.340 -0.0375  0.0297  0.2634
30762W        W47236   7.874   0.228   3.095  0.3154 -0.0803  0.0819
30763W        W47237   0.358  18.415   1.649 -0.0990 -0.0621  0.1243
30764W        W47238  13.035   3.537  11.997  0.2674 -0.3189  0.2873
30765W        W47239   6.115  11.851  12.980  0.0847 -0.1172 -0.0167
30766W        W47240   3.872   3.055   5.400  0.1275  0.3636  0.1335
30767W        W47241   3.661  12.149  15.103 -0.1471 -0.2132  0.0703
30768W        W47242  11.844  10.154   3.637 -0.1729 -0.0541  0.0272
30769W        W47243  15.215  15.088   0.360 -0.2553 -0.0982  0.2520
30770W        W47244  11.879   2.829   3.687  0.3136  0.0775  0.1670
30771W        W47245   5.339   9.904   3.864 -0.0519 -0.0395 -0.0273
30772W        W47246   9.909   0.702  11.924 -0.1278  0.2122 -0.1880
30773W        W47247   1.911   6.361   5.739 -0.0530  0.2396  0.1229
30774W        W47248   5.035   1.409  11.562 -0.0440  0.0985  0.2560
30775W        W47249   4.878  18.395  12.284 -0.1128 -0.2163  0.0922
30776W        W47250   1.193   2.053  12.120  0.1481  0.2252 -0.0462
30777W        W47251   4.325  16.475  11.864 -0.1530 -0.0194  0.0158
30778W        W47252  13.184   8.752   1.040 -0.3101 -0.2212 -0.0019
30779W        W47253  17.117   9.229  14.566  0.2655  0.0362  0.2572
30780W        W47254  16.428  10.660  11.058 -0.0574  0.0243  0.2999
30781W        W47255  11.021   0.986   1.637  0.0015 -0.0435  0.1976
30782W        W47256   2.541  16.846   3.949  0.0899  0.1206  0.0015
30783W        W47257   8.038  17.155  13.840  0.0525  0.2347 -0.1866
30784W        W47258  17.867   6.415   3.786 -0.0531  0.1218 -0.2921
30785W        W47259   4.565  15.914  10.696 -0.1341  0.1886 -0.3673
30786W        W47260   8.501   5.461  15.127  0.1965  0.0862 -0.2846
30787W        W47261   6.905  14.315   2.201  0.2031  0.3426 -0.1881
30788W        W47262   2.454   9.447  12.418 -0.3129  0.0961  0.2850
30789W        W47263   2.651  15.757   2.556 -0.0966  0.0507  0.0793
30790W        W47264   0.897  14.093   9.950  0.2185  0.0236  0.2046
30791W        W47265  17.075   5.510  12.979 -0.2163  0.0717  0.4247
30792W        W47266  15.317   1.637  11.390 -0.0061  0.0850  0.1145
30793W        W47267   7.771   3.454  13.048 -0.1272  0.0741  0.1010
30794W        W47268   2.122   5.550  13.107  0.1464 -0.0342  0.0975
30795W        W47269   7.764  17.526   4.105 -0.1829 -0.5528 -0.2118
30796W        W47270  15.439  10.814   2.644  0.0928  0.0045  0.0674
30797W        W47271  18.129  18.113  11.791  0.0418 -0.1682 -0.0794
30798W        W47272  12.021  15.042   0.883 -0.1314  0.1895 -0.0195
30799W        W47273   1.990  11.396  14.843  0.0057  0.3100 -0.1424
30800W        W47274  10.203   7.603   4.207  0.3444 -0.0506  0.0978
30801W        W47275   2.314  12.724   3.328 -0.5414  0.3188  0.2943
30802W        W47276   7.099   6.184  15.089 -0.0665 -0.0639  0.0027
30803W        W47277   5.615  17.227   5.490  0.0514 -0.1154  0.2777
30804W        W47278  18.116   4.563   3.721  0.0590 -0.0176 -0.1818
30805W        W47279  11.048  17.236  13.960  0.2848  0.1370  0.1827
30806W        W47280  15.366  12.041  11.450  0.0811 -0.1371 -0.0334
30807W        W47281   6.466   2.533   0.538  0.0292  0.2054  0.1551
30808W        W47282   3.312   6.293  14.416 -0.0376 -0.1249  0.0978
30809W        W47283   2.356  10.861   1.576  0.0605 -0.3685  0.0680
30810W        W47284   6.976  16.234  15.129 -0.0738 -0.2260  0.1310
30811W        W47285   1.912  18.234   4.739  0.1463 -0.0088  0.0266
30812W        W47286  11.336  10.660  14.053  0.4294  0.1956 -0.2850
30813W        W47287   9.608   4.525   2.757  0.0221  0.2027 -0.5639
30814W        W47288  12.257   3.620   3.134 -0.1483 -0.0678 -0.3932
30815W        W47289  13.113  12.796  12.714 -0.0407  0.3094 -0.2030
30816W        W47290   8.724  17.579   5.186 -0.1393  0.1486  0.3324
30817W        W47291  17.829  13.394   4.970  0.0782 -0.1074  0.4120
30818W        W47292  12.448  14.721  13.169  0.1295  0.0794  0.1708
30819W        W47293   5.352  13.112  11.017 -0.1929  0.2203 -0.1820
30820W        W47294   7.471  11.472  13.460 -0.0384 -0.1824 -0.3615
30821W        W47295  14.030   4.444   2.102  0.1868  0.0299  0.0536
30822W        W47296   0.437   1.895  14.874  0.0837  0.1794  0.3502
30823W        W47297  15.336   0.659   2.540 -0.1728 -0.0049  0.2821
30824W        W47298  14.434  11.256  15.197  0.0327 -0.2990 -0.1249
30825W        W47299  10.089  16.836  12.524  0.2573  0.0044 -0.0123
30826W        W47300   7.167  13.861   2.245 -0.2682  0.2307 -0.0969
30827W        W47301   0.371  12.842   4.210  0.1308 -0.0478  0.0158
30828W        W47302   9.495   2.618   4.942 -0.3545 -0.0279 -0.3619
30829W        W47303   5.920   9.709  11.567 -0.2224  0.0143 -0.0137
30830W        W47304  15.115  12.786  12.989  0.2155 -0.0786 -0.0302
30831W        W47305  14.259   0.460   0.082  0.1248  0.1417  0.0086
30832W        W47306   6.504  13.485  13.293 -0.2041 -0.0708 -0.1261
30833W        W47307   4.913   9.775  11.350  0.1693 -0.0811 -0.1749
30834W        W47308   4.361  16.849   2.429  0.0961 -0.5152  0.6165
30835W        W47309  10.089   7.182   5.881 -0.1559 -0.2937  0.0193
30836W        W47310  14.702   8.328   1.261 -0.0717 -0.1087 -0.2225
30837W        W47311  13.689   1.074  15.719  0.0119 -0.2127 -0.3112
30838W        W47312  15.597  11.495  12.110  0.1166  0.0291  0.0758
30839W        W47313   8.900  13.701  15.304  0.4593  0.1354 -0.1038
30840W        W47314  16.202  13.342   4.005  0.0094  0.2781 -0.1945
30841W        W47315   7.292   9.807   3.308 -0.0555 -0.2561 -0.3515
30842W        W47316   0.078   9.026   2.784  0.3168 -0.2746 -0.0616
30843W        W47317   0.737  15.448   0.523 -0.2094  0.2328 -0.2042
30844W        W47318  12.388  16.932   5.383  0.0210  0.2180  0.1335
30845W        W47319  17.798   1.772  15.085  0.1070  0.2134 -0.1890
30846W        W47320  17.189  10.600  12.742  0.0120 -0.0514 -0.2624
30847W        W47321  14.014   1.491   2.169 -0.3337  0.0485 -0.1782
30848W        W47322  13.329  17.996   3.106  0.2714 -0.1996  0.1594
30849W        W47323  12.733  14.007   2.795  0.2877  0.1986  0.5651
30850W        W47324  14.529  16.657   3.268  0.2072  0.1334 -0.0247
30851W        W47325  12.000  18.334   3.781 -0.3293 -0.0241  0.0990
30852W        W47326  16.491  16.132   3.398  0.2952 -0.2245  0.0685
30853W        W47327   0.987   0.526  12.421 -0.2949  0.0586 -0.0814
30854W        W47328   4.321   8.387  11.111 -0.0445  0.2993 -0.0287
30855W        W47329  15.035  17.145  13.745 -0.0201  0.1593  0.1374
30856W        W47330  11.415   3.166  12.158  0.1352  0.1100 -0.1638
30857W        W47331   2.131   5.594   0.284  0.1462 -0.1450  0.0890
30858W        W47332  14.374   4.411  12.648 -0.0914 -0.2630 -0.2123
30859W        W47333   9.358  13.666   1.096  0.1394  0.0169  0.0188
30860W        W47334   9.880   9.494   1.143  0.0331 -0.2184  0.2810
30861W        W47335  17.973  13.603  11.942  0.0200  0.0911  0.0614
30862W        W47336   9.332   9.435  13.952 -0.1396 -0.2119  0.1151
30863W        W47337  17.373  16.687  11.203 -0.1036  0.2458 -0.1454
30864W        W47338   5.503   6.520  11.599 -0.1352 -0.0722 -0.3399
30865W        W47339  13.361  12.182  11.895  0.1330 -0.0575  0.2201
30866W        W47340   6.928   6.325   4.812  0.1703 -0.0610 -0.1271
30867W        W47341   7.586  17.087   3.804 -0.1831  0.0161  0.0385
30868W        W47342  11.510  15.406  14.809  0.0647 -0.1583 -0.0843
30869W        W47343  15.904  14.638  11.492  0.0742 -0.2994  0.4761
30870W        W47344   9.401   0.004   5.971  0.0237 -0.1958 -0.0184
30871W        W47345  17.754  16.957  15.346 -0.3089 -0.0957  0.0277
30872W        W47346   7.517  12.491  11.803 -0.0895  0.0641 -0.1506
30873W        W47347  18.241   8.176   4.394  0.1767  0.2613  0.2495
30874W        W47348  14.214  14.543   2.870  0.1901  0.7614 -0.0507
30875W        W47349   5.946  17.055  11.230  0.0748 -0.1114 -0.1121
30876W        W47350   6.626   0.387   0.157  0.1651  0.2051  0.0731
30877W        W47351  10.845   0.321   0.838 -0.1156 -0.2242  0.1010
30878W        W47352   9.652  18.071  15.266 -0.2170 -0.0741 -0.1645
30879W        W47353  14.947   2.703   4.486 -0.2316  0.0481 -0.1886
30880W        W47354   6.252   8.145  12.603  0.2926  0.3721  0.2194
30881W        W47355   4.719   8.398   4.267 -0.1451  0.0500 -0.2138
30882W        W47356  18.349   4.508  14.287  0.0371 -0.2332  0.0688
30883W        W47357   9.241   3.005   5.132 -0.0937 -0.3586 -0.1154
30884W        W47358  16.522  11.600  11.165 -0.1240  0.2002  0.1092
30885W        W47359  15.905  10.182   4.643 -0.1156 -0.0304 -0.0489
30886W        W47360  14.261  18.381   3.134  0.2320  0.2528  0.0928
30887W        W47361  15.348  17.634  11.067 -0.0420  0.2491 -0.0758
30888W        W47362   0.830  13.022   3.350  0.0212  0.0101  0.2599
30889W        W47363  15.866  15.668   2.836 -0.1077  0.1224  0.0298
30890W        W47364   6.567   1.085   4.942 -0.2035  0.2741  0.1204
30891W        W47365  13.860  14.390  15.449  0.1394 -0.1505 -0.2054
30892W        W47366  13.230   2.635   3.384  0.1264 -0.0324 -0.2043
30893W        W47367  13.437   7.017   0.402  0.0499  0.1691  0.2477
30894W        W47368  13.565  10.435  15.948  0.0654 -0.1236  0.1554
30895W        W47369   4.047   3.171   2.777 -0.4324 -0.1108 -0.0044
30896W        W47370   6.768   0.018  10.317 -0.2295 -0.1102 -0.2441
30897W        W47371  16.156  11.569   1.253 -0.0965  0.1894  0.1797
30898W        W47372   8.501  17.511   4.595 -0.0093 -0.1714 -0.2868
30899W        W47373   0.346   5.695   4.332 -0.0372  0.0943 -0.1364
30900W        W47374  16.903   5.292   3.153 -0.0812  0.1050 -0.1119
30901W        W47375   1.958  15.963  11.844  0.0645  0.2554  0.2433
30902W        W47376   4.674   0.434   5.536 -0.0907 -0.0906 -0.2392
30903W        W47377   9.668   4.758  15.625  0.1669 -0.0259  0.0857
30904W        W47378   0.558  15.013  12.221 -0.2026 -0.1274 -0.0990
30905W        W47379   1.491   2.932  10.342 -0.1363  0.2632  0.0822
30906W        W47380   9.898   0.233  13.154 -0.0829 -0.1746  0.1186
30907W        W47381  13.764  11.481  14.804  0.0147  0.0256 -0.0432
30908W        W47382   6.849   0.785   5.320  0.1100 -0.3674 -0.0270
30909W        W47383   5.890   9.680   2.665 -0.0422 -0.0915  0.0027
30910W        W47384  15.150  18.054   1.072  0.0381 -0.0302 -0.2280
30911W        W47385   1.107   2.317  10.989  0.2961 -0.1522  0.0601
30912W        W47386   3.982   1.910  15.747 -0.0018  0.1603  0.0001
30913W        W47387   2.636   0.611   5.222  0.1431 -0.2987 -0.1733
30914W        W47388   4.799   4.464   3.979 -0.0999  0.0608  0.1511
30915W        W47389   8.508  11.894  15.045 -0.0499  0.0890 -0.0433
30916W        W47390  12.801  12.840   2.124 -0.1888 -0.1594  0.1381
30917W        W47391   8.365   2.443   4.301 -0.2307  0.0605  0.0863
30918W        W47392  11.588  16.026   4.982  0.1821 -0.1797 -0.1033
30919W        W47393  10.864  18.325  11.597  0.1121  0.1711  0.1543
30920W        W47394   6.279  15.900   4.696  0.0684 -0.0288  0.0121
30921W        W47395  15.204  10.100   5.759 -0.1957  0.0881 -0.0761
30922W        W47396  15.396   5.379   2.793  0.2018 -0.0375  0.2291
30923W        W47397   2.244   0.983   5.377 -0.0268 -0.0798  0.1760
30924W        W47398   8.663   0.039   2.949  0.0650 -0.1654  0.0088
30925W        W47399   4.444   9.184   4.748  0.1623 -0.1938  0.2675
30926W        W47400  17.016   1.849   2.069  0.0126  0.4041 -0.0218
30927W        W47401   0.667   0.947  12.533 -0.1842  0.1756 -0.0464
30928W        W47402  14.492   2.803  15.328  0.2988 -0.5384 -0.0774
30929W        W47403  16.141  18.191   0.845 -0.0970  0.2635  0.0242
30930W        W47404  13.511   5.399  14.808  0.1502  0.1522 -0.2224
30931W        W47405  17.719  11.118  15.063  0.1309 -0.2116 -0.1635
30932W        W47406  16.943  18.005  15.519  0.0804 -0.0878  0.2105
30933W        W47407   9.953   2.875   0.807 -0.1557  0.2019  0.0077
30934W        W47408   9.447   8.717  12.362  0.3375 -0.0371 -0.2659
30935W        W47409  18.370  15.858  13.217 -0.0712  0.0919  0.1837
30936W        W47410  10.639   5.780   1.491 -0.0609  0.1571  0.0369
30937W        W47411   8.309  10.846  11.489  0.1048  0.1442  0.1378
30938W        W47412   1.225  14.771   3.188 -0.0914 -0.1517 -0.1726
30939W        W47413  14.839   8.601   5.690 -0.2566  0.0366  0.2063
30940W        W47414  11.965  14.135   2.013 -0.1933  0.3052  0.2503
30941W        W47415   5.449   3.636   2.085  0.0525 -0.0805  0.1124
30942W        W47416   2.159  17.381  12.746  0.0821 -0.1915 -0.1305
30943W        W47417  13.760  12.249   4.473  0.1134 -0.2315 -0.1174
30944W        W47418   0.685   3.292  12.217 -0.2161 -0.0799  0.0533
30945W        W47419   7.824  14.879   4.998  0.1713  0.4049  0.0152
30946W        W47420  13.520   6.833   4.500  0.1015 -0.3513  0.2024
30947W        W47421   2.043   0.511   3.699 -0.0397 -0.0135 -0.1714
30948W        W47422  10.859  18.378  14.737  0.0501 -0.4190 -0.2891
30949W        W47423   3.992   1.183  11.229 -0.0307  0.0031 -0.0733
30950W        W47424  11.012   0.942  10.955  0.1605  0.0261  0.0291
30951W        W47425   0.099  15.917  11.132  0.1549 -0.1013 -0.4186
30952W        W47426  12.410  16.382  15.932 -0.0357 -0.2305  0.1516
30953W        W47427   7.110   7.547  13.979  0.3627  0.2121  0.0624
30954W        W47428   7.227  14.863  10.645 -0.0693 -0.2520 -0.1736
30955W        W47429  14.130   5.336   1.941 -0.2052  0.0358  0.1126
30956W        W47430   7.586   0.735  15.024 -0.0744  0.0184  0.0319
30957W        W47431  13.482   7.748  13.627  0.3726  0.1185  0.0078
30958W        W47432   7.631   6.986   0.232 -0.1382 -0.0883 -0.0377
30959W        W47433  12.251  16.402   0.517  0.1660 -0.2082  0.0462
30960W        W47434   9.554  13.540   2.699  0.0257  0.0282  0.0443
30961W        W47435   7.018  16.179  12.363 -0.0547 -0.0113  0.0035
30962W        W47436   7.728   1.702   2.501  0.1877  0.0847  0.1041
30963W        W47437  10.364  10.129   3.259 -0.0702 -0.2303  0.0963
30964W        W47438  15.618  13.560   3.189 -0.1539  0.1062 -0.0298
30965W        W47439  17.903  10.526   0.652  0.1602  0.2095 -0.0530
30966W        W47440   2.192  16.906  12.469  0.0918 -0.2077 -0.0903
30967W        W47441   0.349   2.732   0.295  0.1625 -0.3773 -0.5069
30968W        W47442   7.817   4.880  11.433 -0.1607  0.0873  0.0474
30969W        W47443  12.580   0.634  13.292 -0.0605 -0.0219 -0.2203
30970W        W47444   5.146   8.470  13.759 -0.1041  0.2504 -0.0525
30971W        W47445   8.437   5.706   4.298 -0.1957  0.1162 -0.0675
30972W        W47446   9.372   4.301   4.591 -0.0703  0.2353  0.5130
30973W        W47447   4.865   4.010   4.783 -0.1317 -0.0964  0.4047
30974W        W47448   9.360   4.537  14.730  0.0727  0.1448  0.2140
30975W        W47449   9.801   5.154   3.483  0.1839  0.1727  0.0698
30976W        W47450   3.385   2.867  15.625 -0.2122  0.0788  0.2587
30977W        W47451   2.607   3.221  12.385  0.1060  0.1251  0.0417
30978W        W47452   0.801   8.790   0.952  0.1236 -0.2367 -0.0348
30979W        W47453  14.465  12.376  12.527  0.0527  0.0260  0.0580
30980W        W47454   7.079  13.401  15.515 -0.1699  0.2080  0.3603
30981W        W47455   3.437   4.087  13.887  0.0994  0.1739 -0.0864
30982W        W47456   2.504   4.277   4.021 -0.1357  0.1383 -0.0253
30983W        W47457  11.498  11.406  14.581 -0.1975 -0.2448  0.2628
30984W        W47458  17.897   0.896  14.706 -0.0061 -0.2121  0.0202
30985W        W47459  12.760   8.715  11.678  0.1512 -0.1510  0.1465
30986W        W47460  16.712   5.066  15.250 -0.2089  0.2023  0.1000
30987W        W47461   9.416   9.381   4.231  0.0091  0.3526 -0.0065
30988W        W47462  12.070   1.031   0.503 -0.0753  0.2941  0.1836
30989W        W47463   5.848   9.859  14.628  0.0575 -0.0550 -0.4178
30990W        W47464   9.470  17.653   3.705  0.1111 -0.0760 -0.0514
30991W        W47465   8.654   1.651  15.436  0.0800  0.1160 -0.0763
30992W        W47466  15.401  12.485   4.071  0.3306  0.1421 -0.1390
30993W        W47467   7.424  16.663   2.664  0.4535 -0.0045 -0.2053
30994W        W47468  14.482  16.018   4.557 -0.0193  0.0636 -0.0050
30995W        W47469  11.576   7.263   1.498  0.1841 -0.1471 -0.1106
30996W        W47470   3.430   8.382  15.576 -0.0085 -0.4149  0.0639
30997W        W47471  18.126  17.015   5.125 -0.0054  0.1540  0.2020
30998W        W47472  13.243   3.386  15.160  0.2793 -0.0359 -0.2397
30999W        W47473   2.019   2.034   1.368  0.3242 -0.1373 -0.1738
31000W        W47474  17.327   0.420  11.801  0.0304  0.0850 -0.1307
31001W        W47475  11.268  12.372   5.087  0.1322  0.0813  0.3681
31002W        W47476  12.856  15.416   3.439 -0.0723  0.0545  0.0233
31003W        W47477   4.411   4.185   4.882 -0.0179 -0.0617  0.5241
31004W        W47478  13.519  11.758  13.146  0.0447  0.0007  0.1480
31005W        W47479  18.362   9.949   4.786 -0.2205  0.0094 -0.1928
31006W        W47480  10.423   9.985   0.592 -0.0621  0.2204 -0.0889
31007W        W47481  16.428  14.881  12.979  0.0027  0.0890 -0.1205
31008W        W47482  15.957   1.328   3.416 -0.2327  0.2021  0.2317
31009W        W47483  14.888   4.832   3.055 -0.0640  0.1163  0.0169
31010W        W47484   5.564  13.722   3.142 -0.0469 -0.0612  0.1319
31011W        W47485   9.880   5.743   4.717 -0.1888 -0.2804 -0.0679
31012W        W47486   9.921   1.632   1.160  0.0402  0.3421  0.0885
31013W        W47487  10.379   1.317  15.058  0.0070 -0.0795  0.1842
31014W        W47488   6.734  12.637   0.715  0.2937 -0.0577 -0.1332
31015W        W47489   0.637   8.633   4.205  0.0612 -0.0350  0.2160
31016W        W47490   8.092  13.061  12.365 -0.1567 -0.0691 -0.1782
31017W        W47491  18.291  16.897  15.178 -0.0403  0.1118  0.0873
31018W        W47492   6.193   7.378   2.328 -0.0375  0.1522 -0.3866
31019W        W47493   9.513   6.284   4.306 -0.1385 -0.0284  0.3099
31020W        W47494  17.005   5.300   1.103  0.0053 -0.0013  0.0834
31021W        W47495  13.658   1.866  12.751  0.0484 -0.1074  0.0679
31022W        W47496  16.337   3.410   1.451 -0.1719 -0.3194  0.0298
31023W        W47497   6.343   7.449  11.359 -0.0298  0.2892 -0.2186
31024W        W47498   9.519  12.457  14.784 -0.1685 -0.0542  0.0163
31025W        W47499   9.293  14.896  15.338  0.2652 -0.0253 -0.0219
31026W        W47500   9.594   6.615  12.575  0.1725  0.3891  0.2175
31027W        W47501   7.124   0.375  12.953  0.0075  0.4247  0.2277
31028W        W47502   4.274   6.434  12.372 -0.1848  0.2033 -0.0439
31029W        W47503   1.119   6.692  12.069  0.0630  0.2616  0.0120
31030W        W47504  11.932   7.929  12.586 -0.2215  0.0890  0.1808
31031W        W47505  16.191   6.843  13.103 -0.2342  0.0980 -0.0610
31032W        W47506   6.205   7.336   4.872  0.4492 -0.3418  0.0376
31033W        W47507   4.320  14.197   4.207  0.1506  0.1024  0.1817
31034W        W47508  12.465   0.403  14.457  0.2552 -0.1253 -0.2583
31035W        W47509   6.766   8.763  13.197 -0.0045  0.1695 -0.1255
31036W        W47510  15.709   7.554   4.009 -0.1414 -0.1076  0.1116
31037W        W47511   8.194  15.241   2.866  0.3192  0.4021 -0.3598
31038W        W47512  14.167  13.129   3.304  0.0137 -0.3201  0.1426
31039W        W47513   3.402   0.556  13.584 -0.3404 -0.4001 -0.1565
31040W        W47514   7.810   6.827  15.166 -0.1488  0.2268  0.0332
31041W        W47515   3.421   6.588  12.641  0.4897  0.0983 -0.1521
31042W        W47516  10.487   5.751   1.944  0.2997  0.0306 -0.0199
31043W        W47517  17.144   1.589  13.162 -0.3598 -0.0882  0.0302
31044W        W47518   7.159   0.397   4.982 -0.3211  0.0743 -0.1437
31045W        W47519  14.096   8.163  11.217  0.1918 -0.1028 -0.0503
31046W        W47520   9.992  10.020   2.856 -0.0186 -0.0758 -0.0074
31047W        W47521   5.169   8.122  14.870 -0.1706 -0.2553 -0.2939
31048W        W47522   4.599   6.541   4.923 -0.1531  0.0201 -0.0357
31049W        W47523   1.975  13.548  11.470 -0.2896  0.2000  0.0225
31050W        W47524  12.068  14.585  12.856  0.0944  0.2116  0.2896
31051W        W47525  12.412  14.259  12.427  0.0064 -0.1332 -0.1155
31052W        W47526  13.894   6.170  13.565  0.0141  0.2575  0.2364
31053W        W47527  12.773   5.646   4.955  0.0242  0.0387 -0.1136
31054W        W47528   5.641  12.709  11.135  0.0747 -0.0379 -0.0937
31055W        W47529   4.736  18.280   1.874 -0.1013  0.1261  0.2153
31056W        W47530   0.786   3.986  14.420  0.1956  0.2488  0.0357
31057W        W47531   9.695   2.908  12.506  0.2213  0.0089 -0.2310
31058W        W47532  10.505   1.011   0.299 -0.3040 -0.1101 -0.4149
31059W        W47533   7.707   1.829   4.322  0.1870 -0.1562 -0.2825
31060W        W47534  17.741  17.270  12.888 -0.3569 -0.0451 -0.2730
31061W        W47535   9.007  14.540  14.080  0.0413  0.0898  0.1941
31062W        W47536   5.132   2.055   4.868  0.1488 -0.0229 -0.0269
31063W        W47537   2.699   5.771  11.634  0.2121 -0.2582  0.4821
31064W        W47538   9.135   9.180   1.646 -0.1090 -0.1947  0.3271
31065W        W47539   0.423   2.154  15.485 -0.1558  0.1823 -0.0264
31066W        W47540  17.759   5.778   3.233 -0.0942 -0.2823  0.0230
31067W        W47541   8.659   9.744  15.790  0.0312 -0.0367  0.2193
31068W        W47542   5.685   4.071   2.134 -0.0145 -0.1339 -0.0711
31069W        W47543   9.701  17.510  13.674 -0.0890  0.2322  0.0211
31070W        W47544   6.198   8.400  15.031  0.0805 -0.0889  0.2849
31071W        W47545   3.680   3.771  15.291 -0.2823  0.2425  0.2770
31072W        W47546   1.285  12.964   1.617  0.1442  0.0336 -0.0363
31073W        W47547   8.200   1.204   4.337  0.2558  0.1567 -0.1005
31074W        W47548  13.160  16.219  14.729  0.1713 -0.3492 -0.0339
31075W        W47549   1.288   0.615   3.564  0.2218  0.2181 -0.0737
31076W        W47550   0.903  12.229  14.369 -0.1738 -0.0334  0.0823
31077W        W47551  15.624  18.016  14.465  0.4576  0.1946  0.1533
31078W        W47552  17.616   3.959   5.074 -0.0916 -0.1873  0.0041
31079W        W47553   5.039  13.056  12.306  0.0652 -0.2302  0.0715
31080W        W47554  16.300  12.253  14.302 -0.0323 -0.0580 -0.1684
31081W        W47555   3.053   8.603   4.867 -0.1832 -0.0786 -0.3775
31082W        W47556  17.141   6.925  14.899 -0.1887  0.1534  0.1431
31083W        W47557   4.231   2.695   2.940 -0.1932 -0.2068  0.2219
31084W        W47558  15.903   7.163   2.064  0.5104 -0.0442 -0.1954
31085W        W47559   1.686   5.702   1.842 -0.2846  0.1439  0.0468
31086W        W47560   4.454  11.809  11.465  0.3241  0.0365 -0.1713
31087W        W47561   1.538  14.171  15.488 -0.0580 -0.1232 -0.1834
31088W        W47562  18.447  17.809   6.160 -0.0604 -0.3060 -0.2192
31089W        W47563   9.057  11.897   1.457  0.0197 -0.1209 -0.0345
31090W        W47564  16.229   5.251   2.753  0.1012 -0.1033  0.1726
31091W        W47565  15.583   8.582  14.212 -0.1664 -0.4207  0.3846
31092W        W47566  17.506   4.813   2.585 -0.0125 -0.0916 -0.0092
31093W        W47567  13.234   5.969  13.502  0.0373  0.7026 -0.2792
31094W        W47568  15.137  16.015   3.068 -0.0898 -0.1682  0.1000
31095W        W47569   0.490  17.341   5.436 -0.0992  0.1144 -0.0375
31096W        W47570  17.647   4.415   1.897 -0.0302  0.0485 -0.3416
31097W        W47571  15.913  10.879   2.090  0.1587  0.0651 -0.1436
31098W        W47572   4.433  14.234  11.777  0.3022  0.0799  0.1436
31099W        W47573  16.127  14.248   1.452  0.0127 -0.1006 -0.0421
31100W        W47574  16.265  13.850  15.538  0.0986 -0.1195  0.0242
31101W        W47575   7.155   7.269  14.328 -0.0869 -0.0561 -0.1198
31102W        W47576   9.932  12.043  15.390  0.0247  0.0932 -0.0560
31103W        W47577   8.393   8.027   0.978 -0.0967 -0.3782  0.0982
31104W        W47578  11.520  12.262   4.274  0.0514  0.0660  0.2094
31105W        W47579   7.732  16.402  15.104 -0.1079 -0.1611 -0.0421
31106W        W47580   7.609   8.629   4.629  0.2082  0.2466 -0.0098
31107W        W47581   8.454   3.367   3.212  0.2394  0.0787  0.1582
31108W        W47582   7.804   4.949   2.237  0.2709  0.0696  0.0465
31109W        W47583   3.893   0.648  11.101 -0.0529 -0.0220  0.1425
31110W        W47584  16.852   1.671  11.697  0.1085 -0.1005 -0.0064
31111W        W47585   0.613   0.446  11.567 -0.1492 -0.2946 -0.1243
31112W        W47586  10.738  14.243   0.202  0.0658 -0.1051  0.1843
31113W        W47587   8.037  10.173   0.276 -0.1514  0.0035  0.0635
31114W        W47588  18.390  15.308  12.119  0.1647 -0.1198 -0.3100
31115W        W47589   2.578   2.227  13.346  0.0741  0.3553 -0.0361
31116W        W47590   8.878   6.180  10.636  0.1571  0.1383  0.0956
31117W        W47591  10.923  12.865   5.274 -0.2765  0.0244 -0.1493
31118W        W47592   4.166  18.460   2.761 -0.0545 -0.0791 -0.2063
31119W        W47593  15.099  13.300   3.704  0.0760 -0.1824 -0.1244
31120W        W47594   6.154   7.663  15.388  0.1133 -0.1729 -0.2714
31121W        W47595  11.957  12.427  13.884  0.0988  0.2124 -0.1392
31122W        W47596  14.229   0.357  14.788  0.4039 -0.0039 -0.1344
31123W        W47597  17.683  11.906  12.667  0.0979 -0.3064 -0.1662
31124W        W47598   0.557  12.951   5.478  0.0238 -0.1735  0.0363
31125W        W47599   5.212  13.124  14.392 -0.0281 -0.1923 -0.1116
31126W        W47600   7.798  15.153  13.098 -0.0863  0.0403  0.0795
31127W        W47601   1.672  16.254  15.764  0.3035 -0.2319 -0.2704
31128W        W47602   8.498   8.658   1.750 -0.3691  0.1489 -0.0970
31129W        W47603   1.523   0.236   2.111  0.0052 -0.3143  0.3906
31130W        W47604  11.335   9.426  14.476 -0.0249 -0.1328 -0.1108
31131W        W47605  15.720   4.771   0.864 -0.0059 -0.1990  0.1734
31132W        W47606  14.440  14.513   4.989 -0.0948 -0.2412  0.0109
31133W        W47607   4.515   4.229  13.739 -0.2070  0.1912 -0.1392
31134W        W47608  11.267  17.027   4.512  0.0995  0.2816  0.0891
31135W        W47609  18.170  14.850   5.069 -0.0241 -0.1005 -0.2254
31136W        W47610   4.488   7.411   1.760 -0.0736 -0.1327 -0.0033
31137W        W47611  11.444   4.277   1.372  0.2448 -0.0252 -0.2100
31138W        W47612   3.377  15.224   3.996 -0.2680  0.1100 -0.0145
31139W        W47613  14.867  12.021   4.789  0.0390  0.0266 -0.3642
31140W        W47614  14.897  10.307  13.616 -0.0618  0.3862 -0.2478
31141W        W47615  10.364   2.414  12.044  0.0037  0.3948 -0.3796
31142W        W47616  17.194   1.324  13.588  0.0944 -0.1395 -0.0701
31143W        W47617   3.281  13.758   1.871  0.0233 -0.3238 -0.0195
31144W        W47618  16.137   4.631   4.650  0.0363  0.1606  0.1120
31145W        W47619   1.679   9.613   5.002 -0.2273 -0.1126 -0.0066
31146W        W47620  11.254  11.203   2.302 -0.3051  0.2259 -0.0982
31147W        W47621   4.995  11.621   2.084 -0.2269 -0.3406  0.2477
31148W        W47622  12.815   7.027  14.781 -0.0817 -0.0116  0.2764
31149W        W47623   9.437   0.712   0.881 -0.0054 -0.0272  0.2906
31150W        W47624   9.086  10.164   3.721  0.0654  0.3442  0.0624
31151W        W47625  13.189   3.872   0.454  0.1726  0.1863  0.0235
31152W        W47626  15.516   0.438  12.701 -0.1219 -0.3054 -0.1847
31153W        W47627  18.115   3.426   3.016  0.1828 -0.0387 -0.1816
31154W        W47628  11.208   2.294  12.319 -0.2343  0.0016  0.2751
31155W        W47629   2.424   3.786   0.521  0.0380 -0.2821  0.1020
31156W        W47630   6.621  14.132   4.929 -0.2870  0.2015  0.3565
31157W        W47631  17.460  15.851  13.456  0.0287  0.2124 -0.2773
31158W        W47632  10.062  12.370  14.498 -0.0221 -0.1625  0.1896
31159W        W47633   1.632   1.352   0.547 -0.3431 -0.0601 -0.0971
31160W        W47634   6.846   6.238   2.627 -0.1596  0.0037  0.1711
31161W        W47635  14.173   9.460   3.392  0.3933  0.1492  0.1596
31162W        W47636   1.414   4.551  15.727 -0.1085 -0.1145  0.0020
31163W        W47637   7.672  11.244   1.485  0.1133  0.0917 -0.1383
31164W        W47638   7.993   2.868   1.862  0.1118 -0.0497 -0.0488
31165W        W47639   9.543  15.657   2.533 -0.0450  0.0365  0.4908
31166W        W47640  16.764   9.927   5.039 -0.3172 -0.1404 -0.0247
31167W        W47641  10.115  12.556   1.788  0.2436 -0.4159 -0.2111
31168W        W47642   7.385   7.658  12.997  0.1333  0.1964  0.0956
31169W        W47643   4.737  17.595  14.177 -0.1212  0.1795 -0.0106
31170W        W47644   1.154  11.791   0.643  0.1520  0.0065  0.4633
31171W        W47645   4.347  15.032  11.329  0.2144 -0.0384 -0.1367
31172W        W47646   2.455   2.219   1.675  0.0130  0.2028  0.2217
31173W        W47647  10.963  16.412   3.396  0.4973 -0.2184  0.5018
31174W        W47648  13.221   7.408  13.312  0.1507 -0.0582 -0.1786
31175W        W47649  12.082   5.635   2.948 -0.1868 -0.0379 -0.1544
31176W        W47650  11.930   7.673  11.651 -0.0234  0.2035  0.1609
31177W        W47651   0.872   3.289   1.731 -0.0322 -0.1623 -0.4160
31178W        W47652  17.492   8.737   5.318  0.1065 -0.0738  0.0239
31179W        W47653   3.464   5.895  15.769  0.2696  0.4497  0.0805
31180W        W47654   2.140  12.101  15.817 -0.1190 -0.0494  0.0424
31181W        W47655   4.790   0.927  14.231  0.4324 -0.0901  0.0348
31182W        W47656   3.015  15.954  15.467 -0.0776 -0.1357 -0.0547
31183W        W47657   9.550   8.990  13.738 -0.0511  0.1976  0.1731
31184W        W47658   9.489  13.708   5.613  0.2043  0.1589 -0.1182
31185W        W47659  13.377  17.724   2.240  0.1749 -0.0400  0.0057
31186W        W47660   4.180  12.188   2.912 -0.2080 -0.2968 -0.1067
31187W        W47661   7.345  11.073   5.215  0.2361  0.2852 -0.4592
31188W        W47662  11.251   4.717  13.726  0.0810  0.0095  0.0173
31189W        W47663  14.201   4.257   5.518  0.0441  0.1915  0.0301
31190W        W47664   9.441  17.923  12.786  0.1379 -0.0381  0.3242
31191W        W47665   6.849  17.154   2.945  0.0726  0.0420  0.1096
31192W        W47666   5.637  14.529  13.373 -0.0570 -0.2680 -0.3469
31193W        W47667  10.878   5.063  15.740 -0.0831 -0.0683  0.1172
31194W        W47668  16.744  13.338  12.584  0.0036  0.1084  0.1616
31195W        W47669   2.394  16.856   0.115  0.2262  0.2686  0.0465
31196W        W47670  16.206   7.459  15.603 -0.1549  0.0441 -0.0424
31197W        W47671  11.247   5.632   2.360 -0.2005 -0.2790  0.0716
31198W        W47672   4.953  13.783   0.613  0.0493 -0.1049  0.0974
31199W        W47673   9.676   7.093  13.333  0.2128  0.0019 -0.1954
31200W        W47674  16.896  11.714   2.554 -0.1957  0.0393  0.1348
31201W        W47675  14.203  10.667  13.011  0.3937 -0.1005  0.0815
31202W        W47676   2.761  17.757   2.636  0.0802 -0.1323 -0.0587
31203W        W47677   0.581  12.534  13.545  0.1165  0.1308 -0.0357
31204W        W47678  16.980  15.889  11.478  0.0365  0.0714  0.0661
31205W        W47679  15.902  12.565   4.112 -0.2515 -0.0755 -0.2383
31206W        W47680   2.474  13.258   3.481  0.0317 -0.1177 -0.1067
31207W        W47681   4.245  11.031   3.364 -0.1111  0.1672  0.0865
31208W        W47682   4.482   2.499  12.402  0.0210  0.0258 -0.0875
31209W        W47683   7.333   3.199  12.011 -0.0668 -0.1358  0.0447
31210W        W47684  13.989  14.160   1.225  0.1985 -0.0170 -0.0920
31211W        W47685   5.995   1.694  13.091  0.1455 -0.2143 -0.2494
31212W        W47686  13.335   2.226  14.544 -0.1517  0.0126  0.1933
31213W        W47687   2.453   9.960  15.677 -0.2638 -0.1549  0.4175
31214W        W47688   4.901  12.078  11.373  0.0357 -0.0693  0.0942
31215W        W47689   1.758   7.891   4.164 -0.1830 -0.1177 -0.0289
31216W        W47690   9.833  12.209   2.824  0.0055 -0.0486  0.3460
31217W        W47691  11.505  17.257  10.509 -0.1177  0.2688  0.0432
31218W        W47692   2.578   3.581  14.619  0.2898  0.1735 -0.0092
31219W        W47693   0.051  13.235   6.128  0.0326  0.1908 -0.1686
31220W        W47694  14.729   5.386   3.239 -0.0831  0.1282 -0.0577
31221W        W47695  15.801   7.634  13.866 -0.2241 -0.0987  0.1198
31222W        W47696   7.358   1.353  12.030  0.2136  0.1604  0.1443
31223W        W47697  14.891   2.797  15.804  0.1571 -0.2132 -0.1375
31224W        W47698   4.423  10.603  12.252  0.1970 -0.1862  0.0947
31225W        W47699  12.591   7.740  14.117  0.2197 -0.0712 -0.1749
31226W        W47700   6.831   4.867   5.047 -0.2574 -0.0992 -0.0057
31227W        W47701  12.356  10.447  10.815 -0.1137 -0.2136  0.1462
31228W        W47702   2.674  13.157   4.518  0.1609  0.4554  0.0319
31229W        W47703   8.393   6.278  14.741  0.2163 -0.3003 -0.0332
31230W        W47704   2.793  10.191   4.584 -0.1148  0.2363  0.0431
31231W        W47705   2.323  11.726  14.548  0.1156 -0.1966  0.1258
31232W        W47706  14.622   9.913  13.376 -0.0362  0.3815  0.0169
31233W        W47707  16.352   3.293   0.977  0.2236 -0.0818 -0.0258
31234W        W47708   5.767   2.212  15.505  0.1687  0.1659  0.1130
31235W        W47709   3.364   5.821  14.285  0.0211 -0.0411  0.0497
31236W        W47710  16.871  14.005   3.842  0.3575 -0.2215  0.2000
31237W        W47711  16.202   1.500   0.281 -0.2197  0.0865  0.2842
31238W        W47712   6.519  13.812   1.423  0.2710  0.3204  0.0172
31239W        W47713   3.127  11.790  15.798  0.1806  0.1101  0.0582
31240W        W47714   2.968   3.161   5.343 -0.0360  0.2116  0.2020
31241W        W47715  17.082  10.188   0.948  0.2501 -0.1143  0.0805
31242W        W47716   2.227   8.408   3.645  0.1536 -0.0226  0.0792
31243W        W47717   5.248  14.969   2.932  0.1471 -0.4905  0.0415
31244W        W47718  18.282   4.761  14.850 -0.0046 -0.0525 -0.2977
31245W        W47719  14.064   8.239   4.982 -0.0743  0.3146 -0.1544
31246W        W47720   8.588  13.196  14.587 -0.0658  0.3026  0.1340
31247W        W47721   1.063  16.772   0.381 -0.0333  0.2662 -0.0525
31248W        W47722   9.507   8.333  13.196 -0.0338  0.0851  0.2056
31249W        W47723  16.034   2.788  11.216 -0.3763  0.2073 -0.0006
31250W        W47724  12.327   0.656  14.847 -0.2505 -0.0350  0.2141
31251W        W47725  12.303  14.175  14.461 -0.0272  0.0035  0.0615
31252W        W47726   4.649  13.345  11.986  0.0310  0.4953  0.0603
31253W        W47727  15.506  13.541  12.510  0.0681  0.2101 -0.2495
31254W        W47728  11.913   2.873   4.178  0.3763 -0.1110 -0.2868
31255W        W47729  15.323   7.229   2.066  0.2096  0.0322  0.3583
31256W        W47730   1.749  10.241  12.977  0.0747 -0.0017 -0.0200
31257W        W47731   9.669   3.682  11.337  0.0212 -0.0351  0.0459
31258W        W47732  17.200   5.713   3.937  0.1305  0.3449 -0.0834
31259W        W47733   0.828  14.999   2.969 -0.0162 -0.0473  0.0134
31260W        W47734   3.041  12.270   2.688  0.1452  0.1145  0.2699
31261W        W47735   6.483   5.632   0.950 -0.1211  0.5957  0.0750
31262W        W47736  17.558   4.456  11.486 -0.0392 -0.1360 -0.0785
31263W        W47737   0.517  16.512   3.170 -0.2590  0.2228  0.1261
31264W        W47738  18.103  13.994  15.319  0.3520 -0.2142 -0.0167
31265W        W47739   9.187   7.926   3.427  0.1652 -0.1898  0.1606
31266W        W47740   2.614  12.453  13.398 -0.0383 -0.1307  0.0989
31267W        W47741   1.019   0.225   5.485 -0.1007  0.0092 -0.0005
31268W        W47742  14.501   5.893  15.749 -0.1347  0.0131  0.2594
31269W        W47743   1.787  11.049  10.924 -0.2961 -0.2796 -0.0352
31270W        W47744   2.028   4.085   2.745 -0.0553 -0.0493 -0.2092
31271W        W47745   6.378   7.231   2.810 -0.0104 -0.1245 -0.2364
31272W        W47746   9.545   1.568  14.856  0.4034  0.1009  0.1974
31273W        W47747   8.107  15.483   3.315  0.0106 -0.0316  0.1992
31274W        W47748  12.117  11.552   3.924  0.2102  0.0654 -0.3341
31275W        W47749   0.521  15.110  15.893 -0.1639 -0.4481 -0.0571
31276W        W47750  14.660   4.246  11.363 -0.1274  0.0760 -0.0702
31277W        W47751  11.060   5.053   1.522 -0.2670  0.0869 -0.0812
31278W        W47752   0.606   0.255  14.723  0.0669  0.2374  0.2273
31279W        W47753  12.526  12.499  11.966  0.0182 -0.0198  0.1652
31280W        W47754  17.633   5.177   5.160 -0.0313  0.3533 -0.0464
31281W        W47755   2.194  14.385   0.836 -0.3377  0.0510  0.2971
31282W        W47756   8.132  14.970   4.147  0.0376  0.1145  0.4236
31283W        W47757  15.418   3.878  11.589 -0.2581 -0.0731  0.1421
31284W        W47758  14.720   3.156   5.416  0.0108  0.1286  0.2340
31285W        W47759   8.858   7.543  15.799  0.0386 -0.0091 -0.1908
31286W        W47760  17.525   1.435  11.331 -0.3140 -0.1401  0.0683
31287W        W47761  16.602   3.401   0.529 -0.4558 -0.1732 -0.1680
31288W        W47762  16.064  18.428  12.451  0.0034 -0.3154 -0.0496
31289W        W47763   8.764  18.465  14.129 -0.2954 -0.4143  0.1521
31290W        W47764   9.554   6.117  12.549  0.1329  0.0865  0.3306
31291W        W47765  15.627   7.307   0.611  0.1089 -0.2844  0.2428
31292W        W47766   7.362   9.335   2.291 -0.2078  0.3219 -0.0240
31293W        W47767   6.071   7.487   4.062  0.0812  0.0890  0.2010
31294W        W47768   3.798  14.082   3.322 -0.1101  0.0538 -0.0815
31295W        W47769   7.369  11.313   4.187  0.1492 -0.0609 -0.0675
31296W        W47770   5.916   3.515   3.517  0.1191 -0.0914  0.1457
31297W        W47771   5.051  18.401   3.141 -0.1368 -0.1182  0.0962
31298W        W47772  17.650  16.915  10.247  0.0468 -0.0012 -0.1476
31299W        W47773   6.218   7.673  13.579 -0.0993  0.0067  0.0043
31300W        W47774   7.505   4.348  14.835  0.2544 -0.3609  0.1161
31301W        W47775   6.337   0.352   3.433  0.2522 -0.0221 -0.2961
31302W        W47776  14.587   1.874   2.849  0.1557  0.2452  0.0767
31303W        W47777   0.554  13.230  15.668  0.0464  0.0732 -0.1655
31304W        W47778  15.214   8.955  11.526 -0.0516 -0.1674 -0.1776
31305W        W47779   6.585   0.619   3.120  0.2875 -0.0410  0.0818
31306W        W47780  12.983  10.387  11.742 -0.2372 -0.2610 -0.1229
31307W        W47781  17.006   0.392  13.826  0.1526  0.1014  0.2011
31308W        W47782   3.038   1.396  12.565  0.1575 -0.2824  0.2191
31309W        W47783  13.331   9.895  11.927 -0.2037 -0.0013  0.0226
31310W        W47784  11.285  12.368   0.919  0.1186 -0.1132  0.1085
31311W        W47785  11.293  15.522  14.233  0.2846  0.0859 -0.2114
31312W        W47786   3.213   7.622  13.026  0.0468  0.0134  0.2183
31313W        W47787   8.680   9.537  15.270  0.1519  0.0675 -0.0471
31314W        W47788  16.493  10.401  14.733  0.4532  0.0669  0.0581
31315W        W47789  12.488  10.999  14.759 -0.2011 -0.0973  0.5788
31316W        W47790  13.119   0.816  15.740 -0.0343 -0.3932  0.0366
31317W        W47791   5.425   7.990  12.266 -0.0328  0.1079 -0.1299
31318W        W47792  14.201   8.345   1.184  0.1499  0.3939 -0.4799
31319W        W47793   2.638  14.519  15.066  0.1632 -0.1552 -0.1983
31320W        W47794  17.164  10.509   5.631 -0.1915  0.0539  0.0689
31321W        W47795   2.795  14.625   1.673  0.0398 -0.1926  0.0042
31322W        W47796  12.753   3.886  14.598  0.0340  0.2757  0.1546
31323W        W47797   0.584   9.706   5.368 -0.0102  0.2014  0.0234
31324W        W47798   9.332  13.471   0.312  0.3028  0.0356  0.0239
31325W        W47799  14.346   8.268   3.672 -0.0400  0.0463 -0.2147
31326W        W47800   9.422   1.218   3.385 -0.0118  0.2134  0.4156
31327W        W47801   4.341   0.589   5.169 -0.1085 -0.4482 -0.0200
31328W        W47802   8.275   7.032   4.666 -0.3250 -0.2655 -0.1529
31329W        W47803  16.788   9.575  10.737  0.0984 -0.2009  0.0929
31330W        W47804  14.084  16.665   1.366 -0.2001  0.0727  0.1925
31331W        W47805  14.321   0.220  13.371 -0.1913  0.2239 -0.0895
31332W        W47806  10.977   2.526   2.250  0.0775 -0.0241 -0.2101
31333W        W47807  12.099   2.533  15.680  0.0907 -0.1871 -0.2236
31334W        W47808  18.152  11.269  15.369 -0.1290  0.1312 -0.1858
31335W        W47809   8.719  17.918   4.419  0.0991 -0.0480 -0.3265
31336W        W47810   6.599  16.457   2.694  0.2236  0.0745  0.0977
31337W        W47811   3.171   7.980  14.698 -0.2709  0.0603 -0.2132
31338W        W47812  16.265  11.993   2.494  0.1239  0.3168 -0.3225
31339W        W47813  12.384  16.621  11.341  0.0285  0.1260  0.0865
31340W        W47814   5.155   5.312   1.911 -0.1543 -0.1662  0.0920
31341W        W47815   6.676  16.860   3.645  0.3383  0.1814 -0.0057
31342W        W47816   1.395   2.759   1.024 -0.2332  0.1329 -0.1863
31343W        W47817   2.696   7.261  10.955  0.1125  0.0551 -0.2589
31344W        W47818   6.833  12.856  10.970  0.0367 -0.2397  0.3449
31345W        W47819  14.954   6.463  12.401  0.2707 -0.0048  0.2777
31346W        W47820  18.127  10.027   5.475 -0.0873  0.0206 -0.1071
31347W        W47821  11.396   7.892  13.380 -0.3295 -0.1768 -0.2766
31348W        W47822   7.593  15.487  11.931  0.3786 -0.1002 -0.2490
31349W        W47823   9.065   6.460  15.855 -0.0326  0.1830 -0.0310
31350W        W47824  14.126  10.438  15.257  0.2502 -0.0784  0.0491
31351W        W47825  14.304   6.630   3.438  0.0370 -0.0019  0.0544
31352W        W47826  15.208   4.278   4.808 -0.0642 -0.0676 -0.0482
31353W        W47827  13.445  15.664  12.149  0.0575  0.1803 -0.1401
31354W        W47828   2.255  17.881  12.748 -0.1180 -0.0612 -0.2048
31355W        W47829   0.869  18.288   4.555 -0.2534  0.2175 -0.0142
31356W        W47830   4.631  15.514  15.300 -0.0961  0.2129  0.2132
31357W        W47831   2.329  12.056  11.596 -0.0327  0.1544  0.2141
31358W        W47832  18.126   5.479  14.040  0.0442  0.2883  0.0134
31359W        W47833  15.085  13.775   3.504  0.2857 -0.1122 -0.1701
31360W        W47834   5.912  16.767  15.346  0.1442 -0.4549  0.0746
31361W        W47835   7.594  17.818  13.829  0.1048  0.0896 -0.2128
31362W        W47836  11.566   9.971   5.107 -0.0458 -0.1997 -0.0761
31363W        W47837  18.333  12.547  13.096  0.1114 -0.0013  0.0078
31364W        W47838   5.023  16.376   5.127 -0.1485 -0.1889  0.3736
31365W        W47839  17.851   8.324  12.272 -0.2229  0.1592  0.1641
31366W        W47840   4.040  13.850   5.146  0.1490  0.0552 -0.1820
31367W        W47841  10.351  17.636   3.832  0.0848  0.1316 -0.0326
31368W        W47842   5.112  10.309  14.423  0.0423  0.0495  0.1560
31369W        W47843  13.855   0.663   1.535  0.2231  0.2170  0.0222
31370W        W47844   1.687  13.955   2.742  0.0652 -0.0841  0.3908
31371W        W47845   1.672   4.419   4.000  0.1323 -0.0744  0.0005
31372W        W47846  10.951   8.205   5.252  0.0070 -0.2318 -0.1700
31373W        W47847   3.817  11.897   4.592  0.1225  0.1800  0.2045
31374W        W47848  10.493   3.483   1.265 -0.2604  0.2015 -0.1261
31375W        W47849   1.681  15.559  15.199 -0.1082 -0.3243  0.1494
31376W        W47850  15.664  12.573  12.096 -0.2529  0.0120 -0.1105
31377W        W47851  17.863  11.566  11.020  0.1697  0.3320  0.1411
31378W        W47852  13.449   6.380  13.596  0.1107  0.0504 -0.1228
31379W        W47853  15.514  12.984   6.420 -0.2443  0.1048 -0.0342
31380W        W47854  10.771   1.023  15.087  0.1969 -0.0673 -0.0594
31381W        W47855  11.476   6.425  13.649  0.2942  0.1961 -0.0023
31382W        W47856   3.748  11.157   1.055  0.0116 -0.2032  0.1589
31383W        W47857  15.488   8.802   4.737 -0.3579  0.0486 -0.0303
31384W        W47858   7.496  11.532   4.625 -0.1652  0.0032 -0.2011
31385W        W47859   2.901   9.536  11.891 -0.2677  0.0598 -0.0174
31386W        W47860   6.874   6.502   4.014  0.0784 -0.0807  0.0683
31387W        W47861  12.490  16.266   4.482 -0.2261 -0.0263 -0.0391
31388W        W47862  17.149  16.317  11.736  0.2191  0.2597 -0.1937
31389W        W47863  10.513   3.890   3.391 -0.2153  0.2131 -0.0238
31390W        W47864  12.259  10.636   4.387  0.0437  0.0293  0.1293
31391W        W47865   7.207  11.089   4.714 -0.0155 -0.0654 -0.2641
31392W        W47866  12.050   0.608   4.155 -0.1036  0.1548 -0.3176
31393W        W47867  10.406  12.054   2.216  0.0849 -0.0750 -0.0136
31394W        W47868   2.260  14.562   4.687  0.2002  0.0368 -0.1543
31395W        W47869   7.320   4.760  15.003 -0.2831  0.1270 -0.0420
31396W        W47870   4.995  15.146  15.387  0.0183  0.3106 -0.1958
31397W        W47871  10.289   4.886  11.352  0.0329  0.1459  0.0171
31398W        W47872   3.078   1.817   3.055 -0.0126  0.2141  0.3589
31399W        W47873  11.828  12.430   0.803  0.0249 -0.2710 -0.1218
31400W        W47874   6.482   0.481   1.845 -0.3426  0.2193 -0.0607
31401W        W47875  14.909   4.601  11.095  0.2909  0.1125 -0.0490
31402W        W47876   7.121  16.484   4.431  0.2535 -0.1411 -0.2491
31403W        W47877   1.522  13.814   3.343  0.0345  0.1233  0.2054
31404W        W47878  16.096   0.587  11.185 -0.0272  0.0175 -0.2429
31405W        W47879   5.732  17.899   0.654  0.0365  0.1140 -0.1303
31406W        W47880   8.550  13.102   3.696  0.2535 -0.2882 -0.4500
31407W        W47881   8.816   3.308   1.897  0.0808 -0.0422 -0.0335
31408W        W47882   9.409   8.748   5.072  0.3026  0.0807  0.0115
31409W        W47883   4.315   3.929   0.583 -0.1369  0.2744  0.3208
31410W        W47884  14.569  16.984  15.626  0.0542  0.0166  0.0499
31411W        W47885   8.920  14.608   1.524 -0.0303 -0.0356  0.1417
31412W        W47886   1.279   3.431   2.561 -0.0463  0.2687  0.1842
31413W        W47887   3.637   6.847  11.119  0.2906  0.1950  0.1370
31414W        W47888   7.121   9.518   9.786  0.0251 -0.1429 -0.0035
31415W        W47889  17.399   1.829   1.129  0.0565  0.0422 -0.1579
31416W        W47890  15.968   5.193  12.286  0.0464 -0.2387  0.3824
31417W        W47891  17.889   3.147  13.031  0.2849 -0.0882 -0.1025
31418W        W47892   6.834   6.448  14.242 -0.0199 -0.3067 -0.1886
31419W        W47893  16.036  18.254  14.328 -0.0938  0.1189  0.1660
31420W        W47894   6.925  11.086  14.976 -0.2170  0.2845  0.4786
31421W        W47895   0.329   8.239   4.322  0.5365  0.3922 -0.0023
31422W        W47896   4.420  12.542   4.041 -0.0367 -0.3550  0.0848
31423W        W47897   2.753   9.000  11.506 -0.1335  0.3739 -0.0417
31424W        W47898  15.491  12.245  15.436 -0.0269 -0.0986 -0.2064
31425W        W47899   6.384   1.806   0.145 -0.2773 -0.0343 -0.2826
31426W        W47900  14.768   0.525   5.017  0.0632 -0.3031 -0.0956
31427W        W47901   7.135  17.319   1.401  0.0739  0.1095 -0.0624
31428W        W47902   5.690   6.146   4.198  0.0895  0.1559 -0.2772
31429W        W47903   1.986   8.337   4.965 -0.1070  0.0856  0.0301
31430W        W47904  13.021   8.602   1.961  0.1120  0.0038  0.1469
31431W        W47905   5.274   3.794   1.057  0.3331 -0.0617  0.4323
31432W        W47906  12.868   6.408   2.485  0.0145  0.2367  0.0598
31433W        W47907  12.243   0.011   4.549  0.0669  0.2069  0.0053
31434W        W47908   4.035  11.211   1.983 -0.2637 -0.5323  0.2993
31435W        W47909   9.158   3.216   0.219 -0.1552  0.0382 -0.3079
31436W        W47910   9.701   0.802  10.925 -0.0624  0.0106 -0.2416
31437W        W47911  16.059  10.894  14.950  0.0719 -0.0621  0.2252
31438W        W47912   6.130  14.326  14.107  0.1483  0.0909 -0.0968
31439W        W47913  11.991   7.351   0.682 -0.0157  0.1498 -0.1794
31440W        W47914   7.131   7.869  12.187 -0.0212 -0.1820  0.0409
31441W        W47915   4.725  16.730   4.876  0.0242  0.2433  0.1414
31442W        W47916  12.270   1.625  14.540 -0.0808  0.2814 -0.1297
31443W        W47917  10.760  12.280  13.919 -0.2459 -0.0728  0.1139
31444W        W47918   4.167   5.847   1.900 -0.0725  0.0502  0.1815
31445W        W47919  14.630  16.947   2.801 -0.1236  0.2217  0.0666
31446W        W47920  15.807  12.869   0.570 -0.0653 -0.1438 -0.0015
31447W        W47921  12.307  16.982  13.656 -0.4187  0.0150 -0.1030
31448W        W47922  16.322   3.524  12.490 -0.0548  0.2457  0.0845
31449W        W47923   7.909  14.105   0.160  0.0306  0.0457  0.1161
31450W        W47924   2.601  12.231   2.151  0.0886 -0.0265 -0.1584
31451W        W47925   2.645   3.803   4.150 -0.0629  0.1874 -0.1250
31452W        W47926   6.127   9.747   4.360 -0.1471  0.2648 -0.0085
31453W        W47927  11.098   3.010   2.807 -0.0642 -0.0619  0.0457
31454W        W47928  11.047   5.093  12.488  0.1288  0.0107  0.3275
31455W        W47929   5.519  14.176  10.882  0.2308 -0.0442 -0.1747
31456W        W47930  18.110  10.354  15.918  0.2519  0.2831  0.0135
31457W        W47931   7.850   7.964   4.152 -0.2209 -0.3452 -0.2673
31458W        W47932   3.350  15.790   0.492 -0.2151  0.3062 -0.3635
31459W        W47933  15.844  13.412  11.690  0.1288  0.1471 -0.0140
31460W        W47934   1.703  15.386   4.303  0.1222 -0.2146  0.3318
31461W        W47935   3.725   6.625  12.288  0.0936  0.0868 -0.2246
31462W        W47936   2.947  12.607   2.130  0.1168  0.1125 -0.2153
31463W        W47937   7.314   0.833  13.246  0.0894 -0.4065  0.1167
31464W        W47938   8.272  13.395   3.991 -0.0515 -0.3438 -0.3918
31465W        W47939  12.751   6.394   1.261 -0.1464  0.1469  0.2038
31466W        W47940  12.841  12.108  15.603 -0.0876  0.0385 -0.0513
31467W        W47941  13.639  18.457  11.082 -0.1039  0.2436  0.0696
31468W        W47942   8.256  17.078  11.247 -0.0430 -0.1132  0.2143
31469W        W47943  11.517   5.737  12.882  0.0889  0.0982 -0.1027
31470W        W47944  16.902   0.588  12.109 -0.0253  0.1167  0.4120
31471W        W47945  13.382  12.794   0.175 -0.1179 -0.0838 -0.3275
31472W        W47946  13.065  13.853   5.391  0.2764  0.0198  0.1972
31473W        W47947  12.409   2.413   0.818 -0.1860 -0.1512 -0.0773
31474W        W47948  15.661   9.957  11.436  0.0854  0.2123 -0.1155
31475W        W47949   1.715  10.578   2.120 -0.1460 -0.2521  0.0459
31476W        W47950   5.734   0.061  13.680 -0.0798  0.0682 -0.6707
31477W        W47951  14.619   9.563  12.314  0.1748  0.2445  0.1055
31478W        W47952   4.651  16.501  11.490 -0.2143 -0.0583 -0.1627
31479W        W47953   9.569  12.901   1.041  0.1234  0.1034  0.3906
31480W        W47954  10.638  15.968  15.182 -0.2759 -0.3944 -0.2584
31481W        W47955  10.908  10.771   4.350 -0.1052 -0.2145 -0.1246
31482W        W47956   5.283   2.806  10.924 -0.2997  0.0857  0.1952
31483W        W47957   5.379   4.742   4.198 -0.0060 -0.1315  0.0677
31484W        W47958   3.796   4.554   4.525  0.1148 -0.0811  0.0872
31485W        W47959  16.331   5.988   4.427 -0.0231 -0.0560 -0.1240
31486W        W47960   9.129   6.215  13.881  0.0435 -0.1689 -0.3168
31487W        W47961   2.296  12.250   0.721 -0.0564 -0.2771  0.1426
31488W        W47962   7.751   2.185  11.725 -0.1083  0.0652 -0.0213
31489W        W47963   2.134   6.097   0.248 -0.0998 -0.0527 -0.1673
31490W        W47964   6.494   8.973  12.785 -0.3197 -0.1278  0.1676
31491W        W47965   2.950  10.355   3.643 -0.0450 -0.1091 -0.0785
31492W        W47966  12.644   1.318   4.627 -0.1148  0.3883  0.1449
31493W        W47967  10.175   1.320   0.009 -0.1931  0.1131 -0.3214
31494W        W47968  11.425  16.852   5.006 -0.1498  0.2364 -0.0068
31495W        W47969  12.304   2.937  12.187  0.2490  0.0047  0.2514
31496W        W47970  14.126   7.620   3.173  0.1902 -0.1412  0.2090
31497W        W47971   7.733   9.361  12.969  0.1382  0.3471 -0.1169
31498W        W47972   3.227  16.856   4.176  0.0103 -0.2124 -0.0481
31499W        W47973  10.190   6.960   2.631 -0.1467 -0.2042  0.1837
31500W        W47974   5.304   4.675  11.919  0.2684 -0.1749 -0.4488
31501W        W47975   4.680  14.570   1.699 -0.2781 -0.2498 -0.2860
31502W        W47976  13.528  13.052   5.556 -0.0319 -0.1393  0.1403
31503W        W47977  16.611   6.960   4.123  0.4732  0.0466  0.0736
31504W        W47978   7.008   1.029   3.032 -0.2317 -0.1395  0.0193
31505W        W47979  11.754   3.315  13.625 -0.0808  0.0140 -0.0814
31506W        W47980  17.983  15.645  15.963  0.4835  0.1984  0.1286
31507W        W47981   7.322   9.140   1.791 -0.0662 -0.2223 -0.3573
31508W        W47982   5.976   2.209   5.121  0.3415  0.1069  0.0886
31509W        W47983   4.551   8.567   2.426 -0.1560  0.1086  0.0129
31510W        W47984  14.919  15.371  14.690  0.0748  0.0156  0.1849
31511W        W47985   3.231  17.869   2.095 -0.0682  0.0305 -0.1580
31512W        W47986  12.514   5.502  14.902 -0.0304  0.0710 -0.1452
31513W        W47987   1.739  13.648   5.451 -0.3106  0.0355  0.0248
31514W        W47988  10.686   0.728   5.332  0.2300 -0.1364  0.1556
31515W        W47989  17.809   4.651   0.923 -0.1678 -0.1430  0.1886
31516W        W47990   8.830   1.706  11.341  0.2611 -0.0546  0.0368
31517W        W47991  14.538   7.833   1.296  0.1809 -0.2884 -0.1993
31518W        W47992  12.355  16.190  13.359 -0.3383  0.1275  0.0267
31519W        W47993   6.352  11.954   1.564 -0.1434  0.0011  0.1568
31520W        W47994   7.744   5.596  15.033 -0.0036 -0.2901  0.2671
31521W        W47995   1.610  12.212   2.290  0.1184 -0.2334 -0.0837
31522W        W47996  14.659   9.503   3.223 -0.0192  0.0787 -0.0380
31523W        W47997   0.541   2.816   2.180 -0.0411  0.0575  0.0579
31524W        W47998  14.140  17.291  14.660 -0.0291  0.1187 -0.2041
31525W        W47999   5.467  14.419   3.734  0.0152 -0.0023 -0.0053
31526W        W48000  18.242   6.533  14.149 -0.2551 -0.1895  0.1497
31527W        W48001   3.673   4.771   2.653 -0.0828 -0.2023  0.1626
31528W        W48002   3.011  12.784   2.977 -0.2307 -0.0056 -0.0946
31529W        W48003  15.801   0.018  11.603 -0.3874  0.1503 -0.1367
31530W        W48004   2.651   5.269   5.411 -0.0067  0.0909  0.0847
31531W        W48005  12.856   4.629   0.131 -0.3252 -0.0403 -0.0784
31532W        W48006  16.114   0.428  12.668  0.3719 -0.1050 -0.1223
31533W        W48007   8.551   9.197  12.443 -0.3889  0.0352 -0.0218
31534W        W48008  14.480   0.431  14.384  0.1301  0.3521 -0.0430
31535W        W48009  13.367   9.305  14.133  0.0411 -0.1635 -0.0942
31536W        W48010   8.770  10.759  13.023 -0.1195 -0.1011  0.1914
31537W        W48011   0.475  18.285   3.670 -0.0962  0.1128  0.2702
31538W        W48012  15.442   2.563  10.211 -0.2230  0.3871 -0.0453
31539W        W48013   8.853  11.407   2.321  0.1264  0.1353  0.0163
31540W        W48014   3.990   2.205   4.314 -0.0407  0.0164 -0.1438
31541W        W48015   3.412  13.084   0.449  0.0007  0.1927  0.1872
31542W        W48016   4.934   6.020  14.231 -0.0736 -0.1299 -0.3129
31543W        W48017   1.561  10.459   2.609 -0.2524 -0.2165  0.1430
31544W        W48018  10.168  16.160   5.265 -0.2128  0.0973 -0.1292
31545W        W48019  13.604   7.993   0.405  0.0914  0.0926 -0.0834
31546W        W48020   6.772   0.405  15.298  0.1120  0.0292  0.0834
31547W        W48021   5.124   1.726  15.680  0.3305 -0.0347 -0.2097
31548W        W48022  13.726   5.253  12.556 -0.1113 -0.1040 -0.1031
31549W        W48023   4.005  18.302   0.605 -0.1221  0.3362 -0.0713
31550W        W48024  12.302   3.376  11.337 -0.1993  0.0973  0.0703
31551W        W48025  18.228   1.363   4.941 -0.2720 -0.0278 -0.1478
31552W        W48026   4.219  11.650  14.186 -0.2086  0.1156  0.1580
31553W        W48027  10.300  14.234  14.609 -0.0851  0.3139 -0.3129
31554W        W48028  14.166   3.151   1.114  0.0785 -0.0023  0.2199
31555W        W48029  13.428   6.460   1.577  0.0784 -0.1099 -0.1178
31556W        W48030  15.500  14.133   9.764 -0.1983  0.1337  0.1332
31557W        W48031  14.139  17.203   2.984 -0.0296 -0.2007  0.1673
31558W        W48032   5.446   5.202   2.783 -0.0783 -0.1885 -0.0153
31559W        W48033   7.469  12.708  13.664 -0.1117 -0.4299  0.0721
31560W        W48034   9.081   3.222   1.048 -0.2180 -0.2512  0.2101
31561W        W48035  11.385  10.466   0.504  0.2486  0.0569 -0.3032
31562W        W48036   5.557   5.634   1.657  0.2524  0.2499  0.0512
31563W        W48037   3.359  14.392  12.967  0.2513  0.0221  0.2798
31564W        W48038  10.256  14.970  11.407  0.1241  0.2067 -0.1230
31565W        W48039  15.254   3.972  12.552  0.0014  0.1678  0.7051
31566W        W48040   2.046   2.859  14.613 -0.2076 -0.2779 -0.3097
31567W        W48041  10.708   8.191   0.918  0.3772 -0.1480  0.0013
31568W        W48042   3.505   9.647   3.369  0.0546  0.2183  0.0025
31569W        W48043   1.135   1.830   0.802  0.4740 -0.1600  0.0322
31570W        W48044  13.940   2.200  12.995 -0.2287  0.0314  0.2096
31571W        W48045   8.109  10.095   5.127  0.0304  0.0431 -0.1481
31572W        W48046  12.325  13.460   1.768 -0.0570 -0.1218 -0.2078
31573W        W48047   8.903   6.370   3.671  0.0912  0.0594 -0.0820
31574W        W48048   3.358  10.512  11.380  0.0752 -0.0299  0.3186
31575W        W48049   1.319   9.212  14.863  0.1890 -0.0952 -0.3835
31576W        W48050  15.400   4.869  14.842  0.0909 -0.0417 -0.1112
31577W        W48051  14.513  13.517  13.955  0.2838 -0.1649 -0.0311
31578W        W48052  11.033  12.183   4.231  0.1376 -0.0888 -0.0992
31579W        W48053   4.086   8.438   4.223  0.2026 -0.2486  0.3822
31580W        W48054  13.365   8.305   0.082 -0.4651 -0.2943  0.0686
31581W        W48055   9.845  17.160   0.915  0.2904  0.0003  0.0883
31582W        W48056   6.492   8.656   5.551  0.1640  0.0810  0.2880
31583W        W48057   3.398   8.825   3.566  0.1064  0.0103 -0.1122
31584W        W48058   8.907   0.920  14.644  0.4103  0.2423  0.1078
31585W        W48059   5.411   7.292   2.717  0.1973 -0.1625  0.1915
31586W        W48060   2.093   9.633   0.687  0.1332 -0.2376 -0.0812
31587W        W48061  10.190  15.255  13.259  0.0347  0.1574 -0.0617
31588W        W48062   0.227   7.002   0.964  0.2636  0.1048  0.1804
31589W        W48063   5.637   8.239   4.896 -0.0890  0.1850  0.1415
31590W        W48064  13.146   9.405  12.674  0.0011 -0.3160 -0.2569
31591W        W48065  10.687   1.091   0.777  0.0369  0.0862  0.0270
31592W        W48066   9.777   9.182  11.220 -0.0405 -0.1326  0.1698
31593W        W48067  15.141   6.760   2.550 -0.2981 -0.0256  0.1509
31594W        W48068  12.516   5.000  14.885 -0.1299  0.0493 -0.3184
31595W        W48069   5.031   0.652  10.399  0.2915 -0.0766 -0.2086
31596W        W48070  17.164   4.015   0.833  0.1233  0.0987  0.0876
31597W        W48071   3.110   7.674  11.168  0.0562 -0.2492 -0.0127
31598W        W48072  11.290   6.985   0.508 -0.1876  0.0987  0.0666
31599W        W48073   6.429   6.460   2.369  0.0935  0.2830  0.2582
31600W        W48074   0.397   0.054  13.170  0.2264 -0.3819 -0.0789
31601W        W48075  16.365  16.787   4.217 -0.0005  0.1427 -0.2610
31602W        W48076   1.931  17.752  13.077 -0.0295  0.2639  0.1093
31603W        W48077  17.412   7.678  13.462  0.4672 -0.0597  0.0582
31604W        W48078   9.322  18.024   5.904  0.2796  0.0175 -0.1469
31605W        W48079  14.737   2.477  12.491  0.1001  0.0592  0.0966
31606W        W48080   9.108   3.441  11.236 -0.2366 -0.0849 -0.0289
31607W        W48081   9.865   7.512   4.572 -0.1040  0.2953  0.2398
31608W        W48082  10.060  15.873  12.753 -0.1944 -0.0502  0.1625
31609W        W48083  13.849   7.344   4.436 -0.0192 -0.3465 -0.0530
31610W        W48084   4.029   2.106  13.303 -0.1100  0.0353 -0.2085
31611W        W48085  15.448  14.922  11.676 -0.0560 -0.2290 -0.2701
31612W        W48086  12.335   4.014  13.421  0.0054  0.1851 -0.1800
31613W        W48087   5.402   2.099  15.174 -0.0930 -0.0732 -0.0585
31614W        W48088   3.364  17.116   5.503 -0.0209  0.1197 -0.1301
31615W        W48089   9.033  12.053  11.835 -0.0274 -0.2369 -0.0009
31616W        W48090   3.740  12.557  15.608 -0.0395  0.1067  0.1088
31617W        W48091   7.087  17.241   3.605 -0.3432  0.1392  0.0436
31618W        W48092   1.437   1.198  14.440  0.0013 -0.1951  0.1195
31619W        W48093   7.016   2.112   2.241 -0.1324  0.2393 -0.1938
31620W        W48094  15.735  13.911  11.667 -0.0689 -0.2652 -0.0587
31621W        W48095   3.709  13.830  15.089  0.1523 -0.0467 -0.0790
31622W        W48096   3.151   7.887   5.560  0.0455  0.3647 -0.5281
31623W        W48097  12.535   3.544   1.545  0.0618  0.0249 -0.2318
31624W        W48098  11.770  12.316   2.277  0.0246  0.1160  0.1716
31625W        W48099   3.895   8.297  12.186 -0.0594  0.2213  0.1069
31626W        W48100   6.235  10.723   1.554  0.0908  0.0121  0.2008
31627W        W48101  17.679   1.826   0.610 -0.0596 -0.0402  0.1306
31628W        W48102  15.317   3.702  11.028 -0.0893 -0.3069 -0.0827
31629W        W48103  11.751   6.019  15.034 -0.0937 -0.1502 -0.2816
31630W        W48104   9.505  16.640  15.498 -0.1393  0.1397  0.2816
31631W        W48105   4.512   6.298   3.437  0.2474 -0.0764  0.1006
31632W        W48106   0.031  12.447   0.529  0.3085  0.2585 -0.0343
31633W        W48107   3.168   8.289   2.627 -0.3718  0.2494 -0.0138
31634W        W48108  16.193   4.207   2.945  0.2296  0.0326  0.1366
31635W        W48109  10.855  18.377  15.502 -0.0880 -0.1918 -0.1163
31636W        W48110  11.355   8.578  14.438  0.3400 -0.0927 -0.1939
31637W        W48111  12.469  14.777  11.300  0.1065 -0.0187  0.2427
31638W        W48112  10.428  15.718  13.062  0.2221  0.1474 -0.0166
31639W        W48113  10.026  11.217   0.498  0.1371  0.0678 -0.0325
31640W        W48114  17.398  18.156   0.818 -0.1000  0.4211 -0.0017
31641W        W48115   3.276   5.948   0.556 -0.1669 -0.1740  0.4929
31642W        W48116   7.388   4.920  15.483 -0.1176  0.1855 -0.2523
31643W        W48117   6.987   1.718   1.782 -0.0861 -0.0537  0.4271
31644W        W48118  13.944  15.295  12.236 -0.0620  0.0719 -0.5270
31645W        W48119  17.607   4.927  11.522  0.0571 -0.2164 -0.3036
31646W        W48120  11.632   1.498  11.059 -0.2596  0.1736  0.0358
31647W        W48121   3.701  13.197   2.401 -0.1377 -0.1601 -0.1337
31648W        W48122   7.031   5.080   1.136 -0.1553  0.0292 -0.0470
31649W        W48123   3.798   1.050  10.807 -0.2454  0.1566 -0.0498
31650W        W48124   5.714   9.119   2.055 -0.0031 -0.0686 -0.2892
31651W        W48125  16.492   5.677  13.027  0.0855 -0.0707 -0.2332
31652W        W48126   7.467   6.774   2.655  0.0098  0.0655  0.2783
31653W        W48127  11.294   5.289  14.529 -0.2600 -0.0559 -0.1115
31654W        W48128   8.959   9.399  11.310 -0.0064 -0.2727  0.0094
31655W        W48129  11.086  11.060  14.380 -0.2194  0.0599  0.2851
31656W        W48130  12.137  13.020   2.584  0.0363  0.0019  0.0986
31657W        W48131  18.370   3.188   5.042 -0.3112 -0.3500  0.1552
31658W        W48132  15.275   9.537  11.784  0.0542 -0.0506  0.2613
31659W        W48133   0.703   3.543  11.247 -0.1916 -0.0858 -0.1011
31660W        W48134  17.253   5.555   5.252 -0.1169 -0.2388 -0.0929
31661W        W48135  15.720  15.085   0.504 -0.3763 -0.1056  0.1453
31662W        W48136  15.391  10.166  13.471 -0.2125 -0.1266 -0.1110
31663W        W48137   8.749   6.066  15.934 -0.1432 -0.0586 -0.0367
31664W        W48138   4.561  10.097   2.616 -0.0854 -0.2673 -0.1770
31665W        W48139   2.937  16.840  10.943  0.0841  0.1377 -0.1296
31666W        W48140  17.045   2.737  11.269 -0.1429  0.3628  0.1994
31667W        W48141   4.339   9.065  12.394  0.0128 -0.0276  0.1994
31668W        W48142   3.510   6.773  11.883  0.1764  0.2550 -0.1881
31669W        W48143   5.784   2.379   0.061 -0.3348  0.1732 -0.2910
31670W        W48144   0.939  12.304   4.750 -0.1250  0.3419 -0.2064
31671W        W48145   8.164   9.344   3.652  0.0036 -0.2716 -0.0152
31672W        W48146   4.161  16.251  12.928 -0.2485 -0.0926 -0.0434
31673W        W48147   2.613   8.407   3.320 -0.1808  0.0559  0.4152
31674W        W48148   2.025  14.448   5.417 -0.1282  0.1300 -0.1424
31675W        W48149   7.168   5.102   4.605 -0.0496  0.0406 -0.0390
31676W        W48150  10.207   8.283   4.839  0.5441 -0.0807  0.1396
31677W        W48151   2.730  13.905  12.704  0.2477 -0.1735  0.3273
31678W        W48152  17.502  12.293   0.004 -0.0805 -0.0422  0.2827
31679W        W48153  15.078   6.018   2.564  0.0503 -0.0715  0.3049
31680W        W48154  14.045  16.928  13.661 -0.1285  0.3403 -0.0058
31681W        W48155   6.448   7.450  13.210  0.1959 -0.0499  0.1626
31682W        W48156  10.605  18.315   0.838  0.0549  0.0750 -0.0993
31683W        W48157   6.700   2.559   5.111  0.0132  0.4680  0.1719
31684W        W48158  12.103   7.440  14.295 -0.1822  0.0471  0.2654
31685W        W48159   3.501   2.129  14.958  0.0610 -0.0357  0.0535
31686W        W48160  17.408  15.861  13.983 -0.3147  0.2645  0.0659
31687W        W48161   8.839   1.583   9.538 -0.2618  0.1584  0.0992
31688W        W48162  16.517  15.831  15.595  0.0636 -0.1914  0.1122
31689W        W48163  11.340  12.794  12.730  0.2016 -0.1105 -0.0703
31690W        W48164  15.387   7.776   0.813 -0.2692  0.2954  0.1679
31691W        W48165  12.105  13.505  15.860  0.0563  0.3197 -0.3243
31692W        W48166   0.853   7.642   2.799 -0.0296  0.1939 -0.0667
31693W        W48167  12.715  13.078  13.967  0.0192 -0.3566 -0.1132
31694W        W48168  11.648   5.679  10.941 -0.1051 -0.0001 -0.0169
31695W        W48169  17.160   8.171  13.197  0.0838 -0.0910 -0.1547
31696W        W48170  11.019   7.936  11.061  0.0846  0.1280 -0.1700
31697W        W48171  13.885   0.733   1.020 -0.1727  0.0610 -0.3143
31698W        W48172  10.770   3.861   9.700  0.1635 -0.3150  0.3223
31699W        W48173  18.302   3.999   3.044  0.0344  0.1246  0.0855
31700W        W48174  15.430  13.716  12.032 -0.1026 -0.0070  0.2280
31701W        W48175  16.803  16.084   1.974  0.0902 -0.2950 -0.3989
31702W        W48176   2.947  16.762   1.726 -0.1453  0.0654  0.1083
31703W        W48177   9.232   5.116  11.444 -0.0579  0.0747  0.2505
31704W        W48178   6.508   3.097  12.496  0.0572  0.3173  0.1458
31705W        W48179   3.998  10.314  15.217 -0.3993 -0.1837  0.0805
31706W        W48180  10.367   8.529  12.511  0.1878  0.0945 -0.1549
31707W        W48181  13.358  18.083  11.330  0.1697  0.1195  0.1576
31708W        W48182   2.732   9.954  13.341  0.1842 -0.0771 -0.1537
31709W        W48183   5.760  14.095   2.183 -0.0272 -0.0238 -0.0176
31710W        W48184   9.937  14.213   3.521  0.2040  0.0840 -0.1027
31711W        W48185  11.521   7.961   4.648  0.3223  0.0360 -0.0077
31712W        W48186  16.598   4.676   0.584 -0.3160  0.2318  0.1929
31713W        W48187   9.957   4.510  11.483 -0.1736  0.1169 -0.3651
31714W        W48188  16.848  17.996   4.615  0.1168  0.1725 -0.1769
31715W        W48189   2.936  10.472   2.092  0.1342 -0.1058  0.2686
31716W        W48190   6.364   7.167  14.506  0.1283  0.3370 -0.3863
31717W        W48191  18.440  16.588  14.300 -0.0741  0.1207  0.0476
31718W        W48192   7.144  10.162  14.818  0.3679 -0.1758 -0.1854
31719W        W48193   9.845   7.428   2.858  0.0424  0.1473 -0.0872
31720W        W48194  11.619   0.090  14.067 -0.1673  0.3000  0.1041
31721W        W48195  17.220  12.166   2.564 -0.1771  0.2058  0.0377
31722W        W48196  16.347   6.207   5.321 -0.1251  0.0045  0.0407
31723W        W48197   0.324   1.141  15.689 -0.3603 -0.1914 -0.1002
31724W        W48198   3.271   5.378  14.055 -0.2037  0.0709  0.2194
31725W        W48199  10.011   7.085   1.804 -0.1288  0.2231 -0.1413
31726W        W48200  12.837  12.568  11.456 -0.1304  0.2963  0.1835
31727W        W48201   8.140   3.290  15.697  0.0355 -0.0903  0.1299
31728W        W48202  12.872   6.812   2.183  0.0445 -0.1837  0.0101
31729W        W48203   8.011   7.261  12.371  0.2553 -0.2171 -0.1834
31730W        W48204  14.613   7.975   2.416  0.1626 -0.1637 -0.1317
31731W        W48205   5.350  16.059  14.900  0.1035  0.0515 -0.1383
31732W        W48206   9.618  12.999   3.438  0.2481 -0.1269  0.0673
31733W        W48207   5.084  16.642   3.208  0.1666  0.0903  0.1149
31734W        W48208   7.375  13.675   5.348 -0.1375  0.0137 -0.0256
31735W        W48209  15.706   6.820  15.194  0.2311 -0.0746  0.0434
31736W        W48210  13.325   4.527  15.093  0.0506  0.1262 -0.2450
31737W        W48211  15.095  17.626   3.851 -0.0370  0.0219 -0.2280
31738W        W48212  16.769  14.915  12.045  0.2005  0.0701 -0.0554
31739W        W48213   1.810   6.282   3.991  0.0581  0.1974  0.0012
31740W        W48214   9.530  17.817   2.160 -0.1183 -0.1170  0.3423
31741W        W48215   3.772   2.906  15.257  0.1790  0.2326  0.0619
31742W        W48216  14.796   3.408  14.435  0.1214 -0.1692  0.0564
31743W        W48217   0.331   1.613   1.619  0.0019  0.0150 -0.2749
31744W        W48218   7.372   7.346   5.613  0.0082 -0.1277  0.1341
31745W        W48219  11.828   5.029   1.733  0.2037  0.0971 -0.1834
31746W        W48220   3.855   6.292   1.129 -0.1210  0.3895  0.1119
31747W        W48221   4.050   3.226  13.493 -0.4315  0.0030  0.2040
31748W        W48222  15.223   5.667   5.197  0.0467 -0.0130  0.2100
31749W        W48223  11.589  11.396   2.836 -0.1677  0.4577 -0.3137
31750W        W48224   8.522   0.605   3.676 -0.3919  0.0344 -0.2653
31751W        W48225   5.536   9.961   3.426  0.0669 -0.0749 -0.2506
31752W        W48226   4.488   4.710  14.051 -0.2113 -0.3450  0.1850
31753W        W48227  17.499  16.622   2.658 -0.2982 -0.1832  0.2576
31754W        W48228   2.409  11.104  13.943 -0.2119  0.1313 -0.1575
31755W        W48229   9.463  11.273  12.469  0.2049  0.2131  0.2788
31756W        W48230  17.800  18.071  14.656 -0.1146 -0.2812  0.1499
31757W        W48231   5.271   6.861  13.851  0.0360 -0.1296  0.1542
31758W        W48232   4.532   0.748  11.802  0.0304 -0.4930  0.0824
31759W        W48233   9.767  11.247  10.815 -0.1169  0.1438 -0.2226
31760W        W48234  10.121   1.380  11.234 -0.0913  0.2607  0.4002
31761W        W48235  13.599  16.271   2.213  0.1908  0.0913 -0.1433
31762W        W48236   0.939  17.852  13.303 -0.1961  0.0712 -0.3358
31763W        W48237   0.541   6.115  14.885 -0.4365  0.0613 -0.1422
31764W        W48238   7.011   7.811  15.460 -0.0318  0.1261  0.1190
31765W        W48239   2.692  16.257  11.453  0.3166 -0.2070  0.3378
31766W        W48240  15.055  12.353   1.083  0.2133 -0.0044  0.0043
31767W        W48241  14.999   3.782  13.770  0.1334 -0.1991  0.0736
31768W        W48242  15.505  17.267   2.296  0.1057  0.0102 -0.2117
31769W        W48243   1.435   6.750   3.316  0.1304  0.2160  0.1297
31770W        W48244   5.392  13.330   2.073 -0.0955 -0.0768 -0.2789
31771W        W48245   4.993   3.714  13.264  0.5281 -0.1957  0.3261
31772W        W48246  11.834  10.626  13.991  0.2778 -0.1810 -0.1149
31773W        W48247   6.136  14.210   2.468  0.0428 -0.0115 -0.0272
31774W        W48248  15.086  11.946   3.251 -0.0921 -0.5041 -0.2394
31775W        W48249   9.251  11.949  12.270 -0.0406  0.1376  0.0471
31776W        W48250   7.783   0.890   4.296  0.0887  0.2593  0.0878
31777W        W48251  15.918  11.320   0.930  0.1382  0.0654  0.0517
31778W        W48252  15.077  11.560   4.780 -0.0990  0.2097 -0.1451
31779W        W48253  10.544  16.507  13.408 -0.4347  0.2775  0.0379
31780W        W48254  11.947   1.960  11.955  0.3873  0.3173  0.2456
31781W        W48255   4.871  10.365   1.944  0.0338 -0.1592 -0.0575
31782W        W48256  17.779  16.822   0.623 -0.1893  0.0281 -0.0714
31783W        W48257  11.204   9.713   3.064  0.0476  0.1042 -0.1337
31784W        W48258   2.900   0.870   1.376  0.4188  0.1271 -0.0294
31785W        W48259  18.268  12.328  12.315 -0.1252 -0.2727  0.2152
31786W        W48260   7.405   2.506  13.619  0.1280  0.0738  0.1966
31787W        W48261  18.283   5.065   4.519  0.0858 -0.1852 -0.2297
31788W        W48262   9.249   7.169  15.007  0.0728 -0.0258 -0.0427
31789W        W48263   9.653  11.643  13.797 -0.1615 -0.0568  0.0669
31790W        W48264  14.809   3.889  14.369  0.0003  0.0042 -0.0801
31791W        W48265   7.122   3.384   4.898 -0.2788  0.2224 -0.0211
31792W        W48266   7.342  13.114   4.318  0.0436 -0.1072 -0.0705
31793W        W48267  15.862   6.056   0.941 -0.0403  0.1376  0.0649
31794W        W48268   7.063   8.860   0.762  0.1877 -0.1569 -0.0935
31795W        W48269  16.074   6.056   3.911  0.4195 -0.0641  0.1854
31796W        W48270  11.637  10.933   1.770 -0.5272 -0.0718  0.0949
31797W        W48271  15.311   7.382  12.395 -0.1603  0.1889  0.2201
31798W        W48272   4.419   0.548  15.840 -0.0953 -0.0252  0.0274
31799W        W48273   6.471   6.198  11.455 -0.2310  0.1743 -0.2866
31800W        W48274   0.332   4.340  14.474 -0.0157 -0.1742  0.2206
31801W        W48275  14.995   2.759   4.001 -0.0243  0.0255 -0.2629
31802W        W48276  16.954   1.016  11.258  0.0089  0.0019 -0.0958
31803W        W48277   6.548   6.634   4.916  0.2167  0.0393  0.0633
31804W        W48278   2.694   9.180  12.860 -0.1152 -0.1690  0.1924
31805W        W48279   2.985   3.917  14.057 -0.2276  0.1917  0.1825
31806W        W48280   7.075   0.596   0.859 -0.2330 -0.0525 -0.1788
31807W        W48281  13.939  16.104   0.027 -0.1255 -0.0880 -0.0894
31808W        W48282   4.295  12.533  15.634 -0.3042  0.1399  0.2007
31809W        W48283   9.145   8.791  11.962  0.2679 -0.0292  0.1038
31810W        W48284  11.156  14.878  15.501 -0.2057  0.0841  0.2751
31811W        W48285  15.174   1.113   4.035  0.0490  0.0365 -0.0713
31812W        W48286   7.744   1.615  10.924 -0.0541 -0.0244 -0.1493
31813W        W48287   3.455  15.737  13.965  0.1654 -0.2223  0.2633
31814W        W48288  14.761  11.697   4.274 -0.1307 -0.0799  0.2077
31815W        W48289   7.413  17.521  15.150  0.1547 -0.0769  0.1334
31816W        W48290   8.872   2.500  12.132 -0.1818 -0.0650 -0.0505
31817W        W48291   8.905  15.820   5.474 -0.1324  0.3580  0.1480
31818W        W48292   8.869   8.010   5.541  0.1460 -0.2904 -0.3560
31819W        W48293  13.485   4.582  10.922 -0.1008 -0.0729  0.1024
31820W        W48294  11.506  14.127   1.805  0.0464 -0.2876  0.1093
31821W        W48295   2.769  15.089   0.911 -0.2659  0.0330  0.1002
31822W        W48296  15.822  11.415  13.092  0.0275 -0.0285 -0.1676
31823W        W48297   9.331  17.943   1.165  0.0636  0.2659 -0.2150
31824W        W48298  11.734   9.780  14.402  0.1925  0.1262  0.0426
31825W        W48299  16.575   4.587  14.861  0.0515  0.0707 -0.2621
31826W        W48300  10.185   1.574  15.448 -0.1735  0.2128 -0.3931
31827W        W48301  16.575   9.841  14.983 -0.0252  0.2579 -0.0706
31828W        W48302   5.545  13.471  14.498  0.0833 -0.0528 -0.2886
31829W        W48303  18.426   9.207  14.266 -0.2241  0.0783  0.2196
31830W        W48304   8.036  11.604  14.713  0.1164 -0.1485 -0.2202
31831W        W48305   0.963   0.922  12.915 -0.1483 -0.1074 -0.0111
31832W        W48306  12.705  16.044   4.065  0.0204 -0.0254  0.1866
31833W        W48307  15.266  15.009   4.280 -0.0798 -0.0458 -0.1199
31834W        W48308  11.808  15.094   4.958 -0.0741  0.3043  0.1244
31835W        W48309  13.556   3.671  14.813 -0.3591 -0.2728  0.1218
31836W        W48310   3.728   5.864   0.800  0.0308  0.1172  0.0375
31837W        W48311   1.424  13.965  12.288  0.1324 -0.0645  0.5597
31838W        W48312  12.736   7.366  12.262  0.2601  0.1839 -0.1648
31839W        W48313   2.039   5.861   3.848 -0.2977  0.3462 -0.0485
31840W        W48314  14.421   1.164  10.822 -0.1755  0.3488  0.2421
31841W        W48315   5.275   0.499   3.100 -0.3125 -0.1016 -0.1377
31842W        W48316   5.792   2.864   2.707 -0.2086  0.1113  0.2850
31843W        W48317  16.536  17.417  12.574  0.4710 -0.1115 -0.3081
31844W        W48318   6.994   8.303   0.238  0.2710  0.3967 -0.2154
31845W        W48319   8.098  14.469  12.058 -0.1253 -0.3045 -0.2114
31846W        W48320   3.371   8.683  10.487  0.1423  0.4095 -0.0930
31847W        W48321   4.092  17.271  15.368  0.1051 -0.0664 -0.2473
31848W        W48322   2.456   5.577  12.443 -0.1654  0.0944  0.0810
31849W        W48323  10.307   5.376   4.891  0.0190 -0.2002  0.0630
31850W        W48324  15.453   5.871   2.952  0.1846 -0.1472 -0.3439
31851W        W48325   0.053   1.654   4.663 -0.3573  0.3516 -0.3072
31852W        W48326  11.491  16.910   3.688  0.0542  0.2292  0.0661
31853W        W48327  17.941   1.497  12.187 -0.0545 -0.0608  0.1251
31854W        W48328   2.425  17.489  14.236 -0.1156 -0.0074 -0.0567
31855W        W48329   4.326   4.478  15.580  0.0497  0.0343 -0.1041
31856W        W48330   7.641  15.669  14.812  0.1636 -0.3322 -0.0894
31857W        W48331   9.969   7.466  14.388 -0.1405  0.2448 -0.1735
31858W        W48332   8.398  18.413  15.635  0.2772 -0.2273  0.2748
31859W        W48333  16.627   2.311   0.032 -0.2155  0.0116 -0.3078
31860W        W48334   3.668  15.585   1.482  0.1225 -0.0754 -0.1311
31861W        W48335   2.487   8.392   0.149  0.1362 -0.3709 -0.0009
31862W        W48336  14.841   8.696  11.057 -0.1595  0.3714  0.0639
31863W        W48337  14.662  16.197   1.033 -0.1410 -0.0394  0.1353
31864W        W48338  16.146   0.386   1.625  0.1897  0.0356 -0.1533
31865W        W48339  15.655  11.051   0.539  0.1533  0.1642  0.0744
31866W        W48340   4.673   7.031  14.895 -0.0110 -0.1683  0.2520
31867W        W48341  15.232  14.181   5.793  0.1689  0.2026 -0.0566
31868W        W48342  13.317   8.239   4.805 -0.1224 -0.0349 -0.0555
31869W        W48343  15.605  13.350   3.661 -0.2077 -0.0602  0.2621
31870W        W48344   8.421   3.925   5.023  0.1224 -0.1575 -0.1687
31871W        W48345  15.293  16.507  14.886  0.1371  0.1849 -0.4154
31872W        W48346  12.759   2.517  10.947 -0.0054  0.0790  0.0525
31873W        W48347  17.425   8.193  12.758 -0.1536  0.0845 -0.1671
31874W        W48348   7.316   7.881   4.371 -0.0628  0.0181  0.2053
31875W        W48349   4.141  10.461  11.026  0.0963  0.0332  0.0967
31876W        W48350   6.039   4.460   4.679 -0.0515 -0.3078 -0.1872
31877W        W48351   3.111  12.147   3.982 -0.0258  0.0875 -0.1043
31878W        W48352   2.188  17.008  14.168 -0.3355  0.1125 -0.0028
31879W        W48353   3.093   8.917  11.887 -0.1087  0.1587 -0.0225
31880W        W48354  10.457   8.611  13.700  0.0695  0.0351 -0.2833
31881W        W48355  11.843  13.781   1.670 -0.3634  0.0316  0.0249
31882W        W48356   3.233  14.866   0.850  0.0144  0.3761 -0.2349
31883W        W48357   9.542  17.346   9.761  0.0980 -0.0272  0.3351
31884W        W48358  11.230  14.470   4.989  0.3622  0.1096 -0.0664
31885W        W48359   4.733   1.558  15.386 -0.0460 -0.0705 -0.0017
31886W        W48360  14.033  16.599   2.133  0.1281  0.2922 -0.2171
31887W        W48361   2.271   2.810   1.697 -0.3208 -0.0981  0.2288
31888W        W48362   5.290   4.679  13.741 -0.1797  0.1145  0.0535
31889W        W48363  16.873   1.529   1.725 -0.0232  0.0739 -0.0217
31890W        W48364  15.516   8.176   0.057  0.1215 -0.0816 -0.2093
31891W        W48365   7.728   6.780  15.686  0.1474 -0.0121  0.2657
31892W        W48366  16.480  12.047  12.894  0.3360  0.4241 -0.0275
31893W        W48367   9.161   8.516  12.903  0.0319  0.1980 -0.2887
31894W        W48368   2.074   4.567  15.045 -0.1443 -0.2069  0.0723
31895W        W48369  15.176   2.551  12.211  0.0183 -0.0566 -0.1016
31896W        W48370  10.556   6.296   5.595  0.1471 -0.0210 -0.1166
31897W        W48371   3.786   9.302  12.424  0.4352  0.0041 -0.0885
31898W        W48372   9.053   5.323  15.177  0.2106  0.3261 -0.1019
31899W        W48373  18.464  17.833   4.706 -0.2781 -0.0258  0.2898
31900W        W48374   6.304   0.796   5.261  0.3514 -0.4654  0.0948
31901W        W48375  14.756   1.958  15.556 -0.4213 -0.0419  0.1573
31902W        W48376  14.286  16.990  11.383 -0.0951 -0.2253  0.0142
31903W        W48377  11.900   2.162   2.016 -0.1281  0.2336 -0.1160
31904W        W48378   1.099   0.549   0.082 -0.1255 -0.0705 -0.1251
31905W        W48379   7.432  16.159  14.830  0.0921 -0.3636  0.1194
31906W        W48380   4.438  10.121   4.460  0.1945  0.1492 -0.1222
31907W        W48381   2.176   0.558  11.992  0.0958  0.0348 -0.2706
31908W        W48382  15.008  12.374  15.119 -0.2004 -0.0748 -0.1685
31909W        W48383   6.171  11.189   3.436  0.2610 -0.3022  0.0704
31910W        W48384  11.628  13.234  11.428 -0.0688  0.1540 -0.2433
31911W        W48385   5.858  14.974  13.351 -0.1540  0.1204 -0.0681
31912W        W48386   9.248   2.046  12.211 -0.0202  0.1073 -0.0725
31913W        W48387  14.695  16.510  14.299  0.0706 -0.1298  0.0495
31914W        W48388  14.311   0.844   2.814 -0.1172 -0.1443 -0.1197
31915W        W48389  10.183  11.566   0.867  0.0777  0.0263  0.0886
31916W        W48390   8.016   4.917   5.075  0.0501  0.2206 -0.1753
31917W        W48391   9.448  18.477   4.609  0.1457 -0.0261  0.0857
31918W        W48392   8.460  16.558   4.233 -0.1873 -0.0563  0.0513
31919W        W48393  13.956  16.903   2.565  0.0336 -0.2034  0.1794
31920W        W48394   6.596  11.356   0.148 -0.0354  0.1457 -0.0626
31921W        W48395  11.805   6.063  12.095 -0.0927  0.1514 -0.1362
31922W        W48396   0.620   2.204   2.274  0.2968 -0.2174 -0.1980
31923W        W48397   8.384   1.670   1.304 -0.0178  0.2231  0.1603
31924W        W48398  15.984   2.429   4.840  0.2271  0.4009  0.1311
31925W        W48399  13.709   5.224  15.324 -0.0152  0.1685 -0.0412
31926W        W48400   5.119   1.318  13.402 -0.1594  0.1975  0.0191
31927W        W48401  11.243   2.909  13.876 -0.0441 -0.0577 -0.3930
31928W        W48402  17.707  11.391   2.774  0.0947 -0.0190  0.2371
31929W        W48403  10.231   0.167   3.469 -0.1017  0.2850 -0.1357
31930W        W48404   7.391  10.531   0.713  0.1364  0.0972  0.4768
31931W        W48405  12.229   1.903  15.079  0.1628  0.1102  0.1188
31932W        W48406  16.477   0.969  11.185 -0.1687  0.0096 -0.2509
31933W        W48407   3.101   5.801   0.094 -0.0451 -0.1283 -0.1370
31934W        W48408  16.547   7.989  11.429  0.1945  0.0825  0.3355
31935W        W48409   3.163   4.130   4.813  0.2462  0.1122  0.0282
31936W        W48410   6.587   6.618  11.712 -0.0383 -0.0544 -0.2226
31937W        W48411   5.558   6.558   0.751  0.1907  0.0976 -0.1177
31938W        W48412  15.626  13.694  13.099  0.0300  0.0030 -0.2220
31939W        W48413   4.015   5.489   0.506  0.1796 -0.0229 -0.2413
31940W        W48414  11.002  10.508  15.226  0.1351  0.0620 -0.1182
31941W        W48415  14.028  10.118   4.134 -0.1045  0.1265 -0.1807
31942W        W48416   8.252   9.197  10.609 -0.2932  0.0056 -0.0026
31943W        W48417   3.095   1.307  13.101 -0.0140 -0.0029 -0.0197
31944W        W48418   9.225   8.420  11.602 -0.1253 -0.2574  0.1865
31945W        W48419   4.901  15.696   2.937 -0.1827  0.2272 -0.0928
31946W        W48420   9.873   8.846   3.458  0.2155  0.1355  0.0389
31947W        W48421   5.860   2.537   3.836  0.0200 -0.0882 -0.0760
31948W        W48422   6.735  14.267   0.986 -0.3225 -0.0116 -0.2077
31949W        W48423   3.987   9.410   3.300  0.1924  0.2232  0.0438
31950W        W48424   1.158  15.829   1.214  0.0583 -0.0586 -0.0104
31951W        W48425  16.624  12.518   0.907 -0.1017  0.0914  0.2369
31952W        W48426   3.036   6.738  14.485 -0.0213  0.1769  0.1215
31953W        W48427  12.511   6.069   4.838 -0.1133 -0.0743 -0.1445
31954W        W48428   6.991   5.652   1.130 -0.1241  0.2448 -0.0947
31955W        W48429   7.469   0.238  15.775 -0.0430 -0.0191  0.0012
31956W        W48430   1.179   4.729   4.825 -0.0204  0.2145  0.0894
31957W        W48431   8.949   6.968   1.877 -0.0062 -0.4740 -0.0311
31958W        W48432   8.316   2.709   0.562 -0.2834 -0.3101  0.1409
31959W        W48433   9.088   0.178  13.513 -0.0204  0.1578  0.2474
31960W        W48434  18.309  10.950   4.927 -0.3659  0.1368 -0.2251
31961W        W48435   1.509   0.041  11.788 -0.1590  0.0136 -0.0918
31962W        W48436   3.369  11.414  14.291 -0.0015 -0.1598 -0.1285
31963W        W48437  14.675  10.263   0.236  0.1496 -0.0496  0.1348
31964W        W48438   8.569  15.922   9.769  0.1347  0.2300  0.0777
31965W        W48439  15.456  16.286   2.282  0.1590  0.1543 -0.3976
31966W        W48440   9.071  18.400   3.678  0.0025  0.2511  0.1179
31967W        W48441   2.900   6.150  15.186 -0.1818  0.1276 -0.0298
31968W        W48442  14.488   9.303   3.708  0.0208 -0.0707 -0.1932
31969W        W48443   3.070  16.646   3.703 -0.2667  0.2811 -0.4421
31970W        W48444  17.203  10.555  13.733 -0.0262  0.1694  0.0255
31971W        W48445  12.264  15.175  11.652  0.0530  0.4568 -0.0681
31972W        W48446  15.053  11.053   5.896 -0.0573  0.3226 -0.0293
31973W        W48447  13.303   2.084  15.542 -0.0352  0.0520  0.0453
31974W        W48448   6.660  12.690   2.462  0.0651 -0.2306 -0.1964
31975W        W48449  11.907  10.327  13.509  0.1974  0.1622 -0.0028
31976W        W48450   8.480  13.415  11.643 -0.2729  0.2032 -0.0668
31977W        W48451  15.855  17.697  11.212  0.1180  0.1512  0.0113
31978W        W48452  17.396  12.488   2.976 -0.1489 -0.1120  0.3362
31979W        W48453   8.944   3.227  13.119 -0.1988 -0.2928  0.1278
31980W        W48454   8.894   6.836   1.208 -0.1590  0.1418  0.1544
31981W        W48455   0.945  14.312   2.342 -0.1924  0.1535 -0.0009
31982W        W48456   5.256  15.683  15.293  0.2673  0.3241  0.1327
31983W        W48457  15.667  18.295  12.210 -0.0027  0.0421  0.2523
31984W        W48458   5.090  14.752   0.568 -0.1075  0.0467  0.0433
31985W        W48459  12.662   9.640  14.519 -0.4911  0.0341  0.2182
31986W        W48460   5.644   9.601   4.105  0.4186 -0.2030  0.2165
31987W        W48461   6.291   9.618  14.417  0.0065 -0.1511 -0.5721
31988W        W48462   0.538   5.612   0.901 -0.4168  0.0289  0.0398
31989W        W48463   5.060   5.044  15.148  0.0020  0.1937  0.2807
31990W        W48464  18.021  11.930  14.568  0.2191  0.0074 -0.0130
31991W        W48465  16.144   9.880   3.848 -0.2087  0.2299  0.3131
31992W        W48466  11.149   2.079  13.742  0.1540  0.5230  0.1759
31993W        W48467   1.900   2.441   1.711  0.1190  0.0858  0.0611
31994W        W48468   3.910   1.857  11.909  0.0083  0.2867 -0.0606
31995W        W48469   6.233   8.134  13.923 -0.1069 -0.1004  0.0409
31996W        W48470  14.492  16.757   2.306  0.1206  0.4277 -0.2229
31997W        W48471   7.532  10.158   4.971  0.0271  0.2217 -0.2700
31998W        W48472   0.242   3.692   0.988  0.2879 -0.0825 -0.1305
31999W        W48473   0.719   0.005  10.062  0.2149  0.4948 -0.0861
32000W        W48474  10.592   6.811   2.966  0.1315 -0.1141  0.1855
32001W        W48475   1.874   4.808  11.159 -0.1052 -0.0586  0.4250
32002W        W48476  15.639   2.060  11.553 -0.1255  0.2292  0.0598
32003W        W48477  14.587  11.016   4.943 -0.1192 -0.0649 -0.0104
32004W        W48478  14.801   7.966  12.523 -0.1071  0.1178 -0.0191
32005W        W48479  16.330  11.157   2.126 -0.0402  0.1226  0.1245
32006W        W48480   2.661   8.400  15.633 -0.2347 -0.1065  0.2368
32007W        W48481   5.916   5.609  12.657 -0.1980 -0.3178  0.1749
32008W        W48482   9.798   6.391  12.168  0.1045 -0.0415  0.2123
32009W        W48483   1.048   8.333  14.093 -0.2107 -0.1142  0.1282
32010W        W48484   9.807  12.422  12.181 -0.0373 -0.3905 -0.0279
32011W        W48485  15.072  13.089  12.622  0.1537  0.3532  0.5142
32012W        W48486  12.656   4.019  12.798 -0.0300 -0.1510  0.1276
32013W        W48487  10.936   2.736  13.534  0.2473  0.2099  0.1342
32014W        W48488   8.651  13.389   1.002 -0.3958 -0.1688 -0.0964
32015W        W48489  14.414  10.742   2.845 -0.0297 -0.1746 -0.1978
32016W        W48490  12.141   7.478   3.331  0.1522  0.0769 -0.1838
32017W        W48491  12.865  12.243   4.202 -0.1381  0.1134 -0.0731
32018W        W48492  14.244   3.455   2.104 -0.1479 -0.0109 -0.1727
32019W        W48493  16.855   9.881  11.158  0.3047 -0.2228  0.2457
32020W        W48494  15.137  15.586   5.693  0.3379 -0.1116 -0.0627
32021W        W48495   5.865  12.078  12.588  0.1935 -0.0567 -0.2854
32022W        W48496  11.258  17.177  11.404 -0.0389  0.0180 -0.0247
32023W        W48497  11.651  10.585  15.101  0.2623 -0.1630 -0.0221
32024W        W48498   8.802  18.300   4.708  0.0809  0.2795 -0.0240
32025W        W48499  15.626   7.276   0.045 -0.0693 -0.0851 -0.0375
32026W        W48500   4.914   0.442  12.444 -0.0625 -0.0469  0.1221
32027W        W48501   6.603  16.008  12.946 -0.6241  0.2470 -0.1698
32028W        W48502  15.354  10.144   0.904 -0.0258  0.1231  0.2560
32029W        W48503  11.991   8.773  15.485  0.1527 -0.1512  0.0180
32030W        W48504  10.500   9.988   2.092  0.0088 -0.1689 -0.1204
32031W        W48505  17.724  16.932   2.949 -0.1101  0.2428  0.0254
32032W        W48506   1.949  17.408   3.085  0.3158 -0.0854 -0.0062
32033W        W48507   5.958   0.450   1.823 -0.2044 -0.4316  0.0123
32034W        W48508   0.275  17.368  11.845 -0.0771 -0.0836  0.3346
32035W        W48509   3.858   8.830  13.863 -0.2906 -0.4056 -0.0214
32036W        W48510   6.795   2.062  15.280  0.0530  0.0464  0.0228
32037W        W48511   8.801   6.773   3.247  0.1038 -0.2399  0.2020
32038W        W48512  16.873   2.494   3.108 -0.1991 -0.2135  0.1534
32039W        W48513  12.354  15.273  13.250  0.1482  0.2871  0.0885
32040W        W48514   1.754   7.142   3.165  0.2991  0.3020 -0.1012
32041W        W48515  10.012  13.242   0.025  0.2638 -0.0454 -0.0696
32042W        W48516  13.425  10.246  13.361  0.2306 -0.2393 -0.0061
32043W        W48517  16.033  11.878  12.865 -0.1999  0.0518  0.0540
32044W        W48518   1.277   0.302  13.674 -0.0465  0.2391  0.2566
32045W        W48519   0.589  14.303  13.750  0.0331 -0.2097 -0.2751
32046W        W48520  14.516   9.118   2.182  0.3914 -0.1336  0.1202
32047W        W48521  13.396   8.038   2.739 -0.0289  0.1931 -0.0708
32048W        W48522  10.785   4.743  11.018  0.1650  0.3283 -0.1962
32049W        W48523   0.760  10.783   3.696 -0.2248  0.1769 -0.2037
32050W        W48524  15.865  10.998  10.497 -0.4711 -0.0078 -0.0223
32051W        W48525   0.940   0.681  13.876 -0.0425 -0.0462  0.2220
32052W        W48526   5.324   4.935   0.907 -0.0503  0.1579  0.0430
32053W        W48527   0.065  17.240   4.191  0.1698 -0.0749  0.0234
32054W        W48528  15.605  17.587   3.119 -0.1465 -0.2258  0.1900
32055W        W48529   1.276  13.938   3.879 -0.0512 -0.1059  0.4496
32056W        W48530   5.654  17.800   3.368 -0.0209  0.2807  0.5994
32057W        W48531   2.014   5.293  11.412  0.4863 -0.2163  0.1746
32058W        W48532  12.018   8.963   1.806 -0.0556  0.1237 -0.3862
32059W        W48533   1.669   1.277  12.274  0.0237 -0.3482 -0.0783
32060W        W48534   3.010   7.111   3.737 -0.3411  0.3042  0.2209
32061W        W48535  18.172  14.623   2.175 -0.1790  0.2367 -0.1365
32062W        W48536  10.405   3.440   4.985 -0.1147  0.1064  0.1856
32063W        W48537   7.023   7.586   3.114 -0.0565  0.0660 -0.2874
32064W        W48538   1.096  14.300   1.755  0.0701 -0.2853  0.1639
32065W        W48539   2.415   4.520   1.815 -0.1839 -0.1518  0.0625
32066W        W48540   6.817   4.295   1.561 -0.1559  0.2867  0.2577
32067W        W48541  18.457   6.931  15.836  0.0256  0.2109  0.3823
32068W        W48542   4.153  18.037   4.590  0.1381  0.1462  0.1145
32069W        W48543  10.346   7.577  11.739  0.0782 -0.0721  0.1228
32070W        W48544  12.127  16.167   1.032  0.2324  0.1153 -0.0324
32071W        W48545  11.436  14.413  15.308  0.1182  0.0057 -0.1308
32072W        W48546   9.013  11.130   3.851  0.0374  0.0354  0.2268
32073W        W48547   6.321  11.961  10.983 -0.0295  0.0356  0.0763
32074W        W48548  13.887   1.175   4.133  0.3240  0.3437  0.0908
32075W        W48549  11.518   2.539  14.476  0.3044 -0.0132  0.3552
32076W        W48550   3.383   3.032   1.159  0.4312  0.0185  0.4286
32077W        W48551  17.101  17.036   0.076  0.1638  0.2039 -0.2360
32078W        W48552  10.081   9.343  15.199  0.1055  0.4881  0.1057
32079W        W48553  12.608   2.212   4.637 -0.1286  0.1712 -0.3094
32080W        W48554   0.662   2.853   4.967  0.1574  0.1232  0.1497
32081W        W48555   6.349   7.260   3.691 -0.5236  0.2003  0.2964
32082W        W48556   6.034   6.932  13.207 -0.1232  0.1398  0.2423
32083W        W48557  10.599  16.822   0.548  0.0059  0.1490  0.1154
32084W        W48558   5.627   6.814  15.747 -0.0081  0.1025  0.1307
32085W        W48559   2.391  17.054  15.620 -0.0205 -0.2020  0.0814
32086W        W48560  16.180   0.124   3.218  0.1229  0.2453  0.0126
32087W        W48561   5.081   1.211  13.931 -0.0070 -0.0537  0.0941
32088W        W48562   5.548  14.069  12.614 -0.0168 -0.0929  0.1608
32089W        W48563   4.530  14.644  13.608 -0.1220  0.1069  0.1205
32090W        W48564   5.535  10.443   0.265 -0.3403  0.1069  0.0443
32091W        W48565   0.117   4.892   4.887 -0.2423 -0.0540 -0.1873
32092W        W48566   1.390  15.028  11.587 -0.0472  0.1177 -0.2264
32093W        W48567  15.846  16.194  14.011 -0.3151 -0.0383 -0.0865
32094W        W48568  11.746  11.265  13.153  0.0254  0.0037 -0.0713
32095W        W48569   5.276  12.206   0.824 -0.1620 -0.4044  0.0394
32096W        W48570   4.726   3.475   5.636  0.2167  0.2402 -0.1772
32097W        W48571   7.974   7.111   1.136  0.1129 -0.2544  0.3267
32098W        W48572   5.652   6.752   4.634  0.0831  0.0739 -0.2017
32099W        W48573   8.395  14.403  13.161 -0.0503 -0.1607  0.0715
32100W        W48574   7.052  11.823  13.420  0.0714  0.0069 -0.0428
32101W        W48575   7.595   8.277  11.692 -0.2379  0.3254 -0.0362
32102W        W48576   1.334   5.453  15.659  0.4921 -0.2410 -0.1112
32103W        W48577   8.808  12.614   1.650 -0.0317 -0.1981  0.0264
32104W        W48578   6.528  16.134   5.519  0.0018 -0.0375 -0.0292
32105W        W48579  14.650   8.740   0.037 -0.2876  0.1728 -0.2180
32106W        W48580   9.492  16.975  12.951  0.4155  0.0133 -0.0147
32107W        W48581  16.634   3.856   2.633 -0.1601  0.0722  0.0837
32108W        W48582  17.441  17.435   1.050  0.0678  0.0330 -0.3083
32109W        W48583  14.949  10.760  14.441 -0.0921  0.1473  0.1258
32110W        W48584  17.020   5.337   4.290 -0.2266  0.1061  0.0786
32111W        W48585   3.791   3.520   4.969 -0.2502 -0.1491 -0.1083
32112W        W48586  15.756  12.064   4.308 -0.2719  0.2396  0.2518
32113W        W48587   7.773  15.543  15.249  0.3411  0.0261  0.0668
32114W        W48588  12.615  14.518   2.697 -0.2583  0.0602 -0.1209
32115W        W48589   4.904  16.162  15.911 -0.0418 -0.0317  0.3189
32116W        W48590  13.046  16.224   2.159  0.1594 -0.0235 -0.1060
32117W        W48591   4.299   0.291  11.651  0.0724 -0.4908 -0.0440
32118W        W48592   6.234  12.847  14.695  0.0643 -0.1568  0.1585
32119W        W48593  11.814  12.093   0.308  0.0017 -0.1476  0.0859
32120W        W48594   3.480   0.123   3.384  0.2242  0.1264  0.0942
32121W        W48595   3.623  11.494  11.753  0.0905  0.2383  0.3233
32122W        W48596   2.185   4.894   3.159 -0.0894 -0.1845  0.0489
32123W        W48597   2.941  11.567   3.585  0.0035 -0.0134 -0.0752
32124W        W48598  13.373   6.371   2.632  0.1571  0.0435 -0.0158
32125W        W48599  12.353  15.578   4.743  0.0652 -0.3703 -0.3113
32126W        W48600  17.810   1.849  11.251 -0.0233  0.1754 -0.0746
32127W        W48601   4.979  13.259   3.370  0.1543 -0.3129 -0.0453
32128W        W48602  14.361   4.860   3.965 -0.0416  0.0556 -0.4897
32129W        W48603  17.510  13.094   1.712 -0.1741 -0.1728  0.0282
32130W        W48604   6.582  11.616  11.877  0.0997 -0.4127 -0.0566
32131W        W48605   5.819   0.165   4.859  0.0058  0.0390 -0.3563
32132W        W48606   9.987   5.437  15.737 -0.2523 -0.2274  0.1341
32133W        W48607  14.876  15.081   2.363 -0.1015  0.0154  0.1609
32134W        W48608   8.563   3.667  15.670 -0.1811 -0.1562  0.2670
32135W        W48609   6.076   2.787  11.348 -0.1896  0.0784 -0.0594
32136W        W48610   8.057   9.049   1.888 -0.0196 -0.1770  0.2704
32137W        W48611   2.635   2.188  15.429  0.2852 -0.1357  0.0270
32138W        W48612   6.797  14.784  14.241 -0.1029  0.0358 -0.1118
32139W        W48613   3.228   3.220  11.427  0.1468 -0.3798 -0.1839
32140W        W48614  10.494   9.293   1.417 -0.3891 -0.0052  0.0950
32141W        W48615   0.656   2.769  14.973 -0.6670 -0.1469 -0.1946
32142W        W48616   0.216  12.020   3.588  0.0838 -0.3446  0.1813
32143W        W48617   2.242  10.100  12.139  0.3185 -0.1857  0.1204
32144W        W48618   0.459  14.289   4.255 -0.0586 -0.0335  0.2079
32145W        W48619   4.715   7.570   4.818  0.2093  0.1441 -0.0234
32146W        W48620  12.526  16.612  14.964 -0.2732  0.1874  0.0231
32147W        W48621  16.674  14.954   2.510  0.0430 -0.1587 -0.2954
32148W        W48622  15.658  17.671   0.306  0.0595 -0.2175  0.1020
32149W        W48623  10.479   5.430  15.564  0.0721 -0.3713 -0.2321
32150W        W48624  12.930  10.562  13.476  0.3136  0.2487 -0.1609
32151W        W48625   6.600   8.394  11.699  0.1629 -0.0869  0.0608
32152W        W48626   0.801   9.060   1.394  0.3962  0.4250 -0.0448
32153W        W48627  17.248  13.887   0.444 -0.0305  0.1576  0.1476
32154W        W48628  15.280   1.174   2.539 -0.1026  0.2073  0.0073
32155W        W48629   9.077   7.502   2.603  0.1674 -0.0230 -0.2390
32156W        W48630   4.680  12.683   2.142  0.1564  0.1157  0.0059
32157W        W48631   2.018   4.089   5.941  0.1832  0.3031  0.0900
32158W        W48632   9.325  13.421  12.949  0.0171  0.1556  0.1021
32159W        W48633   1.435   5.215   4.781  0.0209 -0.2688 -0.1685
32160W        W48634  10.570  15.452   0.586 -0.0149 -0.3976 -0.0780
32161W        W48635  13.018   1.766   0.677  0.0985  0.5130 -0.0593
32162W        W48636   1.273  17.177   3.502  0.0294  0.3803  0.0516
32163W        W48637  12.409   1.033   2.152  0.0868  0.4504  0.3002
32164W        W48638   6.558   9.083  11.554 -0.3921  0.1993  0.0720
32165W        W48639  17.787  12.853   0.694 -0.0301  0.0225  0.2315
32166W        W48640  10.914  17.556  11.491  0.3629 -0.0832  0.0465
32167W        W48641   2.674   4.088   4.936 -0.2081 -0.2564  0.2110
32168W        W48642  16.930   1.410   3.743  0.1258  0.2658  0.2441
32169W        W48643  10.278   8.694   6.332  0.0397  0.0634 -0.2820
32170W        W48644  10.762   7.991  11.873  0.1158  0.1639 -0.2915
32171W        W48645   9.961  14.577  13.256 -0.1976  0.0535  0.0367
32172W        W48646   9.565  11.437   4.426 -0.0734 -0.0791  0.0286
32173W        W48647   9.664  11.548   0.734 -0.1616  0.0733  0.0195
32174W        W48648  16.469   7.410  15.183 -0.0335 -0.2302 -0.1285
32175W        W48649   4.439   7.121  14.019 -0.3822 -0.3200  0.3146
32176W        W48650  10.885  13.800   0.026 -0.1588 -0.3452  0.0046
32177W        W48651  10.551   9.149  14.589 -0.3765  0.1512  0.0722
32178W        W48652   8.943  10.294  13.211  0.0972  0.4597  0.1102
32179W        W48653   7.931   0.688  10.278  0.1209 -0.0759  0.2566
32180W        W48654  14.826   7.219   3.949 -0.1220  0.1395  0.1485
32181W        W48655   6.864   7.609  10.749  0.0470  0.3527 -0.1724
32182W        W48656   4.117  16.911   4.392  0.1829  0.0614  0.1369
32183W        W48657   4.076   0.522   0.205 -0.0737 -0.0454 -0.1443
32184W        W48658   2.351  10.418   1.352 -0.1006 -0.0285  0.1192
32185W        W48659   3.722   9.829   0.920  0.0926  0.3391 -0.2135
32186W        W48660  15.179   8.416  14.006  0.1223 -0.0784  0.3297
32187W        W48661  13.569   4.340  12.360  0.0392 -0.2975 -0.0034
32188W        W48662   0.037   4.317   4.934 -0.1633  0.1287  0.0849
32189W        W48663   9.765  11.694   2.650  0.1095  0.2800  0.3238
32190W        W48664  16.492   7.420   0.020 -0.0728 -0.1334 -0.1486
32191W        W48665   4.554   0.012   4.661 -0.3974  0.2056 -0.3490
32192W        W48666   1.490  10.872   1.004  0.0867  0.1485 -0.1829
32193W        W48667  18.239   2.164   3.261 -0.2061 -0.2993  0.3174
32194W        W48668  10.937   2.554   2.895  0.0827  0.0137  0.2434
32195W        W48669  18.359   4.293  14.730  0.2538  0.1030  0.1003
32196W        W48670  12.311  18.278  12.291 -0.2003 -0.1358 -0.0591
32197W        W48671  15.247  13.332   5.027 -0.0955  0.0663 -0.2733
32198W        W48672  13.179   1.468  11.115 -0.0001  0.1437 -0.0212
32199W        W48673   0.842  15.054   0.810  0.0637  0.0161 -0.1734
32200W        W48674  13.214  14.760  11.999 -0.0226 -0.1148  0.1883
32201W        W48675  11.787  17.706   0.327  0.2757 -0.1648 -0.1230
32202W        W48676  10.757   1.597   3.262  0.0463  0.2735  0.1073
32203W        W48677  13.333   6.125  11.181 -0.1727 -0.0382  0.0402
32204W        W48678  11.194  11.471   3.226 -0.1256 -0.1227 -0.0397
32205W        W48679  10.067  14.225   4.081  0.0718 -0.1210  0.1267
32206W        W48680  13.480  12.236   2.460 -0.2726  0.0825 -0.0825
32207W        W48681  10.646   3.701   2.948  0.0778  0.2479 -0.0153
32208W        W48682   9.612  15.970  13.104 -0.1573  0.2427  0.0222
32209W        W48683  11.860   1.882   1.571 -0.0011  0.1997  0.1043
32210W        W48684  10.301  14.368  14.099  0.1017  0.0015  0.0020
32211W        W48685   4.671  15.638  12.033 -0.0917 -0.1477  0.1418
32212W        W48686  12.248   0.875   3.016 -0.1349  0.1766 -0.0016
32213W        W48687   2.944  14.874   4.875  0.1318 -0.1112 -0.0866
32214W        W48688  14.746   8.442  12.403 -0.2601 -0.0417 -0.1213
32215W        W48689   8.005   1.703   5.560 -0.0564 -0.0742  0.2339
32216W        W48690   5.698   0.212   2.409 -0.0882 -0.0448 -0.0031
32217W        W48691  14.997  13.897   4.223  0.0819 -0.0031  0.1055
32218W        W48692  10.378  13.662  12.623 -0.1652  0.1428 -0.0145
32219W        W48693   0.580  15.867  14.424  0.1391  0.1568 -0.0272
32220W        W48694  15.938   7.956   2.980 -0.0340 -0.1330  0.0433
32221W        W48695   2.964  11.742  14.500  0.2052  0.1498 -0.0603
32222W        W48696   6.309  17.737  13.791  0.1320  0.0067 -0.0880
32223W        W48697  16.181   3.363  11.718  0.2392  0.1472 -0.1474
32224W        W48698   3.121   7.992   9.931 -0.0200 -0.1426 -0.1209
32225W        W48699   4.296  12.069  10.036 -0.1374  0.2394  0.2884
32226W        W48700   4.276   3.391  14.695 -0.0682 -0.0907 -0.4112
32227W        W48701  11.167   9.415  13.397 -0.2650 -0.1900 -0.0361
32228W        W48702  12.853  12.085  15.098 -0.0382  0.0771  0.0159
32229W        W48703   7.720   2.526  11.353  0.0848  0.1711  0.2293
32230W        W48704  12.183   2.145   3.193 -0.1167  0.0859  0.0819
32231W        W48705  13.698   6.025  14.816  0.0805 -0.0261 -0.2308
32232W        W48706   1.864  17.529  15.073 -0.0484  0.0314  0.1896
32233W        W48707  17.728  17.591   3.574  0.0356 -0.0550  0.2583
32234W        W48708   3.764  11.485   5.260 -0.0290 -0.1430 -0.2577
32235W        W48709   6.543  11.643   2.836 -0.3425 -0.1006  0.0235
32236W        W48710  17.943   2.677   1.809  0.0906  0.1552  0.1990
32237W        W48711  11.111   1.947   2.406  0.1720 -0.0537  0.0289
32238W        W48712   9.545  12.238   0.556  0.1326  0.2267 -0.3558
32239W        W48713  12.734   8.028   0.714  0.3288 -0.0619 -0.1681
32240W        W48714  16.618   5.551   1.244  0.0530 -0.0568  0.0344
32241W        W48715  10.942   7.439   4.235  0.0966 -0.1449  0.1929
32242W        W48716  16.652  15.011   5.246  0.1620 -0.0597 -0.0844
32243W        W48717  16.846  11.172   2.469  0.0664  0.0126 -0.0816
32244W        W48718   3.738  17.469   1.526  0.0542 -0.1559 -0.3137
32245W        W48719  12.222   6.871   0.636 -0.3635 -0.0428 -0.5344
32246W        W48720  14.409   0.557   4.505  0.1234  0.1165 -0.1399
32247W        W48721  10.942   8.634   1.274  0.1510  0.1672 -0.2223
32248W        W48722  14.170   5.922  14.040 -0.0661  0.0326  0.2459
32249W        W48723  16.534   9.159  13.752 -0.3977  0.5439 -0.1934
32250W        W48724   0.761  15.750  15.104 -0.1177  0.0326  0.0944
32251W        W48725  12.330  16.629   0.960  0.3419 -0.1273 -0.1928
32252W        W48726   8.284  15.354  13.208  0.0681  0.1654  0.3452
32253W        W48727   8.131   2.421   3.571  0.2137 -0.5086 -0.0250
32254W        W48728   3.053   0.678   4.050  0.3276 -0.1672  0.0183
32255W        W48729   5.739  12.887   2.884 -0.0686  0.0315 -0.2539
32256W        W48730  10.929   9.920  15.027 -0.2790  0.1138  0.0426
32257W        W48731   2.294  16.724  14.737 -0.0117 -0.0409 -0.2550
32258W        W48732  14.416   6.755   2.935  0.4127 -0.2316 -0.4328
32259W        W48733  14.486  18.147   4.754  0.0472  0.1488 -0.1921
32260W        W48734   2.500   5.393  11.299 -0.0483 -0.0304 -0.0735
32261W        W48735  16.931   2.489  13.647  0.1947 -0.0165  0.1547
32262W        W48736   9.601  16.422   5.856  0.0073 -0.0031  0.0861
32263W        W48737  16.128   9.333   2.898 -0.0942  0.2324 -0.3403
32264W        W48738   7.996   1.818  12.949 -0.0047  0.0209  0.0173
32265W        W48739   2.325  10.935   2.564  0.2199  0.0374  0.1154
32266W        W48740   6.487   4.810  12.097 -0.0182 -0.1308  0.2379
32267W        W48741   2.668   9.392  15.032  0.1052 -0.0289  0.3542
32268W        W48742   4.515  17.838   2.665 -0.0846  0.0228  0.0891
32269W        W48743  14.076   7.285  12.433 -0.1983  0.4046 -0.1515
32270W        W48744  13.486   9.465   5.303  0.2055  0.1331 -0.3682
32271W        W48745   9.360  17.006  15.885  0.1783  0.0467  0.0440
32272W        W48746  14.369  10.634  10.921  0.2895  0.0639  0.2917
32273W        W48747  13.598   2.514   0.260  0.0038 -0.0244  0.1843
32274W        W48748   9.339   6.305  12.982  0.1696 -0.1279 -0.1181
32275W        W48749  11.924   2.049   0.484 -0.3400 -0.2137 -0.2625
32276W        W48750   2.012  14.279  11.674 -0.1164  0.1273 -0.0681
32277W        W48751   2.209   0.169   4.617 -0.2700  0.1147 -0.0549
32278W        W48752   3.255   1.201   3.136 -0.1429 -0.3176  0.0087
32279W        W48753   6.043   9.271   5.834  0.0223  0.0837 -0.0893
32280W        W48754  11.952  12.012   4.048 -0.0887 -0.1722 -0.0856
32281W        W48755   6.347  17.695  12.550 -0.0597 -0.1073 -0.3451
32282W        W48756   8.444   0.962  14.882  0.1507 -0.0356 -0.0219
32283W        W48757  13.485   8.853   0.602 -0.0460 -0.0376  0.0828
32284W        W48758   9.073   2.362   2.410  0.2666  0.0549  0.5092
32285W        W48759   2.582  17.791  12.323 -0.0319 -0.2721  0.2945
32286W        W48760  14.882  18.155   5.544  0.0978 -0.0456 -0.3898
32287W        W48761  11.756   6.314   2.597 -0.0287 -0.1405  0.0066
32288W        W48762  15.726  16.168  12.742  0.0525 -0.0543 -0.0882
32289W        W48763   8.632   5.607  13.353 -0.3551  0.0237  0.0325
32290W        W48764   1.063  11.706   3.018 -0.1451 -0.2388 -0.1590
32291W        W48765  12.061   4.430   2.538  0.0626 -0.1471 -0.2862
32292W        W48766   8.091  17.904  13.980  0.1906  0.1173 -0.1496
32293W        W48767   8.161   0.797  10.768 -0.0300  0.2464  0.0813
32294W        W48768  17.010   8.606   1.002  0.2924  0.3808  0.0305
32295W        W48769   9.295  14.697   2.546  0.0786 -0.2160  0.0743
32296W        W48770  10.445  17.301  11.471  0.0855  0.3403 -0.5774
32297W        W48771  15.924  10.631   2.562  0.0748 -0.0345 -0.3472
32298W        W48772  13.744   9.964   1.520 -0.2288 -0.1032  0.1398
32299W        W48773  10.879  17.057  11.753  0.2424  0.0225  0.1405
32300W        W48774   2.524  14.546   5.113 -0.0361  0.1842  0.0192
32301W        W48775  15.724  18.094   2.580 -0.0899  0.1988 -0.2564
32302W        W48776  15.101   2.525   2.740  0.0401  0.0835 -0.2523
32303W        W48777  14.570   0.893   9.824 -0.1025  0.1783 -0.4693
32304W        W48778   9.050   9.013  10.637  0.2463  0.0838  0.3686
32305W        W48779  10.319  17.177   5.923  0.0973 -0.1091  0.0831
32306W        W48780  15.695  17.081  15.578 -0.3904  0.1338 -0.2004
32307W        W48781  15.380  16.521  11.673 -0.1625  0.0448 -0.1905
32308W        W48782   1.184   1.273  13.169 -0.3816 -0.1591  0.0121
32309W        W48783  16.316   7.911   0.038  0.0061 -0.2198  0.0144
32310W        W48784   8.384  13.314  14.149  0.0437  0.4036  0.0908
32311W        W48785   3.941  13.909   4.108 -0.0953 -0.2735 -0.0222
32312W        W48786   1.661  12.649   0.626  0.1875  0.1983  0.1996
32313W        W48787   2.616  12.662   2.716  0.0721  0.1092 -0.0773
32314W        W48788   6.837   1.234  12.758  0.1777  0.2104  0.0249
32315W        W48789   1.863  11.292  15.501 -0.1426 -0.3100  0.2287
32316W        W48790  15.304  12.301  15.923 -0.2044 -0.0877  0.0043
32317W        W48791  14.674  11.255   2.838 -0.3061  0.2956  0.2106
32318W        W48792   0.349   9.025  13.091  0.1195  0.0541  0.3496
32319W        W48793   9.701   5.700   3.482 -0.1796  0.0869  0.1100
32320W        W48794  14.957   7.791  10.415 -0.2759  0.1294 -0.0200
32321W        W48795  15.613   6.922  13.129 -0.0723 -0.0601  0.2206
32322W        W48796  18.120   8.887  12.327  0.1246 -0.0810 -0.3400
32323W        W48797  13.249  15.309  11.658  0.1701  0.1308  0.2017
32324W        W48798  14.295   0.680  11.162 -0.0412  0.1470 -0.1955
32325W        W48799   5.497   0.809   1.787  0.0088 -0.2303 -0.2993
32326ION     NA48800  15.227   0.331   5.234 -0.0381 -0.1471  0.1769
32327ION     NA48801  16.261   6.834   1.746  0.0557  0.0426  0.2054
32328ION     NA48802  12.479  14.660  15.423  0.0489  0.3542 -0.1612
32329ION     NA48803   4.431  11.095   1.620  0.1435  0.0457  0.0230
32330ION     NA48804  18.323   0.889  14.277 -0.0348 -0.1538 -0.0228
32331ION     NA48805  13.077   0.200   2.150  0.2224  0.1344 -0.1222
32332ION     NA48806  17.887   7.042   4.514  0.0836  0.0931  0.2536
32333ION     NA48807  16.322  12.114   1.975 -0.2738  0.1107  0.1243
32334ION     NA48808   4.870   7.801   5.226  0.1436  0.0414  0.1834
32335ION     NA48809   8.449   6.193   4.331 -0.4916  0.1148 -0.1513
32336ION     NA48810   3.326  16.861  13.289 -0.1141 -0.1287  0.1670
32337ION     NA48811   2.581  16.691  14.352  0.1711  0.0765  0.0971
32338ION     NA48812  16.976   1.157   2.666 -0.0810 -0.1173 -0.1777
32339ION     NA48813   4.658  18.265   0.662 -0.1987  0.0614 -0.0099
32340ION     NA48814   0.464  10.455   4.183 -0.1176 -0.2270  0.1747
32341ION     NA48815   4.928  14.609  10.295  0.2163  0.1795  0.0707
32342ION     NA48816   5.341   7.612   3.855 -0.2493  0.1872  0.0764
32343ION     NA48817   9.367   9.326   6.117 -0.0042  0.0085  0.4092
32344ION     NA48818   1.926   9.271   5.265 -0.0633  0.1256  0.1749
32345ION     NA48819  10.898  12.827   3.559 -0.1898  0.0541  0.0780
32346ION     NA48820   2.453  15.865   1.588 -0.1558 -0.1974  0.1286
32347ION     NA48821  12.047   7.351   5.615  0.3072 -0.2660  0.0102
32348ION     NA48822   9.244   7.587   5.820 -0.1260  0.0019 -0.0816
32349ION     NA48823  17.087   0.973   3.566  0.1272 -0.2035  0.0395
32350ION     NA48824  14.128   0.863  14.513 -0.2590  0.0159  0.0206
32351ION     NA48825  13.429   7.185  10.269  0.0705 -0.1234 -0.2708
32352ION     NA48826  13.759  17.656  10.477  0.0869  0.0970  0.0180
32353ION     NA48827  12.401  15.528   0.976 -0.0258  0.1427  0.2463
32354ION     NA48828  11.593   5.408   5.717  0.1420 -0.0183 -0.1269
32355ION     NA48829  18.313  18.118  14.881  0.0605 -0.1064 -0.2711
32356ION     NA48830  17.856  15.117   5.389  0.1087 -0.0986 -0.1186
32357ION     NA48831   5.554  10.461   5.663  0.1047  0.1361 -0.4763
32358ION     NA48832  16.290   4.799  10.479 -0.0827  0.1290  0.4292
32359ION     NA48833  17.983  17.742  12.626 -0.1103  0.0761  0.0073
32360ION     NA48834  17.195   8.934   6.021  0.0802  0.0907 -0.3156
32361ION     NA48835   3.417   6.477  11.446  0.0973 -0.5146 -0.2382
32362ION     NA48836   8.203  12.638   5.685  0.3987 -0.0893  0.0471
32363ION     NA48837  10.588   8.538   4.609 -0.0026  0.0272 -0.2351
32364ION     NA48838  13.425  13.059  10.854 -0.2735  0.1181  0.0141
32365ION     NA48839   7.252  15.557  10.412 -0.0573  0.0790 -0.0954
32366ION     NA48840  11.158  17.972   2.326 -0.0808  0.1941 -0.0321
32367ION     NA48841   5.271   0.460   5.775  0.1256 -0.0071 -0.0168
32368ION     NA48842  16.954  16.061  10.255 -0.0753  0.1046  0.2354
32369ION     NA48843   0.873   9.606   0.746  0.2606 -0.0022  0.1299
32370ION     NA48844   3.341  16.779  15.683 -0.0331 -0.1483  0.0864
32371ION     NA48845  15.171   9.264   0.337 -0.2006 -0.0018 -0.1360
32372ION     NA48846   1.224  12.034  10.625 -0.1030  0.0715  0.1261
32373ION     NA48847  11.023  18.108   3.359  0.0994  0.1051  0.2505
32374ION     NA48848  15.211  11.477   3.214  0.1574 -0.0431  0.0724
32375ION     NA48849   3.050   4.376  13.650 -0.0807  0.0362 -0.0075
32376ION     NA48850   2.760  17.783   0.427 -0.0842  0.1354  0.2171
32377ION     NA48851   9.658  11.522   2.103  0.2195 -0.0358  0.0090
32378ION     NA48852   3.851  17.964  10.583 -0.2398 -0.1366 -0.2686
32379ION     NA48853  17.009   2.551  10.302 -0.2254 -0.1223  0.1044
32380ION     NA48854  17.893   5.314   3.401 -0.2768 -0.1617 -0.1473
32381ION     NA48855   1.460  10.301   3.959  0.0759 -0.2053  0.0398
32382ION     NA48856   6.115  11.921  13.452  0.2743 -0.1759 -0.0091
32383ION     NA48857   9.805  10.289   5.900 -0.0104 -0.1812  0.0901
32384ION     NA48858  17.906   5.569  13.533 -0.0143  0.1527  0.4612
32385ION     NA48859   8.405   4.858  10.418  0.1834 -0.2557  0.0340
32386ION     NA48860   5.447   4.731  10.199 -0.0781  0.0415  0.2935
32387ION     NA48861   1.678  18.049   5.613  0.2631  0.1682 -0.1527
32388ION     NA48862   9.436  10.712   0.950 -0.1308 -0.1296  0.1418
32389ION     NA48863   0.897   9.169   4.975 -0.0174  0.1054 -0.2993
32390ION     NA48864   4.230   5.405  13.111 -0.2108 -0.0531  0.0190
32391ION     NA48865  11.706  10.405   5.895  0.1362 -0.2468 -0.3458
32392ION     NA48866  11.213  16.766  13.728 -0.5135 -0.1715 -0.2455
32393ION     NA48867   0.375  11.505   5.685 -0.1487  0.1873 -0.1245
32394ION     NA48868   6.502  13.465   1.794  0.3422 -0.2309 -0.0770
32395ION     NA48869   9.138   9.163   4.655 -0.0554  0.2894 -0.3019
32396ION     NA48870  16.401  17.616   1.862  0.2088 -0.1891  0.0736
32397ION     NA48871  14.180   5.622  10.184 -0.0756  0.2096  0.0611
32398ION     NA48872  14.823   5.315   1.186  0.1801 -0.0089 -0.2725
32399ION     NA48873  15.821   0.181  14.370  0.1120  0.1536 -0.2931
32400ION     NA48874   5.017   4.686   0.626 -0.1313  0.0304 -0.0831
32401ION     NA48875  10.242   1.914   5.473 -0.0185 -0.2653 -0.0834
32402ION     NA48876   7.315  10.448  10.030  0.2837 -0.0094 -0.2407
32403ION     NA48877  12.625   5.093   3.675 -0.2578 -0.1148 -0.0581
32404ION     NA48878   3.228   4.343  12.065 -0.1984  0.2415 -0.0178
32405ION     NA48879  14.853  12.018  10.670 -0.0575 -0.0339 -0.1650
32406ION     NA48880  13.881   5.342  11.306  0.1613  0.1822  0.1543
32407ION     NA48881   3.960  15.308  10.414  0.1523 -0.5087 -0.1629
32408ION     NA48882   0.062  16.399   2.589  0.0673  0.1134  0.0345
32409ION     NA48883   4.106  14.309  10.397 -0.1571 -0.1655 -0.0727
32410ION     NA48884  15.035  14.235  14.129  0.0268  0.1619  0.3316
32411ION     NA48885  17.604  15.879   1.903  0.1296 -0.0904 -0.0381
32412ION     NA48886  15.772  11.856  10.532  0.3595  0.4118  0.3310
32413ION     NA48887   1.537   9.861   5.807 -0.0361  0.0986  0.1857
32414ION     NA48888   4.660  12.364  14.015  0.5442 -0.4813  0.0475
32415ION     NA48889  11.665   0.107  11.384 -0.3370 -0.0521 -0.2601
32416ION     NA48890  17.156   8.559   4.505  0.0655 -0.3274  0.2169
32417ION     NA48891   6.184   1.541   5.498 -0.1081 -0.1392  0.0357
32418ION     NA48892   5.054   4.529   5.693  0.0596  0.1430  0.2449
32419ION     NA48893  10.199   0.326   5.479  0.1186  0.0835  0.0427
32420ION     NA48894   4.218  15.159   0.740  0.1302 -0.0037 -0.0867
32421ION     NA48895   7.335   4.540  10.481 -0.0469  0.1401 -0.1363
32422ION     NA48896  17.517   1.423  10.535 -0.1538 -0.0425 -0.1507
32423ION     NA48897   2.493  14.168   1.789 -0.2863 -0.1265  0.1597
32424ION     NA48898   6.442  12.466  11.748 -0.1250 -0.3048 -0.0499
32425ION     NA48899   7.227  14.939  15.868 -0.0363 -0.1478 -0.6452
32426ION     NA48900  11.715   1.863   5.358 -0.1746 -0.0816  0.2120
32427ION     NA48901   0.568  10.856  10.458 -0.3456 -0.1570  0.3017
32428ION     NA48902   4.127   3.919   5.263 -0.2044 -0.0649 -0.3532
32429ION     NA48903  14.372   7.366  13.898 -0.1440 -0.2160 -0.1351
32430ION     NA48904   5.454  10.891   0.523  0.0969 -0.1087  0.1455
32431ION     NA48905   6.310  16.863   1.360 -0.1232  0.3722 -0.1448
32432ION     NA48906   7.774   7.270  15.366  0.1476 -0.6013  0.3086
32433ION     NA48907   5.084   5.709   5.254  0.1948  0.0268 -0.0362
32434ION     NA48908  14.449   5.678   4.466  0.0364  0.0890 -0.0602
32435ION     NA48909   9.709   2.438   9.982 -0.2432 -0.2455  0.2285
32436ION     NA48910   1.131   8.999   2.630 -0.0285 -0.0834 -0.0521
32437ION     NA48911  17.328   0.972  15.432 -0.1421 -0.1567 -0.1869
32438ION     NA48912  11.117  15.722  15.434 -0.0451  0.0573  0.3481
32439ION     NA48913  16.142  11.361   5.653  0.0917  0.0431  0.2984
32440ION     NA48914  16.222  13.098   5.697 -0.0107  0.0571 -0.1893
32441ION     NA48915   4.939  12.738  10.282  0.3497 -0.0481  0.0105
32442ION     NA48916   0.550   6.664   2.946  0.0892  0.0380 -0.0733
32443ION     NA48917   8.845   6.720  13.899  0.0627 -0.1931  0.0921
32444ION     NA48918  13.342   1.658   2.931 -0.0272 -0.1625  0.1991
32445ION     NA48919  16.601   7.553   1.237 -0.1438  0.1944 -0.1324
32446ION     NA48920  15.376  15.220  12.065 -0.0853  0.2632 -0.2292
32447ION     NA48921   3.456   0.738   2.436 -0.0762  0.0733 -0.0443
32448ION     NA48922   8.892   8.872  14.426 -0.2271 -0.2167  0.0106
32449ION     NA48923  17.451  15.615  15.855 -0.2569 -0.0729 -0.3348
32450ION     NA48924  17.299   1.927  15.712 -0.0541 -0.3145 -0.0261
32451ION     NA48925  18.335   1.589   1.905  0.2145  0.1081  0.1243
32452ION     NA48926  15.810   4.077   2.535 -0.0466  0.1309  0.1432
32453ION     NA48927  16.546   3.196   3.977  0.0040  0.1111  0.0550
32454ION     NA48928  17.451  14.633  10.414  0.1134 -0.4192  0.3223
32455ION     NA48929   0.196   8.093  10.108  0.1859 -0.1914  0.2280
32456ION     NA48930   5.657   1.593   2.808 -0.1350 -0.2042  0.1115
32457ION     NA48931  12.434  10.495  13.485  0.3993 -0.0859  0.0622
32458ION     NA48932   1.373  17.239   5.540  0.0574  0.4306 -0.0950
32459ION     NA48933  10.033   1.848   3.976  0.0010  0.1506  0.0545
32460ION     NA48934   7.777   6.325  14.332 -0.0168  0.1931  0.3114
32461ION     NA48935   9.615   5.288   6.004  0.0252 -0.2589  0.0337
32462ION     NA48936  12.178   2.484  10.135 -0.1945  0.0943  0.0188
32463ION     NA48937   9.697  10.467  13.839  0.2767  0.2445 -0.0495
32464ION     NA48938   2.318   2.680  10.298  0.1912  0.0208 -0.0402
32465ION     NA48939  15.182  15.749  14.410  0.1925  0.1698  0.2920
32466ION     NA48940   7.399  13.992   3.530 -0.2621  0.0180 -0.0079
32467ION     NA48941  15.731   9.667   1.535  0.5689  0.3660 -0.2755
32468ION     NA48942   7.748  16.363   5.628 -0.0932  0.0627 -0.0202
32469ION     NA48943  14.004   9.861   1.078 -0.1294 -0.1072 -0.0615
32470ION     NA48944   5.690   2.828  10.178  0.2123 -0.1735 -0.2526
32471ION     NA48945   9.760  12.941   6.042 -0.1465  0.1513  0.0198
32472ION     NA48946  15.020   2.877   3.496 -0.1680  0.0210 -0.0939
32473ION     NA48947  16.570  16.303   4.264  0.2070 -0.0326 -0.0148
32474ION     NA48948  12.702  11.213   3.227 -0.4840 -0.4208  0.2046
32475ION     NA48949   9.767  15.504  12.942 -0.0582  0.0135  0.0490
32476ION     NA48950  13.010  13.083  14.696 -0.0096 -0.0849 -0.1658
32477ION     NA48951  15.563   6.442  10.462  0.1542  0.2450  0.0801
32478ION     NA48952  15.424   7.761   5.510  0.2072  0.0140 -0.0234
32479ION     NA48953   2.540  12.108   6.160 -0.2347  0.2022  0.1872
32480ION     NA48954   9.077  10.980  12.166  0.1332 -0.2991 -0.2480
32481ION     NA48955  16.786  12.998   2.385  0.0733 -0.0675 -0.2137
32482ION     NA48956   6.728   2.058   5.905 -0.0031  0.0459  0.1707
32483ION     NA48957  14.721   5.204  15.002  0.0861  0.1373  0.0394
32484ION     NA48958  15.458   3.003  10.524  0.1255 -0.3426  0.1528
32485ION     NA48959   7.315   9.708   0.721 -0.0272 -0.0612  0.1838
32486ION     NA48960   2.395  13.255  10.534  0.0113 -0.0607  0.2469
32487ION     NA48961   7.735   4.800   5.820 -0.0872  0.0524 -0.0392
32488ION     NA48962  11.615   0.868   0.839 -0.2230  0.0740 -0.0155
32489ION     NA48963  12.592   6.709  15.721 -0.0892 -0.1975  0.0179
32490ION     NA48964   6.920   6.570   0.435 -0.0503 -0.2935 -0.0891
32491ION     NA48965   2.294  14.882  14.906 -0.0166 -0.2890  0.0091
32492ION     NA48966   5.225  18.175   5.525 -0.1115 -0.3017 -0.1578
32493ION     NA48967  15.714   1.363  14.447 -0.2828  0.2284  0.1004
32494ION     NA48968  10.389   5.666  10.449  0.4152  0.2601  0.2548
32495ION     NA48969   4.533  13.236   2.516  0.0007  0.2598 -0.0756
32496ION     NA48970   7.289   4.900   2.183 -0.0155 -0.1717 -0.0623
32497ION     NA48971  17.229   0.133  13.168 -0.0781 -0.2955  0.2096
32498ION     NA48972   4.543   2.836   0.408 -0.1246  0.1276 -0.1562
32499ION     NA48973  15.938   2.105  10.646  0.0633 -0.0671 -0.0628
32500ION     NA48974   2.774   9.174   9.909  0.0491 -0.1281 -0.4677
32501ION     NA48975  15.751  18.201  10.276 -0.1142 -0.0374  0.1225
32502ION     NA48976   4.595  13.206   5.496  0.4378  0.0108 -0.1474
32503ION     NA48977  17.996   3.858   5.601  0.0527  0.2427  0.1527
32504ION     NA48978   3.225   8.082  13.374 -0.2342  0.1346 -0.0438
32505ION     NA48979  12.817   9.939   3.394  0.0755 -0.1941  0.1796
32506ION     NA48980  15.663  10.296   5.881  0.0664  0.2149 -0.0073
32507ION     NA48981  14.812  16.453   5.300 -0.2688 -0.1616 -0.0774
32508ION     NA48982  18.229   6.795  10.327 -0.1533  0.0871  0.0067
32509ION     NA48983   5.049  16.470  10.572  0.1202 -0.2325  0.1380
32510ION     NA48984   6.727  12.319   9.932  0.1683  0.1949 -0.0730
32511ION     NA48985   3.112   0.758   4.529 -0.1611 -0.2365 -0.1115
32512ION     NA48986  12.712   3.094   1.247  0.1014 -0.1480 -0.1753
32513ION     NA48987   7.206  17.693   5.905  0.0601 -0.2059 -0.0928
32514ION     NA48988   8.528   1.823   5.609 -0.4456  0.2132  0.2036
32515ION     NA48989  12.052   6.491   5.545  0.0674 -0.1388 -0.1727
32516ION     NA48990   0.931  11.792  12.364  0.1588  0.0943 -0.1215
32517ION     NA48991  12.386   5.406  10.311 -0.2674 -0.1660 -0.0613
32518ION     NA48992   1.028  15.030   0.284 -0.3146 -0.0130  0.2163
32519ION     NA48993   9.613   8.474  13.766 -0.2883 -0.0243  0.1632
32520ION     NA48994   9.392   4.484   4.138 -0.1752 -0.1088  0.1679
32521ION     NA48995   7.920  12.790  10.556  0.1099 -0.1237  0.2018
32522ION     NA48996  14.072   2.249   3.444 -0.0370 -0.2227 -0.3541
32523ION     NA48997  10.967  15.157   3.230  0.0905  0.1428  0.0390
32524ION     NA48998   5.829   6.465   5.611 -0.0922 -0.1070  0.1868
32525ION     NA48999  10.519   8.610  11.059 -0.1662 -0.1196 -0.2700
32526ION     NA49000   0.182  13.996   0.633 -0.0635 -0.2012 -0.0069
32527ION     NA49001   6.072   9.324  10.272 -0.1004  0.0670  0.4825
32528ION     NA49002   4.171  11.307  12.431 -0.2404  0.0447  0.0216
32529ION     NA49003  16.124   0.799  10.257 -0.1495 -0.4483  0.3200
32530ION     NA49004   7.151  12.786  13.299  0.1983 -0.0692  0.5278
32531ION     NA49005  16.782   9.237  10.349  0.0281  0.0167  0.1741
32532ION     NA49006   8.320   6.356   1.656 -0.1799  0.0017 -0.1451
32533ION     NA49007   7.968   5.426   2.541  0.0218 -0.0142  0.0411
32534ION     NA49008   2.431  14.534   2.657  0.1825  0.0881  0.2277
32535ION     NA49009   0.950   4.077  10.502 -0.0452 -0.2315  0.4036
32536ION     NA49010   8.890  11.115  10.670  0.2890  0.0973  0.0062
32537ION     NA49011   6.580   5.902  10.521  0.0524 -0.0434 -0.0487
32538ION     NA49012   1.373   2.084  15.216 -0.1549 -0.0613 -0.0572
32539ION     NA49013  14.615  10.994  13.911  0.1077  0.1915  0.0916
32540ION     NA49014   0.739  10.999  14.444 -0.1896  0.1569  0.0976
32541ION     NA49015   2.137   3.155   1.317 -0.3094 -0.1130 -0.0892
32542ION     NA49016  12.356   4.905  15.387 -0.0907 -0.2545  0.5694
32543ION     NA49017  11.632   0.988   5.396 -0.2378  0.6157  0.0682
32544ION     NA49018  17.258   6.379   5.790  0.2818 -0.2619  0.0293
32545ION     NA49019   2.401  17.450  10.456  0.2241  0.1383  0.3982
32546ION     NA49020   0.471   6.366  14.476  0.0128 -0.0706  0.3168
32547ION     NA49021   3.652  10.106  13.683  0.0009  0.2353  0.0254
32548ION     NA49022  12.428   3.440  10.065  0.1538  0.0770  0.0880
32549ION     NA49023  17.912  11.927   2.270 -0.0705 -0.1168  0.3626
32550ION     NA49024  15.277  18.233  15.436 -0.0186  0.2379 -0.0066
32551ION     NA49025  10.724   7.828   5.897 -0.0843  0.3093 -0.0590
32552ION     NA49026  16.445   3.891  14.060  0.0018  0.0679  0.0035
32553ION     NA49027   1.531   9.827  10.420 -0.2177  0.4089 -0.3437
32554ION     NA49028  14.379   2.096   3.797  0.1020  0.0624 -0.0169
32555ION     NA49029  10.636  16.417   1.575 -0.0103 -0.1840 -0.0258
32556ION     NA49030  16.669  11.393   5.806 -0.1888 -0.3961  0.2669
32557ION     NA49031   4.879   5.303  10.537 -0.1310  0.2512 -0.2004
32558ION     NA49032   4.926  10.627   3.290  0.1361  0.1640 -0.0916
32559ION     NA49033  15.052  15.217   3.660 -0.0165 -0.1517  0.0517
32560ION     NA49034  11.762   6.345  15.923 -0.1576 -0.2255 -0.0840
32561ION     NA49035   7.179   1.743   9.872  0.2145 -0.0450  0.4299
32562ION     NA49036   9.114  13.337   2.812 -0.2787  0.1597 -0.1557
32563ION     NA49037   7.745  14.645  12.790  0.0011  0.0345 -0.0686
32564ION     NA49038  15.569   3.813  10.599 -0.2709  0.0618 -0.0562
32565ION     NA49039   6.456   3.507  10.221  0.3815  0.2220  0.2255
32566ION     NA49040  10.288  14.538   0.529 -0.0299 -0.0330  0.2345
32567ION     NA49041  10.676   9.933  12.776 -0.4721 -0.0144 -0.0289
32568ION     NA49042   4.774   4.038  10.060  0.0255  0.0834 -0.1635
32569ION     NA49043  10.426  11.098   5.995  0.0411  0.0727  0.1604
32570ION     NA49044   3.738   9.216   3.718  0.2141 -0.0995  0.2257
32571ION     NA49045  10.587   0.703   9.783 -0.2709  0.2289 -0.2584
32572ION     NA49046   4.355   0.456  14.178  0.3126 -0.0644 -0.1726
32573ION     NA49047   2.589  13.206  15.550 -0.0183 -0.0301 -0.0879
32574ION     NA49048  17.601  13.528   3.336 -0.3960  0.4300 -0.0814
32575ION     NA49049  10.877   8.871   0.537  0.1234  0.0425  0.0040
32576ION     NA49050   4.749   1.069  10.448  0.0069  0.1777  0.0278
32577ION     NA49051  10.610  13.975   1.566  0.2284 -0.2068  0.0629
32578ION     NA49052  13.254   9.422  10.420  0.1574 -0.0334  0.1215
32579ION     NA49053   9.888   3.633   5.716  0.1085  0.2612 -0.1089
32580ION     NA49054  14.154  13.531   6.070  0.3205  0.1070  0.2231
32581ION     NA49055   1.434  17.711  13.415 -0.1795  0.1459 -0.0124
32582ION     NA49056   4.609   9.346   5.793  0.1016 -0.0287  0.1678
32583ION     NA49057   2.750   8.681   4.294  0.0991 -0.2520 -0.1598
32584ION     NA49058   2.192  15.302  10.684 -0.1904  0.0254 -0.2733
32585ION     NA49059   3.407   4.259  10.414  0.0196  0.3322  0.0240
32586ION     NA49060   6.909   3.910   0.239  0.0787 -0.0093 -0.0645
32587ION     NA49061  18.259   4.014  15.541  0.3197  0.0388 -0.0796
32588ION     NA49062  15.143   7.227  10.216 -0.1049 -0.1251  0.3041
32589ION     NA49063  13.018  18.209   5.224 -0.2374  0.3980  0.2316
32590ION     NA49064   0.031   1.274   5.854  0.0181  0.1187 -0.3263
32591ION     NA49065   1.008   0.816   0.929  0.1156 -0.1172  0.4015
32592ION     NA49066   7.299  13.768   0.773  0.3225  0.0481 -0.1964
32593ION     NA49067   8.164   9.827   0.699  0.0708 -0.2064 -0.0594
32594ION     NA49068   9.534  14.789  13.988 -0.0638 -0.0071  0.1425
32595ION     NA49069   4.141   0.417  10.130 -0.1006  0.2187 -0.0633
32596ION     NA49070   5.943  12.176   2.337  0.0088  0.1371  0.1073
32597ION     NA49071  10.296  17.117   4.497  0.1763  0.1790  0.1273
32598ION     NA49072   4.873   3.260  10.188  0.0803  0.0191  0.0982
32599ION     NA49073  11.275   4.042   2.284  0.0769 -0.1082 -0.3919
32600ION     NA49074   7.512  18.044   0.417  0.3567  0.0905 -0.0285
32601ION     NA49075  14.922  14.123   6.278 -0.0891  0.0922  0.0333
32602ION     NA49076  11.464  10.160  13.749  0.0282  0.0234 -0.2156
32603ION     NA49077   5.883  16.310  11.644  0.2685  0.1408  0.4021
32604ION     NA49078   4.370   3.987  15.457  0.1863 -0.1684  0.0679
32605ION     NA49079  15.181  18.262   2.541 -0.0766 -0.2150  0.2001
32606ION     NA49080   8.981   3.544   1.410 -0.0678 -0.0029  0.3168
32607ION     NA49081   9.404   8.393   5.880 -0.1887 -0.1121  0.0286
32608ION     NA49082   2.564  18.041   3.176  0.0590  0.1627 -0.2142
32609ION     NA49083  18.328  11.288  10.233  0.0629  0.0790 -0.1355
32610ION     NA49084   0.908   2.929   1.383  0.0797  0.1350  0.0120
32611ION     NA49085  15.502   8.259   0.567 -0.0869 -0.0661 -0.0891
32612ION     NA49086   2.277  12.802  13.585 -0.0704 -0.0001  0.2051
32613ION     NA49087   1.690  14.687   2.102  0.0984 -0.0543  0.1759
32614ION     NA49088   0.920  14.014   5.896 -0.2936 -0.2396  0.0554
32615ION     NA49089   7.113   7.704   0.849  0.1380 -0.4343 -0.1925
32616ION     NA49090  14.602  17.224   2.034 -0.1098 -0.2299 -0.1993
32617ION     NA49091  10.125   2.886  11.749  0.2233  0.2197  0.1897
32618ION     NA49092  13.146  13.026   6.017 -0.0768 -0.0352  0.2271
32619ION     NA49093   9.812   0.342   4.367  0.0405 -0.2803  0.1180
32620ION     NA49094   2.829  11.062  10.256 -0.0316 -0.1009 -0.0938
32621ION     NA49095  13.123   3.002   2.916 -0.2206 -0.1811 -0.0989
32622ION     NA49096  15.543  14.074  10.240 -0.0886 -0.2320  0.1406
32623ION     NA49097  15.395   7.867   4.428  0.0807  0.1091 -0.1268
32624ION     NA49098   6.065   3.886  12.163  0.1830 -0.1618 -0.1386
32625ION     NA49099   8.408   5.337  11.038 -0.0986  0.2665  0.4135
32626ION     NA49100  18.047  16.698   0.238  0.1607 -0.0614  0.3420
32627ION     NA49101  13.056   4.419  12.317  0.2551 -0.1257 -0.0192
32628ION     NA49102   5.171  15.140  12.737  0.1180 -0.2236 -0.0125
32629ION     NA49103   3.692   1.374  14.004 -0.1085 -0.3297  0.1929
32630ION     NA49104   3.030   5.242  10.187 -0.1376 -0.0075 -0.0509
32631ION     NA49105   3.715   4.917  15.888 -0.1784  0.1916  0.1896
32632ION     NA49106   8.785  15.777   0.036  0.0696 -0.0861 -0.1563
32633ION     NA49107  13.643   1.246   4.607  0.3287  0.4709  0.0277
32634ION     NA49108   1.543  10.607  13.273  0.1582  0.0446 -0.1659
32635ION     NA49109   2.330   1.448   5.271  0.0223  0.0741  0.0792
32636ION     NA49110   4.858   7.354   1.438 -0.3559  0.0207 -0.0789
32637ION     NA49111   9.202   5.603   1.905  0.0793 -0.1132 -0.4479
32638ION     NA49112  17.736  13.574  15.252  0.0477  0.5967  0.1601
32639ION     NA49113   5.284  17.303  10.319 -0.2036  0.1268 -0.1537
32640ION     NA49114  16.802   3.012   2.673  0.1672  0.1978 -0.1866
32641ION     NA49115   7.115   1.136   3.543 -0.0979 -0.1200  0.2065
32642ION     NA49116   9.633  14.093   5.941 -0.2015 -0.0818 -0.1312
32643ION     NA49117  17.227   3.395  10.435  0.0279  0.1434  0.0365
32644ION     NA49118   5.168  11.308   5.480  0.1544  0.2951  0.1558
32645ION     NA49119   8.367  16.679   5.582 -0.4293  0.0071 -0.1600
32646ION     NA49120   8.065  18.040   1.919  0.1939 -0.1930  0.0313
32647ION     NA49121   2.955  13.261   0.729 -0.0216  0.1658  0.0379
32648ION     NA49122  16.299   6.621  10.105 -0.2163  0.0951  0.1850
32649ION     NA49123   4.585  10.574  10.143 -0.0902 -0.1920 -0.0512
32650ION     NA49124   4.063  14.991  11.810 -0.0607 -0.3580 -0.0235
32651ION     NA49125  13.513  10.079  10.884  0.2340  0.1248 -0.3061
32652ION     NA49126   0.354   1.303   3.688  0.0212 -0.1822  0.3085
32653ION     NA49127  11.236  13.341  10.794 -0.0609 -0.1168 -0.1967
32654ION     NA49128  18.126   2.773   5.794 -0.0767 -0.0886 -0.2352
32655ION     NA49129  15.862  11.703   3.979  0.1178  0.1287 -0.0395
32656ION     NA49130  10.177  16.180  14.991 -0.2299  0.0457  0.1557
32657ION     NA49131   4.310   4.786  10.358  0.3624 -0.2304 -0.2784
32658ION     NA49132  16.672   1.550   0.682 -0.1944 -0.0971 -0.0763
32659ION     NA49133   7.401  16.510  10.393  0.1691  0.3750  0.2073
32660ION     NA49134   3.724   9.011   0.308 -0.0631 -0.0418  0.3525
32661ION     NA49135  14.270   1.902   5.654 -0.1287 -0.2429 -0.1478
32662ION     NA49136  11.540   0.047   1.589 -0.1774 -0.2041  0.3047
32663ION     NA49137   0.014   5.247   2.940  0.0654 -0.0193 -0.1063
32664ION     NA49138   5.622  16.564  14.147  0.1915  0.0916 -0.0792
32665ION     NA49139  10.522   0.380   2.096 -0.0557  0.0057 -0.1213
32666ION     NA49140   1.253  13.832  14.706 -0.0336 -0.1060 -0.1071
32667ION     NA49141  15.064   7.746   5.826  0.0870  0.0465  0.2752
32668ION     NA49142   1.355  17.171   3.999  0.1576  0.1927  0.0471
32669ION     NA49143   4.189  16.717   0.024  0.3177 -0.0983  0.0855
32670ION     NA49144  18.013   6.810   5.783  0.2945  0.0383  0.0107
32671ION     NA49145  17.844   3.998   1.619  0.0553 -0.0030  0.1178
32672ION     NA49146  17.185  11.169   3.374 -0.0413  0.0772 -0.1686
32673ION     NA49147   6.085  16.258   0.525 -0.1607  0.3502 -0.1611
32674ION     NA49148  10.745  17.432   5.866  0.1321 -0.2390  0.0975
32675ION     NA49149  15.577   4.958   1.432 -0.1005  0.2239  0.0049
32676ION     NA49150   3.941   7.035   3.162 -0.0602  0.1362  0.0252
32677ION     NA49151  14.350  11.625   3.550  0.1962 -0.0618  0.0573
32678ION     NA49152   0.891   6.185   5.479 -0.0823  0.0555  0.3695
32679ION     NA49153  15.755   5.167   5.760 -0.3957 -0.0158 -0.0020
32680ION     NA49154   1.723   9.727   1.105 -0.0982  0.2198  0.1048
32681ION     NA49155  12.870   6.380  13.631  0.1420 -0.1398 -0.0988
32682ION     NA49156   7.700  10.278   3.902 -0.0840  0.2842 -0.0902
32683ION     NA49157   1.648   7.358  10.044 -0.0236 -0.3137 -0.1620
32684ION     NA49158   1.469  15.965   1.584  0.1329  0.0825  0.0005
32685ION     NA49159   9.625  15.474   6.141  0.1611  0.0144 -0.1402
32686ION     NA49160  15.353  14.456   2.166 -0.2742  0.2020  0.1226
32687ION     NA49161  12.840  17.943   4.814  0.0443  0.0084  0.3960
32688ION     NA49162   0.808  14.341   3.714  0.0625 -0.0687 -0.0357
32689ION     NA49163   5.143  16.458  11.128  0.0008 -0.1893 -0.0455
32690ION     NA49164  13.188  15.919   5.818 -0.2192  0.3380 -0.0405
32691ION     NA49165  10.665   9.566   5.878 -0.0944  0.1540 -0.0597
32692ION     NA49166   3.677  15.565   4.992  0.0735 -0.1842  0.0656
32693ION     NA49167   1.677  18.355   3.089  0.0906 -0.3237  0.1044
32694ION     NA49168   6.194   1.640   3.679  0.2680  0.0843 -0.0926
32695ION     NA49169   9.864   8.405  10.674  0.3895 -0.2028 -0.0132
32696ION     NA49170   6.228  10.598  12.971 -0.1128 -0.0703  0.4628
32697ION     NA49171  10.271  12.508  10.620  0.1075 -0.0978  0.1648
32698ION     NA49172  15.899  10.670  10.921  0.2120  0.1420  0.0698
32699ION     NA49173  18.136   2.563  15.593 -0.1694  0.0033  0.0584
32700ION     NA49174  11.578  16.911  14.704 -0.0391  0.1722  0.2084
32701ION     NA49175  10.685   0.780   1.321  0.2107 -0.0482 -0.1057
32702ION     NA49176   2.973  13.869  10.322  0.2551 -0.1131 -0.1540
32703ION     NA49177   1.937   6.205   2.109 -0.4251 -0.0063 -0.2678
32704ION     NA49178  11.223   8.878  10.676 -0.2027 -0.0004 -0.0125
32705ION     NA49179  10.306   4.228   9.900  0.2450  0.2058  0.0623
32706ION     NA49180  16.125  17.695  13.545  0.0249 -0.2057 -0.0824
32707ION     NA49181  11.515   0.071   9.922 -0.1389  0.0621  0.0280
32708ION     NA49182   3.515  16.874   4.586  0.0314  0.0069 -0.2930
32709ION     NA49183  14.994  16.516   2.439 -0.2156  0.0209  0.0025
32710ION     NA49184  12.244  12.178   2.498 -0.2483 -0.0181 -0.1313
32711ION     NA49185  16.430  10.680  11.646 -0.1862 -0.0093 -0.0082
32712ION     NA49186   5.332   0.884  14.944 -0.1610 -0.0938  0.3885
32713ION     NA49187   6.074  13.971  10.270 -0.0912  0.0696 -0.0631
32714ION     NA49188   8.800   4.315   3.067  0.3365 -0.4055  0.1381
32715ION     NA49189  15.369  10.570   3.087  0.1255 -0.0711  0.0567
32716ION     NA49190  11.240   2.554  15.056 -0.0716 -0.2648  0.0009
32717ION     NA49191  12.913  14.298   0.425  0.1655 -0.0462  0.2125
32718ION     NA49192   2.021  12.638  10.633  0.1867 -0.4339  0.2931
32719ION     NA49193   9.451  12.086   3.711  0.1033 -0.3636  0.0231
32720ION     NA49194  15.237  11.161  14.732  0.2484  0.0222 -0.4095
32721ION     NA49195   6.597   8.115   2.544  0.0377 -0.0266  0.0802
32722ION     NA49196   0.245   1.805   0.775  0.2031 -0.1822 -0.0403
32723ION     NA49197  16.592   1.302  14.003  0.0678 -0.1120  0.1713
32724ION     NA49198  14.021   2.564  12.227 -0.4926 -0.1941  0.0754
32725ION     NA49199   3.099  15.981   0.857 -0.0855  0.1201 -0.1824
32726ION     NA49200   9.596  13.717  10.748 -0.0689 -0.2101  0.2431
32727ION     NA49201   4.703  17.811   4.738  0.0369 -0.1163  0.0080
32728ION     NA49202  12.678   8.989  10.653 -0.0516  0.1919 -0.1273
32729ION     NA49203   6.839  11.064  15.514  0.0293 -0.2722 -0.1379
32730ION     NA49204   8.139   6.373  10.257 -0.5160 -0.0842 -0.0201
32731ION     NA49205   2.876  10.627   5.077 -0.2066 -0.0293  0.0525
32732ION     NA49206   4.601   2.119  10.306 -0.0253  0.2103 -0.1575
32733ION     NA49207  16.810   2.347   1.483 -0.1373 -0.1868  0.0118
32734ION     NA49208  12.274   3.369  15.099  0.0653  0.1234  0.0620
32735ION     NA49209   8.650   6.603  12.897  0.2382  0.2684 -0.0227
32736ION     NA49210   6.366   3.003   3.718  0.3758 -0.2684 -0.1196
32737ION     NA49211   6.993  17.561  15.877 -0.1865 -0.3077  0.0124
32738ION     NA49212   8.371   1.566   3.387  0.1096  0.1077  0.0256
32739ION     NA49213  13.650   3.168  11.045 -0.0662 -0.2024  0.0733
32740ION     NA49214   3.630   6.251   4.565 -0.0643  0.0177 -0.3133
32741ION     NA49215  17.675  10.027  10.476  0.1481  0.0446  0.0899
32742ION     NA49216   7.825  14.145  10.358  0.3887  0.0510 -0.0903
32743ION     NA49217  16.093   5.320   0.276 -0.3063 -0.1900  0.0681
32744ION     NA49218   8.026  14.970  10.377 -0.0822  0.1070  0.0347
32745ION     NA49219   1.156  13.078   6.092  0.0170  0.0056 -0.1384
32746ION     NA49220   0.823  13.002   2.241  0.0374  0.0710 -0.0839
32747ION     NA49221  16.112   5.656  10.066 -0.1509  0.0837  0.1690
32748ION     NA49222  15.406  16.079  10.445  0.0383  0.0563  0.1636
32749ION     NA49223  10.929   3.415   5.639 -0.0817  0.1174  0.2354
32750ION     NA49224   9.512  12.888   5.123 -0.2331  0.0590 -0.2277
32751ION     NA49225  10.165  10.260   1.481 -0.1171 -0.0749  0.0830
32752ION     NA49226  15.492  14.418  15.797  0.1087  0.0531 -0.2229
32753ION     NA49227   2.711   6.770   0.377  0.0818  0.1065 -0.0128
32754ION     NA49228  15.499   1.883  13.793 -0.0425 -0.3339  0.2256
32755ION     NA49229  14.451  16.374   3.656 -0.2612 -0.1008 -0.1000
32756ION     NA49230  13.690  11.658   0.163 -0.0941 -0.0148  0.1726
32757ION     NA49231   5.688  15.690   5.541  0.0207 -0.3517 -0.3600
32758ION     NA49232  14.154   7.575   2.339 -0.3570 -0.1719 -0.3786
32759ION     NA49233  16.100  16.605  15.283 -0.0570 -0.0746 -0.0756
32760ION     NA49234  12.192   6.991   4.243  0.0466  0.0154 -0.1763
32761ION     NA49235   5.895  15.562   3.338  0.0495  0.1317  0.4325
32762ION     NA49236  15.403   4.437   3.202  0.3004 -0.1280 -0.0454
32763ION     NA49237  16.885  16.229  15.530 -0.2001  0.1043 -0.1905
32764ION     NA49238   5.366   8.902  10.438 -0.0187  0.1446 -0.1266
32765ION     NA49239  16.531   9.882   3.508 -0.0281 -0.0580  0.0966
32766ION     NA49240   1.939   5.920   5.405  0.2133  0.3253  0.1402
32767ION     NA49241  17.481   8.451  10.310  0.4664 -0.0536  0.1749
32768ION     NA49242   4.035  12.040   1.562 -0.0429 -0.2844  0.0419
32769ION     NA49243   7.551   0.926   5.876  0.2309 -0.1728  0.2393
32770ION     NA49244  10.413   2.492   2.223  0.1561 -0.0308 -0.0527
32771ION     NA49245   5.665  16.288   2.853 -0.1113 -0.1097 -0.3536
32772ION     NA49246   0.566   8.197  13.103 -0.1695  0.0327 -0.2138
32773ION     NA49247   0.271   2.312  10.111  0.2272 -0.0304  0.0201
32774ION     NA49248   7.253   0.503  13.973 -0.2477 -0.1276  0.0833
32775ION     NA49249  10.190  16.189  13.169  0.0763 -0.1359  0.0156
32776ION     NA49250   1.261   1.967  10.109 -0.0195 -0.0131 -0.0626
32777ION     NA49251   3.160   3.149   2.296 -0.0578  0.2083  0.0367
32778ION     NA49252   7.794   9.279   3.982 -0.1993 -0.0573 -0.0791
32779ION     NA49253   1.852  14.491   4.269 -0.3115  0.0677 -0.2671
32780ION     NA49254  15.112   2.327   5.470  0.0003  0.3025  0.1177
32781ION     NA49255  14.197   1.914  10.454 -0.1440 -0.0359  0.2137
32782ION     NA49256   8.225   3.635  10.350  0.1559 -0.0250  0.0214
32783ION     NA49257  17.654  13.377   0.752  0.2139 -0.2031  0.0278
32784ION     NA49258   0.297   3.269   5.375 -0.1236 -0.0475 -0.2290
32785ION     NA49259  17.452  11.799   5.264  0.0417  0.0494  0.0662
32786ION     NA49260  15.136   8.919  10.159 -0.0804 -0.2198  0.0559
32787ION     NA49261  18.245   1.702  10.444  0.0821 -0.1389  0.0629
32788ION     NA49262  13.060  12.478  15.327 -0.0415  0.0622  0.2026
32789ION     NA49263   8.111  10.914  10.218  0.3491 -0.2957  0.0477
32790ION     NA49264  10.094   5.177   5.353  0.0900  0.0212 -0.0356
32791ION     NA49265   1.148  17.313  15.178  0.3698 -0.0870 -0.0996
32792ION     NA49266   1.851  18.222  10.184 -0.0323  0.0628  0.2282
32793ION     NA49267   3.505   9.796  11.524  0.1066  0.0352 -0.2395
32794ION     NA49268   7.251  16.953   4.742 -0.1745 -0.1056  0.0248
32795ION     NA49269   8.411  13.988   3.330 -0.0040 -0.0649  0.1542
32796ION     NA49270   8.161  18.058   9.721 -0.2202  0.0980  0.2165
32797ION     NA49271   0.514   6.427  10.237 -0.2518  0.1549 -0.0656
32798ION     NA49272   9.180   8.535   2.254 -0.1149  0.0541 -0.0200
32799ION     NA49273  15.879   1.484  11.433  0.3356 -0.1241  0.4322
32800ION     NA49274  14.814  10.597   5.949 -0.2178 -0.1301  0.1264
32801ION     NA49275   1.639   1.714   2.025  0.1121 -0.1245  0.3041
32802ION     NA49276   9.763   4.265   3.196 -0.0727 -0.1190 -0.0131
32803ION     NA49277   8.681  15.380   5.451  0.1688  0.1794  0.0182
32804ION     NA49278   7.856  11.447  11.785 -0.0395  0.3590 -0.0025
32805ION     NA49279  14.098  13.817   3.463 -0.0458 -0.0710 -0.0108
32806ION     NA49280   6.906  13.838   5.261  0.0627  0.0423 -0.0286
32807ION     NA49281  14.016  14.760  15.824  0.0895 -0.1023  0.1684
32808ION     NA49282   5.417   5.424  15.043  0.0895 -0.2990  0.2210
32809ION     NA49283  14.887   1.459   4.930 -0.3667 -0.0617 -0.1269
32810ION     NA49284   1.276  16.231   5.750 -0.1259  0.0516 -0.0056
32811ION     NA49285   2.223   8.853   0.264  0.2031 -0.4144 -0.2919
32812ION     NA49286  18.248   5.385   5.716 -0.0744  0.2593  0.4834
32813ION     NA49287  15.070  11.231   0.014 -0.3522 -0.2659  0.0863
32814ION     NA49288   2.688  13.530   4.202 -0.0919 -0.2414  0.0153
32815ION     NA49289   8.028  17.776  13.073  0.0790 -0.0977  0.2156
32816ION     NA49290   7.161   4.668   3.477  0.1144  0.0635 -0.1707
32817ION     NA49291   8.250   1.676  11.060  0.4758 -0.0809  0.3862
32818ION     NA49292   6.562  13.163  15.491 -0.1223 -0.1166  0.0616
32819ION     NA49293  14.017   4.614  10.083  0.0580  0.2905 -0.3550
32820ION     NA49294   3.030   2.313  14.961  0.0334  0.0856  0.1308
32821ION     NA49295  11.036   0.844   0.096  0.3330  0.1723  0.1043
32822ION     NA49296   3.949   9.368   4.787 -0.3938  0.2277 -0.0189
32823ION     NA49297   0.709   4.244  15.828  0.2403  0.0916 -0.0247
32824ION     NA49298   7.980  14.389   5.697  0.1835  0.0246 -0.3849
32825ION     NA49299  12.949  15.122   5.764  0.0709  0.1144 -0.1076
32826ION     NA49300  12.994  16.209   4.518 -0.1276  0.1307  0.1783
32827ION     NA49301   7.951   1.498   9.891 -0.0534 -0.0595 -0.3199
32828ION     NA49302  11.153   2.930  12.965 -0.4154 -0.4495  0.0398
32829ION     NA49303  13.219  18.306  14.159  0.1546  0.0682  0.0346
32830ION     NA49304   0.402  16.747   3.559  0.2943 -0.0049  0.0230
32831ION     NA49305  10.397  11.083   0.871  0.2997 -0.0207  0.0512
32832ION     NA49306  16.784  12.413   3.641 -0.0221  0.5066  0.1945
32833ION     NA49307   6.904  13.273  14.179 -0.0206 -0.0074  0.1241
32834ION     NA49308  14.600   8.312   0.324  0.0519  0.3206  0.2622
32835ION     NA49309  10.965   1.310  12.047  0.1202 -0.0017 -0.2137
32836ION     NA49310   1.947   5.488  14.895  0.0029  0.0196 -0.1328
32837ION     NA49311   3.601   7.696   3.413 -0.0361 -0.0376  0.1065
32838ION     NA49312  13.061  16.229   1.213 -0.1216 -0.1311 -0.0258
32839ION     NA49313  14.145  13.997   6.210  0.1684 -0.0696 -0.2482
32840ION     NA49314   3.888  16.728  11.868 -0.1329 -0.2068 -0.1621
32841ION     NA49315  15.187   6.083  10.214  0.2913  0.0680  0.1181
32842ION     NA49316   1.274   7.960   4.247  0.0152  0.3278 -0.2175
32843ION     NA49317   4.934   1.138   4.518 -0.2452 -0.0170 -0.0089
32844ION     NA49318  16.023   1.797   1.585 -0.2832  0.1231  0.1297
32845ION     NA49319  16.393  11.496   0.641 -0.1852  0.0208  0.3477
32846ION     NA49320  10.225  14.065   5.971  0.1981  0.2763 -0.1071
32847ION     NA49321   2.948   5.369   1.889  0.1309 -0.1618 -0.1961
32848ION     NA49322   2.305  10.462   2.233  0.0907 -0.1103 -0.1792
32849ION     NA49323  10.794   5.842   0.310 -0.1141  0.1606  0.1504
32850ION     NA49324   9.032   8.131   6.038 -0.2225  0.0702  0.2443
32851ION     NA49325   3.800  11.199  10.310 -0.0642 -0.2624 -0.1320
32852ION     NA49326  11.333  15.769   1.401  0.0674  0.3107  0.0083
32853ION     NA49327  18.364   5.262   1.249  0.3271 -0.0698 -0.3513
32854ION     NA49328  13.195  16.865  10.319 -0.4140 -0.0323  0.1276
32855ION     NA49329  12.175   8.230  10.458 -0.0251  0.1763 -0.0598
32856ION     NA49330  13.360  17.202  13.089 -0.1480 -0.3598 -0.1443
32857ION     NA49331   0.436   3.421  15.749  0.0688 -0.2568  0.0234
32858ION     NA49332   2.704   1.877  11.537 -0.0299  0.2718  0.0643
32859ION     NA49333   3.301  14.783   2.854  0.0474  0.2085  0.0212
32860ION     NA49334  14.106   5.072   0.283  0.1531  0.2864  0.1026
32861ION     NA49335   3.458   2.119   3.129 -0.0069 -0.0431  0.1906
32862ION     NA49336  16.945   6.027  14.178  0.0214  0.0918  0.2245
32863ION     NA49337   6.435  15.171  11.975 -0.4723  0.0907  0.1457
32864ION     NA49338   3.702   8.010   5.341  0.0786 -0.0316 -0.0027
32865ION     NA49339  10.651  11.733   4.072  0.0119  0.1108 -0.2096
32866ION     NA49340   6.982  17.404  10.373 -0.0357  0.1466  0.1002
32867ION     NA49341  15.028  14.621  10.455  0.0592  0.1159 -0.0925
32868ION     NA49342   4.348  16.324  15.177 -0.1975  0.1093 -0.1926
32869ION     NA49343   4.483   3.818  12.964  0.3280 -0.0540 -0.0517
32870ION     NA49344  15.507  10.794   4.982 -0.1879  0.1339 -0.2031
32871ION     NA49345  10.571  15.256  10.333 -0.3539  0.1353  0.1026
32872ION     NA49346  14.467  11.127  10.341  0.3056  0.0370 -0.0606
32873ION     NA49347  13.359  15.596  15.943 -0.1599  0.0086 -0.0004
32874ION     NA49348   5.590   6.851  10.308  0.0616  0.0566  0.2819
32875ION     NA49349   8.237   3.240   5.663  0.1401 -0.2152  0.0098
32876ION     NA49350  12.061   0.121   3.107 -0.0071 -0.0273  0.3325
32877ION     NA49351   6.822   0.134   3.394 -0.1258 -0.3259 -0.0329
32878ION     NA49352  18.466  16.932  11.880 -0.4237  0.1491 -0.1771
32879ION     NA49353  12.846   1.696   9.958 -0.0816  0.1425 -0.0447
32880ION     NA49354  16.507   2.653  14.872 -0.0973 -0.1722  0.4150
32881ION     NA49355  16.488  16.091   5.929 -0.2216  0.1429 -0.0566
32882ION     NA49356   2.481   0.897   1.025  0.0254 -0.0435 -0.0897
32883ION     NA49357  18.405   7.973  13.764 -0.1177  0.3766 -0.0585
32884ION     NA49358  12.512   8.837  15.657 -0.1455 -0.1488 -0.2163
32885ION     NA49359  13.261   5.076  10.213  0.4124  0.0941 -0.0815
32886ION     NA49360   7.671   2.400   5.501  0.2834 -0.0681  0.0270
32887ION     NA49361   0.606  15.472  10.151  0.3390 -0.0815  0.1376
32888ION     NA49362   9.486   1.653  11.948 -0.0640 -0.0249  0.1254
32889ION     NA49363  14.238  14.634  10.512  0.1916  0.2297  0.1813
32890ION     NA49364  16.276  10.458  13.430 -0.1017  0.0661 -0.0416
32891ION     NA49365   2.440  14.713  12.204 -0.0129  0.1907  0.2988
32892ION     NA49366  14.537   5.395   5.431  0.0267  0.3623  0.0513
32893ION     NA49367  17.912   2.952  10.200  0.1329 -0.3679 -0.1317
32894ION     NA49368  18.037  16.564   5.978  0.0565  0.2392 -0.0870
32895ION     NA49369  10.374   8.954  15.470 -0.0296 -0.3459 -0.0262
32896ION     NA49370   0.616   5.363   4.078  0.2426  0.0428  0.0773
32897ION     NA49371  10.772  14.598  10.485  0.0324  0.0769  0.0718
32898ION     NA49372   4.271   7.089   9.872 -0.1906  0.1512  0.1816
32899ION     NA49373   9.461   1.967  15.562 -0.0777  0.0511 -0.0323
32900ION     NA49374  11.209  16.944   5.847  0.0799 -0.1382  0.1533
32901ION     NA49375  13.874   1.160  11.720  0.2376 -0.0961  0.0809
32902ION     NA49376  12.689   6.069  10.463 -0.0530 -0.4060 -0.2679
32903ION     NA49377   9.022  16.789   0.165 -0.3112 -0.0030  0.0373
32904ION     NA49378  17.439   5.261  10.359 -0.4245 -0.1625 -0.1226
32905ION     NA49379   0.155  16.894  10.603  0.0611  0.0977  0.0983
32906ION     NA49380   3.009  12.847   4.320  0.3573  0.0954  0.2775
32907ION     NA49381   2.655   0.633  15.277 -0.1773 -0.0254 -0.0946
32908ION     NA49382   6.618  10.348   3.349 -0.1988  0.1084  0.3756
32909ION     NA49383  14.764  10.288  14.545  0.2083 -0.2241 -0.0984
32910ION     NA49384   9.656  13.263   1.363  0.0040  0.3458  0.4525
32911ION     NA49385   4.607   8.381  15.643 -0.1784 -0.2414 -0.0016
32912ION     NA49386  18.445   5.727   2.202  0.1138 -0.0932 -0.1856
32913ION     NA49387   8.477   9.015  10.183 -0.1061 -0.0903  0.1037
32914ION     NA49388  17.937  12.434   1.185 -0.3569 -0.0856  0.1489
32915ION     NA49389   2.424   3.258   0.383  0.1488  0.1483  0.1173
32916ION     NA49390  17.732  14.790   5.778  0.2329 -0.0272  0.1115
32917ION     NA49391   6.001   5.440   5.762 -0.1333 -0.0651  0.1512
32918ION     NA49392   0.755  12.813  15.455 -0.1983  0.1224  0.1411
32919ION     NA49393  12.426  17.838  15.677  0.0020  0.0051  0.3158
32920ION     NA49394  10.325   5.884  15.384 -0.1861  0.1804  0.1096
32921ION     NA49395   7.148  16.870   5.704 -0.1510 -0.2672  0.2706
32922ION     NA49396   1.197  12.625  10.773  0.1915 -0.1861  0.1935
32923ION     NA49397  10.145   1.642   2.946 -0.0340 -0.1619 -0.0111
32924ION     NA49398  15.844   4.772   4.047  0.3068 -0.0416 -0.0063
32925ION     NA49399   0.739   9.584  10.528 -0.2853 -0.2540  0.1720
32926ION     NA49400   4.911  13.212   5.061  0.1327 -0.2559 -0.0929
32927ION     NA49401   3.048   3.030  10.294 -0.1449 -0.2217 -0.1670
32928ION     NA49402   2.321   8.154   9.873 -0.0500  0.2449 -0.1298
32929ION     NA49403   0.206  11.975   0.305 -0.0652 -0.0157 -0.1848
32930ION     NA49404  17.110  14.387   5.827  0.4277  0.0773 -0.4364
32931ION     NA49405   8.746  16.895   0.924  0.0698  0.0279 -0.0628
32932ION     NA49406   8.838   2.521  15.435  0.2672 -0.0753  0.2633
32933ION     NA49407  12.177  17.973   5.284  0.1867 -0.1439 -0.0038
32934ION     NA49408  14.771  15.367  10.494  0.0967  0.0333 -0.0049
32935ION     NA49409   9.956   4.047  11.521 -0.1351 -0.0045  0.0731
32936ION     NA49410  10.397   6.369   4.432  0.2508 -0.1811  0.0159
32937ION     NA49411   2.401   1.666  13.476 -0.1206 -0.0014  0.0499
32938ION     NA49412   4.727   0.252  15.522 -0.0795 -0.0012 -0.1299
32939ION     NA49413  14.958   5.632   2.897  0.1021 -0.0780 -0.0802
32940ION     NA49414   9.981   5.028  10.090 -0.0586  0.1993  0.0459
32941ION     NA49415  13.703   2.200  15.857 -0.0775 -0.0996  0.1598
32942ION     NA49416   3.186  15.361   5.960  0.2839 -0.1360 -0.2411
32943ION     NA49417  17.701   9.475  13.350  0.0238  0.1209 -0.0800
32944ION     NA49418  14.073   7.082  14.746  0.1272 -0.2079 -0.2490
32945ION     NA49419   8.040   1.415   0.092  0.0525  0.0146 -0.3523
32946ION     NA49420   4.721   2.900   1.261  0.0595  0.1681 -0.1259
32947ION     NA49421   6.507  18.268   6.155 -0.3055 -0.0157  0.1853
32948ION     NA49422  18.159  12.507   2.473 -0.1109 -0.0276  0.0159
32949ION     NA49423   0.777  18.371  15.620 -0.2219 -0.0469 -0.0270
32950ION     NA49424  17.548   6.876  15.608  0.3908 -0.3248 -0.0556
32951ION     NA49425  18.348   2.896   0.386  0.1073  0.3089 -0.0235
32952ION     NA49426  12.448  14.869  10.694 -0.0073  0.0501 -0.2297
32953ION     NA49427  16.774  11.183  15.524  0.1657 -0.0318  0.3779
32954ION     NA49428  10.752   7.158  10.537 -0.1887 -0.2065  0.0354
32955ION     NA49429  18.061  10.424   3.363 -0.3426 -0.0026 -0.2426
32956ION     NA49430   7.255   3.717  10.100  0.0065  0.0743 -0.2992
32957ION     NA49431  17.955  12.848  10.619 -0.0116 -0.1593  0.0629
32958ION     NA49432  18.014  17.282  10.072  0.4570 -0.1818 -0.0655
32959ION     NA49433   1.935  12.678   6.078 -0.0367 -0.2812 -0.0274
32960ION     NA49434   1.129   5.628  13.461 -0.1189  0.4736 -0.2063
32961ION     NA49435  10.657   2.621   5.252  0.1176 -0.1248  0.0186
32962ION     NA49436   6.062  13.558  14.585 -0.1847 -0.1659  0.3926
32963ION     NA49437  13.091   4.657  15.532  0.1784  0.2258 -0.1771
32964ION     NA49438   1.293   4.957  10.220 -0.0109 -0.0860 -0.1190
32965ION     NA49439   9.400  12.345  11.570 -0.0923  0.0889 -0.1365
32966ION     NA49440   3.671   6.386   9.817  0.1594 -0.0810  0.1007
32967ION     NA49441   8.033   4.809  11.913 -0.2777  0.5322 -0.0432
32968ION     NA49442  10.965  15.240   6.211 -0.0335  0.0656 -0.0369
32969ION     NA49443   5.074  13.681   1.911 -0.2466 -0.0905  0.2096
32970ION     NA49444  10.860   9.882   0.905 -0.1002 -0.0137  0.1784
32971ION     NA49445  11.777   9.927   2.794  0.0157  0.1596  0.0932
32972ION     NA49446  15.713   9.902   4.134  0.1727 -0.0845 -0.1019
32973ION     NA49447   0.207   8.817  14.230 -0.1154  0.1495 -0.0889
32974ION     NA49448   6.482   5.568  13.736 -0.0403 -0.2746  0.1698
32975ION     NA49449   6.296   7.756   1.711  0.0778 -0.0507 -0.2405
32976ION     NA49450  13.736  18.304   4.173 -0.1809 -0.0631  0.1605
32977ION     NA49451  10.640   4.319   5.674  0.1590  0.1794 -0.1781
32978ION     NA49452   8.102  13.070   4.826 -0.1627 -0.0793 -0.0378
32979ION     NA49453   9.286  12.882  15.026 -0.0922 -0.0555 -0.0955
32980ION     NA49454  17.236  15.020  15.104  0.1656 -0.1055  0.0605
32981ION     NA49455   0.191   9.789  12.847 -0.1673 -0.1321 -0.1907
32982ION     NA49456  10.443  13.995  15.806  0.3411 -0.2301  0.0218
32983ION     NA49457  11.373   6.089   6.127 -0.3108  0.1006  0.1304
32984ION     NA49458  11.175   3.067   4.713  0.2285  0.0484  0.0901
32985ION     NA49459  14.140  14.798   3.272  0.0436  0.2940  0.0537
32986ION     NA49460  13.409  15.366   4.302 -0.0628  0.2771 -0.1010
32987ION     NA49461  13.025  11.519  10.693 -0.0631 -0.1318  0.4769
32988ION     NA49462   3.125  12.270  11.404  0.3056 -0.1142  0.2903
32989ION     NA49463  12.534  14.472   4.064  0.2541 -0.2117  0.1758
32990ION     NA49464   3.197   0.127   5.605 -0.0196  0.0826  0.1779
32991ION     NA49465   0.207   4.130  13.132 -0.1064 -0.3208  0.1811
32992ION     NA49466  11.008   3.002  15.863 -0.0571  0.4325  0.1481
32993ION     NA49467  13.821   9.584   5.748  0.2599  0.0681  0.0903
32994ION     NA49468  11.179  16.034   6.132 -0.0727  0.0102 -0.1394
32995ION     NA49469   7.296  17.770  10.119  0.1155  0.0164  0.1770
32996ION     NA49470   0.645   4.762   1.440  0.0660 -0.0422 -0.1804
32997ION     NA49471   0.422  11.983   6.021 -0.2094 -0.0891  0.1582
32998ION     NA49472   2.616   9.806   5.628  0.0702  0.1512 -0.3960
32999ION     NA49473   4.793  17.432  13.268 -0.1629  0.2161 -0.1768
33000ION     NA49474  13.615   9.978   5.939  0.1315 -0.0730 -0.0100
33001ION     NA49475  17.927   4.005  14.659  0.1237 -0.2174 -0.1093
33002ION     NA49476  10.231  16.714   5.511 -0.0023 -0.2571 -0.0484
33003ION     NA49477  14.719   4.274   4.607 -0.0353  0.2866 -0.0651
33004ION     NA49478  16.031   8.783  13.921  0.2774 -0.2854 -0.1198
33005ION     NA49479   7.583   1.875   5.728  0.1798 -0.0506  0.1572
33006ION     NA49480  17.091   9.607  14.924 -0.1158 -0.1502  0.1046
33007ION     NA49481   5.449   8.601  14.255  0.0778  0.0958  0.0181
33008ION     NA49482  11.373   2.179   1.964  0.0768 -0.1086 -0.1555
33009ION     NA49483  16.595   0.426   2.049  0.2256 -0.2326 -0.1377
33010ION     NA49484  16.134  13.415  10.350 -0.0424  0.0625 -0.2977
33011ION     NA49485   3.366  17.779   5.810 -0.1651 -0.1691  0.2002
33012ION     NA49486   3.389  11.123   4.479 -0.2551  0.0694  0.1253
33013ION     NA49487   9.551   0.474  14.202 -0.1596  0.3441 -0.2735
33014ION     NA49488   4.224   4.963   2.463  0.0240 -0.1338 -0.0488
33015ION     NA49489   2.383  14.723  13.834  0.2749  0.1706  0.2228
33016ION     NA49490  16.405  14.302  10.368 -0.0754  0.0453 -0.1248
33017ION     NA49491  11.268   4.952   5.668 -0.1348  0.0128  0.0459
33018ION     NA49492  18.331  12.825   4.191  0.2261 -0.0233 -0.1882
33019ION     NA49493   6.972  16.465   0.827 -0.2180  0.1562 -0.0181
33020ION     NA49494  14.499  11.722  14.608  0.0884  0.1125 -0.5134
33021ION     NA49495   4.771  12.313   2.774 -0.1033  0.1396  0.2336
33022ION     NA49496  15.858   6.153   5.645  0.2931  0.0321 -0.0722
33023ION     NA49497  16.130   5.370  13.054 -0.0118  0.0760 -0.1621
33024ION     NA49498  12.758  11.777   5.981  0.2019  0.1788 -0.0912
33025ION     NA49499   2.500   4.106   5.954 -0.0591  0.1221  0.1073
33026ION     NA49500  10.509   4.441   0.869  0.1081  0.0947  0.3310
33027ION     NA49501   6.680  16.144   2.309 -0.0474  0.1496  0.0515
33028ION     NA49502   3.468  10.509  10.190 -0.1202 -0.1027 -0.4039
33029ION     NA49503   0.677   8.832  10.117 -0.2274 -0.1977 -0.4588
33030ION     NA49504   1.011  17.871   4.294  0.0324 -0.2197  0.1429
33031ION     NA49505   8.222   9.938  10.183 -0.0500  0.0836  0.0842
33032ION     NA49506   3.666   9.842   5.627 -0.2885  0.2245  0.0265
33033ION     NA49507  11.242   5.811  10.658  0.0842 -0.0494  0.4735
33034ION     NA49508   7.518  12.568  15.370 -0.0996 -0.0863 -0.0742
33035ION     NA49509   5.029   0.021   2.281 -0.2630  0.1223 -0.1651
33036ION     NA49510  15.749   6.874   5.722 -0.0058 -0.3328  0.0421
33037ION     NA49511  17.946  13.471  13.220  0.0579  0.0849 -0.3679
33038ION     NA49512   3.310   9.891  14.132  0.3310  0.2511  0.0077
33039ION     NA49513   2.095  15.847  10.606 -0.3763  0.1235 -0.2037
33040ION     NA49514  13.808   3.740  10.345  0.1952 -0.0472 -0.0601
33041ION     NA49515  10.226   8.715  14.529 -0.1162 -0.1180  0.0484
33042ION     NA49516   5.604   3.870  10.229 -0.1895  0.0556 -0.2430
33043ION     NA49517   0.805   7.901  15.484 -0.1033 -0.0995 -0.0764
33044ION     NA49518   0.203   8.108   0.704 -0.0371 -0.2312 -0.0102
33045ION     NA49519   7.446  17.973  11.698  0.1013  0.0087  0.0204
33046ION     NA49520   5.638  14.676   2.768  0.0900  0.1333 -0.1885
33047ION     NA49521   0.817  10.789   5.980 -0.0762 -0.0616 -0.0946
33048ION     NA49522   0.275  12.464  10.633 -0.1657  0.3571  0.1960
33049ION     NA49523   7.888   8.015   2.073 -0.1125 -0.0521 -0.2287
33050ION     NA49524   9.873  11.718  10.489  0.0108 -0.2560 -0.1838
33051ION     NA49525   3.619   9.566  10.040  0.3236  0.2742  0.2792
33052ION     NA49526   8.549  15.499   2.665 -0.1409  0.2551 -0.0044
33053ION     NA49527  13.453  14.768  10.711 -0.0714 -0.4041  0.0505
33054ION     NA49528  17.137  10.931  14.096  0.2454 -0.0663  0.0991
33055ION     NA49529  15.013  17.270   5.699  0.0551 -0.3338  0.1161
33056ION     NA49530  17.190   6.084   1.498 -0.0364  0.1942  0.0433
33057ION     NA49531   9.207   6.287  11.070 -0.0947 -0.2633 -0.2703
33058ION     NA49532  15.631  17.708   4.032  0.0777 -0.0619 -0.0819
33059ION     NA49533  17.383   5.113   5.623 -0.0952 -0.3434  0.0499
33060ION     NA49534  14.808   7.556   0.960 -0.3552 -0.1165  0.2097
33061ION     NA49535   7.812  11.869  10.221 -0.0830  0.3274 -0.0175
33062ION     NA49536   9.814  12.148  13.629 -0.0850  0.1504  0.3167
33063ION     NA49537   0.609   6.842   3.807 -0.2936 -0.0980 -0.0747
33064ION     NA49538  10.789   7.360   0.163  0.0646 -0.0752 -0.0560
33065ION     NA49539  13.725   6.408   2.115  0.0333 -0.0287 -0.3276
33066ION     NA49540  15.590   3.193   5.751 -0.1244 -0.3962 -0.1313
33067ION     NA49541  12.675  11.406   1.366 -0.0386  0.2401 -0.1335
33068ION     NA49542   1.707   4.316   1.869  0.3379 -0.0229  0.4314
33069ION     NA49543  12.804  18.433   3.952  0.0371  0.0661 -0.0240
33070ION     NA49544   3.391  17.006  11.141  0.1945  0.2170  0.1168
33071ION     NA49545  16.810   0.430   5.426  0.0281  0.1555  0.1213
33072ION     NA49546  12.547   4.342  10.190  0.2475 -0.0487  0.2580
33073ION     NA49547   3.127   7.466   9.930  0.1467 -0.2321  0.2146
33074ION     NA49548  18.296  15.828   5.823  0.0999  0.1618  0.1882
33075ION     NA49549  11.059  16.690   0.093  0.1241  0.2645 -0.1189
33076ION     NA49550  12.285  11.231   5.669 -0.3066 -0.4344  0.0411
33077ION     NA49551  11.891   6.550  13.368  0.0113  0.0424  0.1217
33078ION     NA49552  15.420  12.839  10.781  0.0794 -0.0985 -0.0114
33079ION     NA49553  11.422  11.444   6.088 -0.2904  0.1552 -0.4574
33080ION     NA49554   7.758   4.802   0.847  0.0857 -0.0018  0.0569
33081ION     NA49555   4.432  11.395  13.389  0.0116  0.0439 -0.0167
33082ION     NA49556   2.839   5.786   5.505  0.1054  0.2617  0.1517
33083ION     NA49557   6.461   7.622  10.455  0.1036  0.1603  0.3788
33084ION     NA49558   9.588   3.254   3.777 -0.3518 -0.1582 -0.1182
33085ION     NA49559  17.997  13.869   5.899 -0.1826 -0.3306 -0.1071
33086ION     NA49560  16.956   7.233  10.015 -0.0490 -0.1005  0.0159
33087ION     NA49561   6.346  10.034  10.242 -0.0347 -0.1000  0.3492
33088ION     NA49562   9.771  15.284  10.516  0.2044 -0.1056 -0.4660
33089ION     NA49563   9.420  11.215   5.971 -0.0132 -0.0316 -0.0438
33090ION     NA49564  17.034   3.491  13.119  0.1039  0.2299 -0.2266
33091ION     NA49565   3.664  10.667  15.281 -0.0365 -0.1252 -0.0333
33092ION     NA49566   2.900  16.309   3.321  0.0723  0.1435 -0.0506
33093ION     NA49567  14.400  14.740  13.988  0.2458 -0.0885 -0.2390
33094ION     NA49568  14.816  10.266   3.701 -0.0665 -0.0440  0.2518
33095ION     NA49569   8.078  10.508  14.169 -0.1531 -0.0157  0.5621
33096ION     NA49570  11.639  13.381  14.786 -0.1344 -0.0658 -0.3633
33097ION     NA49571   7.392   6.744  13.704  0.2155  0.0049 -0.0783
33098ION     NA49572  16.702   8.132   1.840 -0.0656  0.1801  0.1011
33099ION     NA49573  16.413   5.539   3.077 -0.0127 -0.1076 -0.2165
33100ION     NA49574   9.512   1.683   9.877  0.1247  0.0945 -0.2319
33101ION     NA49575   7.807   3.595   3.501 -0.2320 -0.3532  0.1406
33102ION     NA49576   9.407   3.174  14.550  0.0392 -0.1288 -0.0381
33103ION     NA49577  12.743  17.260   5.397  0.1145 -0.0950  0.1972
33104ION     NA49578   6.590   2.911   9.983 -0.0411 -0.0810  0.1142
33105ION     NA49579  12.661  10.270   6.141 -0.1689 -0.0481 -0.0288
33106ION     NA49580   7.168  13.107  10.047  0.0412  0.0075  0.0827
33107ION     NA49581   5.245  16.584   5.550 -0.2390  0.0408  0.0172
33108ION     NA49582   0.374   4.650   5.295  0.0212  0.3314  0.1731
33109ION     NA49583  10.465  15.360   6.234  0.3866 -0.1898  0.1711
33110ION     NA49584   9.094   2.234   3.542 -0.0767  0.2258 -0.1773
33111ION     NA49585   5.892   0.957   3.838  0.3561  0.4775 -0.1091
33112ION     NA49586  14.148   8.307   4.134 -0.1526 -0.5251  0.1522
33113ION     NA49587  13.591   1.082   1.676  0.0099 -0.0434 -0.2883
33114ION     NA49588   8.767  16.873   9.965  0.0064 -0.1461 -0.0975
33115ION     NA49589  17.098   4.445  11.966  0.3070 -0.3014  0.2711
33116ION     NA49590   8.935  10.099  14.554  0.0302 -0.0293 -0.0713
33117ION     NA49591  13.869   8.210  10.286  0.0691 -0.1986 -0.0396
33118ION     NA49592  11.654   5.862  10.401  0.1049  0.0101 -0.0396
33119ION     NA49593  12.998   4.232   3.304  0.0805 -0.0938 -0.0658
33120ION     NA49594   0.923   9.266  13.887 -0.1729  0.0414  0.1213
33121ION     NA49595  11.570  13.620  13.322  0.1409  0.3046  0.1006
33122ION     NA49596  12.784   0.821   3.336 -0.0384  0.0324  0.1531
33123ION     NA49597   0.363   5.407  10.243 -0.0517  0.0930  0.0054
33124ION     NA49598   2.064  16.569   1.078 -0.2709 -0.0955  0.1356
33125ION     NA49599   1.840   3.635   5.808  0.0329  0.1334  0.2559
33126ION     NA49600  15.806  14.625   1.505 -0.0493 -0.2114  0.2778
33127ION     NA49601  17.447   2.186   5.825  0.1979 -0.1293 -0.3873
33128ION     NA49602  15.065  17.538  10.315 -0.0094  0.0679  0.2337
33129ION     NA49603   6.442   2.793  14.998  0.3037 -0.2097 -0.1426
33130ION     NA49604  11.091   9.027  14.618  0.4007  0.0700  0.0572
33131ION     NA49605   5.140   9.596  15.860 -0.2412  0.0124  0.2692
33132ION     NA49606   4.398   3.904  11.504  0.0333 -0.0126  0.2029
  18.47888  18.47888  15.97049
